Title
82275
    1SAPS     N    1   3.993   2.547  11.127  0.7994 -1.1964 -0.0783
    1SAPS   HN1    2   4.040   2.628  11.082 -1.4345  0.8396  1.0258
    1SAPS   HN2    3   4.033   2.520  11.219 -1.4796 -2.9367  0.5104
    1SAPS   HN3    4   3.998   2.467  11.060  0.0113 -0.6525 -0.8085
    1SAPS   C12    5   3.853   2.596  11.152 -0.4862  0.3158 -0.1710
    1SAPS  H12A    6   3.797   2.518  11.202  0.8037 -0.3143  0.3458
    1SAPS   C13    7   3.832   2.730  11.228 -0.4059 -0.1243 -0.7409
    1SAPS  O13A    8   3.930   2.809  11.227  0.3678  0.2679 -0.1005
    1SAPS  O13B    9   3.715   2.771  11.260 -0.4376  0.0061  0.0624
    1SAPS   C11   10   3.790   2.611  11.018 -0.0287  0.3763  0.0980
    1SAPS  H11A   11   3.847   2.672  10.946 -0.2108 -0.9101 -1.1922
    1SAPS  H11B   12   3.683   2.640  11.025 -0.8464 -1.7229 -2.4063
    1SAPS     P   13   3.674   2.400  10.908 -0.3609 -0.1441 -0.3397
    1SAPS   O13   14   3.669   2.263  10.963 -0.7994 -0.1378  0.0358
    1SAPS   O14   15   3.543   2.470  10.918  0.0296  0.2330  0.3360
    1SAPS   O12   16   3.791   2.478  10.967  0.2661  0.0358  0.2063
    1SAPS   O11   17   3.710   2.406  10.758  0.3526  0.3981 -0.7137
    1SAPS    C1   18   3.835   2.351  10.710 -0.1990  0.5999 -0.0943
    1SAPS    HA   19   3.899   2.436  10.677 -2.2293  1.0618 -3.3201
    1SAPS    HB   20   3.884   2.286  10.785  0.9126 -1.6386 -2.5842
    1SAPS    C2   21   3.829   2.250  10.588 -0.0127 -0.8640 -0.6002
    1SAPS    HS   22   3.930   2.238  10.542  0.1074 -1.3921 -0.2034
    1SAPS   O21   23   3.722   2.290  10.493 -0.8083  0.8566 -0.5921
    1SAPS   C21   24   3.777   2.365  10.399 -0.7220  0.1543  0.7350
    1SAPS   O22   25   3.879   2.429  10.413  0.0320  0.2079 -0.0668
    1SAPS   C22   26   3.695   2.350  10.272  0.7531 -0.4278  0.0897
    1SAPS   H2R   27   3.620   2.270  10.291 -1.3760  1.0703 -1.5448
    1SAPS   H2S   28   3.653   2.452  10.260  0.5165 -0.6232 -0.8047
    1SAPS    C3   29   3.792   2.104  10.641  0.1968 -0.7216 -0.6840
    1SAPS    HX   30   3.703   2.126  10.703 -0.5403 -1.6613 -1.3873
    1SAPS    HY   31   3.878   2.061  10.696 -0.3430 -0.4217  0.4236
    1SAPS   O31   32   3.766   2.012  10.524  0.3280  0.5553  0.2798
    1SAPS   C31   33   3.640   1.981  10.501 -0.4225 -0.9505 -0.4836
    1SAPS   O32   34   3.545   2.008  10.571  0.4946 -0.1406 -0.0073
    1SAPS   C32   35   3.631   1.906  10.364  0.0801  0.2541 -0.1566
    1SAPS   H2X   36   3.594   1.804  10.390 -1.3079  0.0707 -2.5251
    1SAPS   H2Y   37   3.731   1.907  10.316  0.1861  0.1548  0.0598
    1SAPS   C23   38   3.772   2.302  10.149 -0.6404 -0.1329  0.1183
    1SAPS   H3R   39   3.740   2.202  10.115 -1.8027  0.5783 -0.9537
    1SAPS   H3S   40   3.876   2.281  10.183 -0.4868  0.5133  0.0587
    1SAPS   C24   41   3.786   2.397  10.032 -0.3151 -0.0939 -0.0040
    1SAPS   H4R   42   3.873   2.366   9.971  1.0205  2.4059  0.4606
    1SAPS   H4S   43   3.814   2.502  10.057 -0.7868  0.2837 -0.9954
    1SAPS   C25   44   3.655   2.383   9.959  0.2298 -0.0870 -0.0000
    1SAPS   H5R   45   3.572   2.409  10.028 -0.2223 -0.5172 -0.3736
    1SAPS   C26   46   3.620   2.320   9.843 -0.4207  0.2489 -0.3464
    1SAPS   H6R   47   3.513   2.324   9.819 -1.0856 -2.1545  1.8494
    1SAPS   C27   48   3.714   2.252   9.741 -0.1559 -0.5974 -0.5153
    1SAPS   H7R   49   3.806   2.225   9.797 -1.9182  0.1314  3.0038
    1SAPS   H7S   50   3.735   2.313   9.651  0.9714 -1.8819 -1.1590
    1SAPS   C28   51   3.664   2.120   9.689  0.3873  0.1195  0.6999
    1SAPS   H8R   52   3.611   2.047   9.752  0.2131  0.1865  0.6288
    1SAPS   C29   53   3.703   2.059   9.564 -0.1155  0.8802  0.4591
    1SAPS   H9R   54   3.661   1.961   9.536 -2.2085  1.4263  1.4851
    1SAPS  C210   55   3.805   2.113   9.467 -0.2063 -0.1417 -0.3362
    1SAPS  H10R   56   3.860   2.203   9.501  2.8219 -1.4502 -1.4132
    1SAPS  H10S   57   3.737   2.154   9.389 -0.4952  1.8982  0.9198
    1SAPS  C211   58   3.912   2.008   9.422  0.3773  0.2207  0.0040
    1SAPS  H11R   59   3.961   1.954   9.505  0.2821  0.9172  0.5207
    1SAPS  C212   60   3.931   1.955   9.298 -0.4915 -0.2523 -0.0525
    1SAPS  H12R   61   4.014   1.884   9.286 -0.3470 -0.0161 -0.4497
    1SAPS  C213   62   3.866   2.005   9.175 -0.1876 -0.2346  0.0718
    1SAPS  H13R   63   3.931   2.081   9.127 -0.8687  1.0846  1.1784
    1SAPS  H13S   64   3.773   2.056   9.208  0.4740  1.5399 -0.7069
    1SAPS  C214   65   3.835   1.888   9.078  0.0361 -0.0213  0.3669
    1SAPS  H14R   66   3.822   1.792   9.130 -0.4706  0.6911  1.5731
    1SAPS  C215   67   3.808   1.905   8.945  0.0891 -0.2977  1.0045
    1SAPS  H15R   68   3.775   1.818   8.887  1.1164  0.9369 -1.5552
    1SAPS  C216   69   3.804   2.044   8.881 -0.5170  0.0040  0.1857
    1SAPS  H16R   70   3.908   2.070   8.850 -0.8254  0.8003 -0.2179
    1SAPS  H16S   71   3.785   2.134   8.943  0.2707  0.7797 -0.6611
    1SAPS  C217   72   3.709   2.038   8.750 -1.0046 -0.6282 -0.0772
    1SAPS  H17R   73   3.607   2.014   8.786 -1.7701  0.3811 -1.4695
    1SAPS  H17S   74   3.743   1.960   8.679  0.1228  0.2144 -0.4919
    1SAPS  C218   75   3.710   2.169   8.673 -0.5220  0.8992 -0.2142
    1SAPS  H18R   76   3.643   2.170   8.584  2.4985  0.7873 -2.6527
    1SAPS  H18S   77   3.806   2.194   8.625  1.1116 -0.7752  1.9480
    1SAPS  C219   78   3.667   2.287   8.759 -0.5997  0.7634  0.7415
    1SAPS  H19R   79   3.723   2.301   8.854  0.6982  0.9385 -0.0317
    1SAPS  H19S   80   3.562   2.272   8.792 -1.6188  1.4536 -1.9596
    1SAPS  C220   81   3.685   2.417   8.685 -0.5516  0.2581 -0.3064
    1SAPS  H20R   82   3.792   2.434   8.661 -0.6452  1.6155  0.1677
    1SAPS  H20S   83   3.641   2.496   8.749  0.0163  0.2219  0.1366
    1SAPS  H20T   84   3.631   2.408   8.588 -0.5200  2.6605 -0.6010
    1SAPS   C33   85   3.534   1.960  10.250 -0.2007 -0.1304  0.7520
    1SAPS   H3X   86   3.571   2.056  10.209 -1.2831  0.2028  0.5140
    1SAPS   H3Y   87   3.440   1.993  10.298 -1.6291  1.3401 -2.6882
    1SAPS   C34   88   3.491   1.870  10.137  0.3713  0.1237  0.5527
    1SAPS   H4X   89   3.405   1.915  10.082  1.3863  2.3649  0.6829
    1SAPS   H4Y   90   3.460   1.774  10.183 -1.9732  1.6635  2.4871
    1SAPS   C35   91   3.601   1.844  10.032 -0.8285  1.0767  0.2205
    1SAPS   H5X   92   3.695   1.818  10.086  0.6535  0.9715 -2.2558
    1SAPS   H5Y   93   3.631   1.939   9.982 -1.3985  0.0667 -2.1763
    1SAPS   C36   94   3.583   1.735   9.924 -0.1804 -0.4436 -0.7586
    1SAPS   H6X   95   3.490   1.759   9.868 -1.3726  1.2237  1.7985
    1SAPS   H6Y   96   3.540   1.640   9.963 -3.3797  0.9469 -0.5450
    1SAPS   C37   97   3.714   1.705   9.849  0.2412 -0.1437  0.8098
    1SAPS   H7X   98   3.778   1.641   9.913  1.4764  0.8840  0.6505
    1SAPS   H7Y   99   3.763   1.802   9.823  1.8317 -1.5702 -1.9527
    1SAPS   C38  100   3.684   1.634   9.720 -0.4229  0.5513  1.3267
    1SAPS   H8X  101   3.599   1.679   9.665  0.4535  0.9896  0.2634
    1SAPS   H8Y  102   3.650   1.532   9.746  4.1039 -1.6606 -0.3084
    1SAPS   C39  103   3.807   1.626   9.622 -0.1413  0.1506 -0.4663
    1SAPS   H9X  104   3.886   1.564   9.669  1.6711  2.0302 -0.9135
    1SAPS   H9Y  105   3.840   1.731   9.607  1.4353 -0.0424  1.2328
    1SAPS  C310  106   3.763   1.548   9.499 -0.3144 -0.4769  0.9836
    1SAPS  H10X  107   3.689   1.620   9.458  1.7907  1.0466 -0.3363
    1SAPS  H10Y  108   3.714   1.451   9.520 -0.1825 -1.8296 -3.8705
    1SAPS  C311  109   3.887   1.521   9.406  0.6488 -0.1003  0.2569
    1SAPS  H11X  110   3.952   1.445   9.454  0.6493  0.0469  0.4923
    1SAPS  H11Y  111   3.947   1.615   9.398 -0.0027  0.2017 -1.4385
    1SAPS  C312  112   3.844   1.482   9.262  0.1203  0.4649 -0.3286
    1SAPS  H12X  113   3.792   1.563   9.207  2.1210  1.0302 -1.4933
    1SAPS  H12Y  114   3.760   1.410   9.271 -1.0454  1.8409  0.3242
    1SAPS  C313  115   3.964   1.438   9.182  0.2213  0.4519  0.5837
    1SAPS  H13X  116   4.002   1.343   9.226 -2.0722 -1.2675 -0.8616
    1SAPS  H13Y  117   4.037   1.519   9.165 -1.4544  1.7458 -0.8573
    1SAPS  C314  118   3.922   1.406   9.037  0.2990  0.1198 -0.3722
    1SAPS  H14X  119   3.857   1.490   9.004 -0.8851 -0.5637  0.1653
    1SAPS  H14Y  120   3.859   1.316   9.022  0.5901 -0.5077  1.7174
    1SAPS  C315  121   4.045   1.404   8.941 -0.0759 -0.3750  0.5908
    1SAPS  H15X  122   4.105   1.317   8.975  0.5959 -1.0096 -2.0070
    1SAPS  H15Y  123   4.103   1.499   8.949 -3.3537  1.8366  0.1886
    1SAPS  C316  124   4.005   1.381   8.796 -0.3100 -0.0381 -0.2092
    1SAPS  H16X  125   3.978   1.274   8.786  3.0722 -0.8190 -3.5309
    1SAPS  H16Y  126   4.098   1.376   8.735  0.1243 -1.6669  0.5312
    1SAPS  C317  127   3.923   1.496   8.736  0.5942 -0.7740  0.1890
    1SAPS  H17X  128   3.957   1.591   8.783  1.0777 -2.1438  2.7751
    1SAPS  H17Y  129   3.822   1.486   8.781  0.5281  0.1241  0.2505
    1SAPS  C318  130   3.931   1.502   8.584 -0.1762  0.7481 -0.2960
    1SAPS  H18X  131   3.866   1.585   8.549 -0.9743  0.1152 -0.3479
    1SAPS  H18Y  132   3.900   1.413   8.525  0.0702  1.3997 -1.4399
    1SAPS  H18Z  133   4.032   1.534   8.550 -0.4114  2.7906  0.7699
    2SAPS     N  134   0.244   0.725  10.856  0.4159  0.2620  0.0253
    2SAPS   HN1  135   0.247   0.687  10.953  0.0635  2.1472  0.8228
    2SAPS   HN2  136   0.166   0.794  10.850 -0.4195 -0.7801 -3.5229
    2SAPS   HN3  137   0.221   0.648  10.789 -2.4900  1.9534 -1.0894
    2SAPS   C12  138   0.380   0.793  10.833  0.4160 -0.1773  0.1069
    2SAPS  H12A  139   0.387   0.792  10.725 -0.5252 -3.7828 -0.0721
    2SAPS   C13  140   0.386   0.938  10.888 -0.7581 -0.2275 -0.1571
    2SAPS  O13A  141   0.281   0.996  10.935 -0.2585  0.5509  0.0374
    2SAPS  O13B  142   0.491   0.999  10.857  0.0580 -0.0721  0.2224
    2SAPS   C11  143   0.492   0.716  10.897 -0.4122  0.5833 -0.4419
    2SAPS  H11A  144   0.474   0.719  11.007 -1.0716  0.5484 -0.5477
    2SAPS  H11B  145   0.585   0.767  10.862 -1.0489  1.4552 -0.9007
    2SAPS     P  146   0.619   0.482  10.903 -0.2682  0.0670  0.3841
    2SAPS   O13  147   0.700   0.533  11.012 -0.2454  0.1275 -0.0159
    2SAPS   O14  148   0.553   0.352  10.931 -0.1263 -0.2966 -0.1881
    2SAPS   O12  149   0.504   0.577  10.863  0.0696  0.1292  0.0550
    2SAPS   O11  150   0.697   0.478  10.767 -0.5327 -0.4432  0.2417
    2SAPS    C1  151   0.768   0.588  10.712  0.0051 -1.0732 -0.1413
    2SAPS    HA  152   0.693   0.667  10.689 -0.0456 -0.4638  1.9368
    2SAPS    HB  153   0.836   0.626  10.791 -1.3362  0.5489  0.3012
    2SAPS    C2  154   0.858   0.540  10.594 -0.4072 -0.4607 -0.1623
    2SAPS    HS  155   0.924   0.624  10.561 -1.4808  0.7548  0.6739
    2SAPS   O21  156   0.783   0.496  10.480  0.7084  0.0630 -0.1303
    2SAPS   C21  157   0.726   0.591  10.416  0.0584  0.2998  0.3952
    2SAPS   O22  158   0.738   0.707  10.443 -0.0099  0.0519 -0.2369
    2SAPS   C22  159   0.664   0.537  10.283  0.5671  0.2273 -0.2471
    2SAPS   H2R  160   0.729   0.570  10.199  0.4044  0.8904 -0.1132
    2SAPS   H2S  161   0.665   0.426  10.289 -0.4882  0.1285 -1.4952
    2SAPS    C3  162   0.961   0.425  10.626  0.0853 -0.1953  0.0389
    2SAPS    HX  163   0.912   0.334  10.666 -0.6660  0.0967 -0.1933
    2SAPS    HY  164   1.024   0.448  10.715  0.0431  1.0275 -0.2274
    2SAPS   O31  165   1.042   0.392  10.508  0.3255 -0.1891 -0.3001
    2SAPS   C31  166   1.140   0.465  10.489 -0.3734 -0.3487 -0.2873
    2SAPS   O32  167   1.171   0.566  10.548  0.0188  0.2129 -0.2570
    2SAPS   C32  168   1.222   0.402  10.377 -0.6232  0.0667 -0.3132
    2SAPS   H2X  169   1.196   0.295  10.369  1.7193 -0.7112  1.2512
    2SAPS   H2Y  170   1.324   0.425  10.415 -1.7123  2.1434  1.6267
    2SAPS   C23  171   0.528   0.602  10.260  0.2305  0.6909 -0.2882
    2SAPS   H3R  172   0.523   0.712  10.274  1.1225  0.5997  0.9873
    2SAPS   H3S  173   0.450   0.554  10.322 -0.4341  1.2276 -0.7060
    2SAPS   C24  174   0.479   0.577  10.114  0.3357 -0.1934 -0.0186
    2SAPS   H4R  175   0.387   0.639  10.118  0.4314 -0.1286  2.0811
    2SAPS   H4S  176   0.469   0.467  10.099 -1.1812  0.0589 -1.1093
    2SAPS   C25  177   0.566   0.625   9.998 -0.1213 -0.0152  0.0163
    2SAPS   H5R  178   0.559   0.734   9.987  1.0520  0.4147  2.6638
    2SAPS   C26  179   0.633   0.556   9.905  0.0051 -0.3249 -0.5749
    2SAPS   H6R  180   0.700   0.601   9.830 -1.4990 -0.7603 -2.2382
    2SAPS   C27  181   0.638   0.406   9.887 -0.0491  0.0554  0.3088
    2SAPS   H7R  182   0.536   0.362   9.890 -0.4994  1.1226  2.3794
    2SAPS   H7S  183   0.685   0.361   9.977  0.5066 -0.3171 -0.1542
    2SAPS   C28  184   0.708   0.360   9.761 -0.4402  0.4229 -0.6868
    2SAPS   H8R  185   0.804   0.307   9.768 -0.9858 -0.6843 -1.2913
    2SAPS   C29  186   0.660   0.365   9.637  0.6251  0.1908  0.0808
    2SAPS   H9R  187   0.735   0.342   9.559  0.5628  3.1597 -0.9528
    2SAPS  C210  188   0.530   0.428   9.590 -0.1377 -0.4753  0.9012
    2SAPS  H10R  189   0.477   0.475   9.676 -2.3899  0.5061 -0.9218
    2SAPS  H10S  190   0.459   0.353   9.548  0.8433 -1.4298  0.8971
    2SAPS  C211  191   0.555   0.536   9.494  0.1263 -0.0873  0.0055
    2SAPS  H11R  192   0.617   0.617   9.535  1.8524 -1.2073 -0.3066
    2SAPS  C212  193   0.530   0.541   9.367 -0.5526 -0.6014  0.4388
    2SAPS  H12R  194   0.569   0.631   9.317 -0.8294 -0.3311  0.7084
    2SAPS  C213  195   0.457   0.444   9.280  0.0259 -0.0962 -0.6908
    2SAPS  H13R  196   0.372   0.502   9.237 -1.5670  0.0224  2.3656
    2SAPS  H13S  197   0.423   0.358   9.341  1.7975  1.5132  2.8879
    2SAPS  C214  198   0.547   0.402   9.163  0.8840  0.4288 -0.3531
    2SAPS  H14R  199   0.653   0.400   9.192  0.2478  3.1273  2.6816
    2SAPS  C215  200   0.518   0.398   9.034  0.7118 -0.6578  0.3303
    2SAPS  H15R  201   0.598   0.357   8.971  0.5396  0.3895 -0.6045
    2SAPS  C216  202   0.394   0.423   8.960  0.1231  0.1069  0.3727
    2SAPS  H16R  203   0.420   0.484   8.871  0.5607  1.1834  1.2231
    2SAPS  H16S  204   0.324   0.481   9.024  0.2906  0.4909  0.2076
    2SAPS  C217  205   0.320   0.290   8.926  0.0955  0.0965 -0.2108
    2SAPS  H17R  206   0.214   0.314   8.906  0.3374  1.5170  0.0830
    2SAPS  H17S  207   0.329   0.224   9.015  2.7547  0.1982 -0.3167
    2SAPS  C218  208   0.382   0.216   8.806 -0.3935  0.1162  0.0247
    2SAPS  H18R  209   0.493   0.218   8.813 -0.4275  1.8780  0.6103
    2SAPS  H18S  210   0.353   0.285   8.724  0.9730  1.6538  0.7578
    2SAPS  C219  211   0.332   0.074   8.797 -0.1191 -0.1100 -0.1215
    2SAPS  H19R  212   0.223   0.061   8.813 -0.5509  1.3766 -1.5745
    2SAPS  H19S  213   0.386   0.029   8.883  0.7844  3.9914  1.6987
    2SAPS  C220  214   0.373   0.002   8.669  0.0478 -0.4326 -0.1219
    2SAPS  H20R  215   0.287  -0.000   8.599 -0.3777  1.5424  0.2923
    2SAPS  H20S  216   0.420  -0.098   8.687  1.8009  0.5650  1.1489
    2SAPS  H20T  217   0.452   0.060   8.616 -0.8809  0.6792 -0.3157
    2SAPS   C33  218   1.192   0.471  10.240 -0.0145 -0.1955 -0.5193
    2SAPS   H3X  219   1.271   0.441  10.167  0.6240  0.2860 -0.0429
    2SAPS   H3Y  220   1.189   0.581  10.250  1.5869 -0.0221 -1.4999
    2SAPS   C34  221   1.059   0.424  10.175 -0.2120  0.4188  0.3864
    2SAPS   H4X  222   0.972   0.458  10.236 -0.8352 -0.9182  0.2842
    2SAPS   H4Y  223   1.053   0.313  10.181 -1.9425  0.4089 -0.5930
    2SAPS   C35  224   1.048   0.454  10.025  0.5980  0.4002  0.0497
    2SAPS   H5X  225   0.970   0.391   9.978  2.5877 -1.6625 -0.6356
    2SAPS   H5Y  226   1.142   0.428   9.971 -0.0370 -1.6523 -0.1325
    2SAPS   C36  227   1.003   0.593   9.995  0.1546  0.0369 -0.3476
    2SAPS   H6X  228   1.067   0.664  10.052  0.2188 -1.6948  1.8697
    2SAPS   H6Y  229   0.902   0.613  10.035  0.0682  1.4854 -1.2197
    2SAPS   C37  230   0.998   0.626   9.848 -0.7520 -0.0556 -0.3603
    2SAPS   H7X  231   0.960   0.730   9.837 -0.3851  0.0008 -1.2083
    2SAPS   H7Y  232   0.925   0.553   9.807  1.2704 -1.8680 -0.9404
    2SAPS   C38  233   1.124   0.606   9.765 -0.4206 -0.7556 -0.6030
    2SAPS   H8X  234   1.157   0.501   9.781 -0.0301 -0.6591 -0.7668
    2SAPS   H8Y  235   1.200   0.676   9.805 -0.4687 -1.4007  0.6552
    2SAPS   C39  236   1.118   0.625   9.614  0.1434 -0.1328  0.8155
    2SAPS   H9X  237   1.214   0.611   9.560  0.1464  1.8598  0.2016
    2SAPS   H9Y  238   1.100   0.731   9.585 -0.6002 -1.2216 -3.4645
    2SAPS  C310  239   1.012   0.536   9.547  0.2395 -0.3923  0.1207
    2SAPS  H10X  240   0.915   0.552   9.599 -0.6815  1.6935 -2.0334
    2SAPS  H10Y  241   1.046   0.430   9.556 -1.3187 -0.9395 -0.1919
    2SAPS  C311  242   1.002   0.551   9.393 -0.1328 -0.1921 -0.3810
    2SAPS  H11X  243   1.103   0.535   9.351  0.2626  1.6163 -0.2013
    2SAPS  H11Y  244   0.966   0.654   9.372 -1.7671 -0.9220 -1.4097
    2SAPS  C312  245   0.906   0.452   9.318 -0.3804  0.3292  0.0727
    2SAPS  H12X  246   0.808   0.489   9.355 -0.9310 -1.6447  0.7038
    2SAPS  H12Y  247   0.921   0.354   9.369 -0.8460  1.5602  2.7224
    2SAPS  C313  248   0.919   0.460   9.165 -0.0401  0.1572  0.0575
    2SAPS  H13X  249   0.849   0.386   9.121  0.1966  1.3301 -2.4513
    2SAPS  H13Y  250   1.020   0.435   9.129  1.4230  1.2305  3.0578
    2SAPS  C314  251   0.870   0.590   9.111  0.4630 -0.4354  0.7229
    2SAPS  H14X  252   0.934   0.676   9.142 -2.5695  1.4194  2.4324
    2SAPS  H14Y  253   0.770   0.622   9.150  1.3098  0.4729  2.2764
    2SAPS  C315  254   0.845   0.587   8.966 -0.3892  0.3615 -0.1818
    2SAPS  H15X  255   0.780   0.498   8.951 -1.5444  1.0419  0.5965
    2SAPS  H15Y  256   0.942   0.571   8.914 -0.4746 -1.3959  0.1450
    2SAPS  C316  257   0.778   0.711   8.917  0.8046 -0.2707  0.2202
    2SAPS  H16X  258   0.826   0.803   8.956  1.2154  0.4561 -1.9208
    2SAPS  H16Y  259   0.674   0.723   8.956  0.8559  0.2057  0.2080
    2SAPS  C317  260   0.768   0.714   8.767  0.6330  0.0083 -0.1540
    2SAPS  H17X  261   0.861   0.714   8.707  1.2059  1.8086  0.6662
    2SAPS  H17Y  262   0.732   0.818   8.752 -0.1299 -0.3502 -0.8409
    2SAPS  C318  263   0.680   0.600   8.715 -0.6813  0.1856  0.0259
    2SAPS  H18X  264   0.640   0.609   8.612 -1.8828  0.3504  0.4881
    2SAPS  H18Y  265   0.588   0.603   8.778  0.3637  3.4767  1.6711
    2SAPS  H18Z  266   0.733   0.504   8.723 -0.6529  0.0918 -1.1736
    3SAPS     N  267   0.271   3.349  10.977 -0.5804 -0.3827 -0.1623
    3SAPS   HN1  268   0.267   3.441  11.025 -0.3529  0.9911 -2.6175
    3SAPS   HN2  269   0.215   3.365  10.890  0.0618  1.3264 -0.3057
    3SAPS   HN3  270   0.221   3.277  11.032 -1.6262  0.1708 -0.3520
    3SAPS   C12  271   0.401   3.309  10.933 -0.1004 -0.0163 -0.7105
    3SAPS  H12A  272   0.460   3.288  11.022  1.7032 -0.0751 -1.8654
    3SAPS   C13  273   0.408   3.176  10.849 -0.6398  0.0116  0.5012
    3SAPS  O13A  274   0.306   3.112  10.827  0.5250 -0.3245  0.1553
    3SAPS  O13B  275   0.519   3.118  10.836  0.2863 -0.4168 -0.0995
    3SAPS   C11  276   0.468   3.435  10.862 -0.1655  0.6914 -0.6603
    3SAPS  H11A  277   0.392   3.499  10.812 -0.7302  2.5490  2.3731
    3SAPS  H11B  278   0.528   3.393  10.778 -2.6744 -0.3982 -2.0438
    3SAPS     P  279   0.571   3.670  10.941 -0.1509 -0.0334 -0.0955
    3SAPS   O13  280   0.472   3.748  11.018 -0.5028 -0.4799 -0.3678
    3SAPS   O14  281   0.709   3.691  10.984  0.1521 -0.2771 -0.6922
    3SAPS   O12  282   0.535   3.512  10.963 -0.3220  0.3820  1.0756
    3SAPS   O11  283   0.565   3.693  10.791  0.4521  0.8720 -0.8885
    3SAPS    C1  284   0.677   3.649  10.717 -0.1600  0.7511 -0.2810
    3SAPS    HA  285   0.765   3.705  10.754  0.7230 -0.8949  0.2163
    3SAPS    HB  286   0.700   3.541  10.730  0.8811  1.0758  0.7361
    3SAPS    C2  287   0.650   3.661  10.559 -0.3964 -0.5824 -0.5586
    3SAPS    HS  288   0.716   3.596  10.498 -1.2915 -1.6132 -0.4513
    3SAPS   O21  289   0.667   3.798  10.512  0.4884 -0.1231  0.5245
    3SAPS   C21  290   0.783   3.839  10.501 -0.2203  0.6361  0.0703
    3SAPS   O22  291   0.887   3.782  10.538  0.1498 -0.1925  0.5794
    3SAPS   C22  292   0.767   3.970  10.422 -0.1565 -0.1270  0.4022
    3SAPS   H2R  293   0.666   3.976  10.378  0.8890 -1.5272 -2.4274
    3SAPS   H2S  294   0.781   4.050  10.498  0.9971  0.4944 -0.4334
    3SAPS    C3  295   0.500   3.621  10.539 -0.6018  0.2597  0.0589
    3SAPS    HX  296   0.428   3.671  10.607  1.0792  0.5749  1.6825
    3SAPS    HY  297   0.487   3.516  10.574  1.6597  0.0911  0.4925
    3SAPS   O31  298   0.443   3.651  10.401 -0.1807  0.3551 -0.0883
    3SAPS   C31  299   0.484   3.555  10.306  0.7170 -0.7611 -0.7018
    3SAPS   O32  300   0.549   3.456  10.329 -0.4838  0.4828 -0.6140
    3SAPS   C32  301   0.433   3.610  10.178  0.0150  0.7515  0.5537
    3SAPS   H2X  302   0.498   3.695  10.150 -0.3156  0.1317 -2.3767
    3SAPS   H2Y  303   0.329   3.650  10.181 -0.6369 -0.5145 -2.0738
    3SAPS   C23  304   0.877   3.989  10.312  0.2608 -0.0803  0.4356
    3SAPS   H3R  305   0.969   4.006  10.372  1.8974  1.9454 -2.3826
    3SAPS   H3S  306   0.866   4.087  10.260 -1.0334  0.3875  1.5179
    3SAPS   C24  307   0.897   3.869  10.212 -0.2150  0.0888  0.3983
    3SAPS   H4R  308   0.953   3.782  10.251 -1.7501 -1.9179 -1.6171
    3SAPS   H4S  309   0.969   3.902  10.134  0.0170 -2.5412 -0.5847
    3SAPS   C25  310   0.771   3.817  10.146  0.5932 -0.6495  0.3638
    3SAPS   H5R  311   0.697   3.769  10.212  0.6671  1.1752  1.8681
    3SAPS   C26  312   0.740   3.822  10.017  0.3776 -0.4908  0.2663
    3SAPS   H6R  313   0.643   3.781   9.985  0.6124 -0.2791 -0.7340
    3SAPS   C27  314   0.829   3.866   9.901  0.2943  0.0605  0.0527
    3SAPS   H7R  315   0.886   3.956   9.934 -1.8473  1.9294 -1.0316
    3SAPS   H7S  316   0.771   3.897   9.811 -0.2690  1.4600  0.8486
    3SAPS   C28  317   0.914   3.746   9.864 -0.2560  0.0159  0.0016
    3SAPS   H8R  318   0.996   3.720   9.933  0.0374  1.1730  0.1022
    3SAPS   C29  319   0.910   3.683   9.745  0.4100  0.4453 -0.5274
    3SAPS   H9R  320   0.983   3.602   9.726  1.1894  0.6157  1.4805
    3SAPS  C210  321   0.816   3.716   9.630 -0.1547 -0.4811 -0.3817
    3SAPS  H10R  322   0.877   3.783   9.566  0.3993 -1.9461 -1.4477
    3SAPS  H10S  323   0.726   3.778   9.653  0.4930 -0.9211  4.2195
    3SAPS  C211  324   0.785   3.597   9.548  0.7877 -0.6183  0.2231
    3SAPS  H11R  325   0.776   3.500   9.598 -0.6686 -2.3775 -3.1281
    3SAPS  C212  326   0.781   3.591   9.413  0.3600 -0.0131  0.3412
    3SAPS  H12R  327   0.786   3.495   9.358  2.7023  1.9101 -3.2636
    3SAPS  C213  328   0.812   3.713   9.322 -0.6302 -0.4256  0.0018
    3SAPS  H13R  329   0.920   3.733   9.307 -1.1330  0.8110 -2.7484
    3SAPS  H13S  330   0.760   3.799   9.369  1.8721  2.5805 -2.2955
    3SAPS  C214  331   0.742   3.684   9.198  0.0984  0.1953 -0.4232
    3SAPS  H14R  332   0.635   3.662   9.212  0.3773 -0.8268  0.2220
    3SAPS  C215  333   0.783   3.685   9.074 -0.6981  0.4544 -0.0073
    3SAPS  H15R  334   0.715   3.671   8.989  1.1512 -1.2773 -1.3047
    3SAPS  C216  335   0.920   3.711   9.016 -0.2146  0.2587  0.5430
    3SAPS  H16R  336   0.985   3.772   9.083  0.1115  0.3473  0.1550
    3SAPS  H16S  337   0.918   3.774   8.924  0.6055 -0.6155 -0.0957
    3SAPS  C217  338   0.997   3.594   8.960 -0.2216 -0.3372 -0.3940
    3SAPS  H17R  339   0.922   3.529   8.909 -1.3703 -0.2031  1.0662
    3SAPS  H17S  340   1.037   3.529   9.040 -1.0209  1.4579  1.5554
    3SAPS  C218  341   1.119   3.624   8.876  0.0435  0.2019 -0.2150
    3SAPS  H18R  342   1.172   3.699   8.938  0.3658  1.4899 -1.9702
    3SAPS  H18S  343   1.109   3.691   8.788  2.1048  0.3710 -0.3859
    3SAPS  C219  344   1.206   3.508   8.844 -0.3607  0.2546  0.7081
    3SAPS  H19R  345   1.246   3.466   8.939 -1.3584  1.5271  1.7252
    3SAPS  H19S  346   1.302   3.539   8.797  0.3808 -1.1804  1.2080
    3SAPS  C220  347   1.143   3.398   8.755  0.0545 -0.2369  0.2791
    3SAPS  H20R  348   1.101   3.441   8.662 -2.9447  0.9982  2.0627
    3SAPS  H20S  349   1.078   3.344   8.826  0.9388 -2.0792 -0.2627
    3SAPS  H20T  350   1.226   3.330   8.726 -0.0771  0.4907 -1.9843
    3SAPS   C33  351   0.457   3.516  10.052  0.1375  0.6999 -0.2110
    3SAPS   H3X  352   0.389   3.428  10.060 -0.2091  0.8444 -1.4829
    3SAPS   H3Y  353   0.561   3.479  10.041 -0.1696 -0.1599 -0.2758
    3SAPS   C34  354   0.407   3.575   9.923  0.6590  0.1054 -0.3959
    3SAPS   H4X  355   0.462   3.666   9.889  1.4053 -0.1619  0.0753
    3SAPS   H4Y  356   0.300   3.600   9.933  0.5996 -0.7352  1.3424
    3SAPS   C35  357   0.432   3.481   9.810 -0.2160  0.0974  1.0703
    3SAPS   H5X  358   0.362   3.394   9.814  0.1337 -0.4772 -2.3987
    3SAPS   H5Y  359   0.539   3.457   9.822  0.6820  2.1295 -1.8258
    3SAPS   C36  360   0.415   3.549   9.672  0.0384 -0.0897 -0.3720
    3SAPS   H6X  361   0.487   3.630   9.644 -1.0867  0.9106 -0.4585
    3SAPS   H6Y  362   0.315   3.597   9.668 -0.0659 -0.2170  0.5190
    3SAPS   C37  363   0.420   3.444   9.563  0.5698 -0.8925  0.9388
    3SAPS   H7X  364   0.334   3.374   9.575 -1.5761  1.4825  0.3508
    3SAPS   H7Y  365   0.514   3.386   9.570 -0.2587 -2.4433 -0.0773
    3SAPS   C38  366   0.405   3.501   9.417 -0.5184  0.1117 -0.2208
    3SAPS   H8X  367   0.456   3.600   9.420  1.9751 -1.0832  2.8957
    3SAPS   H8Y  368   0.294   3.511   9.410 -0.8911 -2.0512  1.3749
    3SAPS   C39  369   0.458   3.410   9.310  0.4541  0.3851 -0.0334
    3SAPS   H9X  370   0.429   3.304   9.327  0.0010  0.1448 -1.9989
    3SAPS   H9Y  371   0.569   3.402   9.312  0.3752 -0.9563  0.1826
    3SAPS  C310  372   0.399   3.443   9.172 -0.8861  0.3536 -0.4716
    3SAPS  H10X  373   0.424   3.547   9.144 -1.7977  0.5035 -0.7482
    3SAPS  H10Y  374   0.289   3.436   9.176 -0.9221 -0.6095 -2.3547
    3SAPS  C311  375   0.459   3.369   9.058  0.6892  0.4547 -0.1489
    3SAPS  H11X  376   0.453   3.261   9.082 -0.4694  0.3512 -0.8271
    3SAPS  H11Y  377   0.567   3.382   9.038  0.5867 -0.4460 -1.4403
    3SAPS  C312  378   0.376   3.390   8.926  0.4663  0.4171 -0.3221
    3SAPS  H12X  379   0.391   3.500   8.922 -0.2657  0.5674  0.5418
    3SAPS  H12Y  380   0.267   3.368   8.927  0.6378 -0.6595 -2.2721
    3SAPS  C313  381   0.441   3.320   8.808 -0.2785  1.2383  0.1312
    3SAPS  H13X  382   0.548   3.308   8.835 -1.1408 -1.6634  3.0544
    3SAPS  H13Y  383   0.428   3.371   8.710  0.5336  0.8570 -0.1872
    3SAPS  C314  384   0.388   3.178   8.784 -0.0002  0.4013 -0.6634
    3SAPS  H14X  385   0.283   3.177   8.749  0.3214  0.6762 -1.6863
    3SAPS  H14Y  386   0.390   3.140   8.888 -3.5446  1.3998 -0.0933
    3SAPS  C315  387   0.478   3.100   8.689  0.3211 -0.2855  0.6336
    3SAPS  H15X  388   0.575   3.070   8.733  2.9518  4.3499 -1.2913
    3SAPS  H15Y  389   0.508   3.171   8.609  1.5931 -0.9422  0.4936
    3SAPS  C316  390   0.409   2.978   8.630 -0.3800 -0.3306 -0.4738
    3SAPS  H16X  391   0.316   3.021   8.588  0.9918  0.9620 -2.3590
    3SAPS  H16Y  392   0.379   2.911   8.713 -1.3963  1.1329  0.3728
    3SAPS  C317  393   0.489   2.904   8.525 -0.0720 -0.1861 -0.4592
    3SAPS  H17X  394   0.516   2.963   8.435 -0.4037 -1.8520 -1.7070
    3SAPS  H17Y  395   0.411   2.829   8.497  0.2393 -1.2404  1.3096
    3SAPS  C318  396   0.609   2.816   8.571  0.6437 -0.0796 -0.3249
    3SAPS  H18X  397   0.637   2.745   8.490 -0.1935 -0.2849 -0.4442
    3SAPS  H18Y  398   0.577   2.748   8.653  1.2814 -3.0248 -2.3598
    3SAPS  H18Z  399   0.698   2.873   8.605  1.0767 -2.0693  2.1660
    4SAPS     N  400   1.749   3.212  10.697 -0.2771 -0.3077 -0.7310
    4SAPS   HN1  401   1.722   3.129  10.754  0.4060 -0.8389 -1.1605
    4SAPS   HN2  402   1.714   3.199  10.600 -0.9155  3.5592 -1.1588
    4SAPS   HN3  403   1.853   3.216  10.696 -0.2253 -1.1861 -0.1999
    4SAPS   C12  404   1.694   3.340  10.757  0.1122 -0.4291  0.2222
    4SAPS  H12A  405   1.588   3.339  10.737  0.3194  0.4943 -1.0234
    4SAPS   C13  406   1.720   3.348  10.908 -0.3612  0.0890 -0.2392
    4SAPS  O13A  407   1.788   3.253  10.961 -0.0660  0.8005 -0.1551
    4SAPS  O13B  408   1.650   3.419  10.977 -0.2846  0.0420 -0.1794
    4SAPS   C11  409   1.758   3.464  10.694 -0.8627 -0.8804 -0.0028
    4SAPS  H11A  410   1.722   3.561  10.735 -0.1607 -1.1845  1.4092
    4SAPS  H11B  411   1.730   3.455  10.587 -1.3407 -0.4764  0.0839
    4SAPS     P  412   1.980   3.575  10.627 -0.0633  0.2674 -0.1169
    4SAPS   O13  413   1.942   3.709  10.678 -0.2645 -0.7354  0.6827
    4SAPS   O14  414   2.126   3.544  10.633 -0.4746 -0.0668 -0.6043
    4SAPS   O12  415   1.903   3.464  10.709 -0.3845 -0.3643 -0.6042
    4SAPS   O11  416   1.924   3.549  10.483 -0.0126 -0.5557  0.0509
    4SAPS    C1  417   2.005   3.492  10.377 -0.2692  0.3110 -0.1095
    4SAPS    HA  418   2.115   3.494  10.395  0.0835  0.0004 -2.0616
    4SAPS    HB  419   1.967   3.388  10.376  0.6416 -0.0953  1.9275
    4SAPS    C2  420   1.988   3.566  10.237  0.7805  0.4262  0.1141
    4SAPS    HS  421   2.053   3.508  10.167  1.2159  0.4204  0.5170
    4SAPS   O21  422   2.030   3.704  10.238  0.8023 -0.2428 -0.3353
    4SAPS   C21  423   2.158   3.735  10.224  0.4799 -0.2847 -0.0850
    4SAPS   O22  424   2.246   3.657  10.201  0.3943  0.1651  0.6735
    4SAPS   C22  425   2.169   3.888  10.228  0.2701  0.1013  0.4615
    4SAPS   H2R  426   2.093   3.949  10.174  1.1945  0.3527 -0.5784
    4SAPS   H2S  427   2.169   3.912  10.336  1.9836  1.7093  0.1544
    4SAPS    C3  428   1.841   3.559  10.193  0.1353 -0.1311  0.4579
    4SAPS    HX  429   1.755   3.598  10.251 -1.0870 -2.6113  0.4737
    4SAPS    HY  430   1.814   3.451  10.199  0.3059 -0.3508 -1.9732
    4SAPS   O31  431   1.834   3.588  10.054 -0.4285 -0.0203 -0.6942
    4SAPS   C31  432   1.792   3.704  10.015 -0.8513  0.2535  0.6270
    4SAPS   O32  433   1.749   3.796  10.087 -0.0246 -0.2816 -0.3407
    4SAPS   C32  434   1.786   3.704   9.871  0.3830 -0.2328 -0.3929
    4SAPS   H2X  435   1.688   3.752   9.851  1.1912  2.3267  1.2577
    4SAPS   H2Y  436   1.797   3.601   9.832 -1.1908 -0.7793  0.5305
    4SAPS   C23  437   2.305   3.936  10.166 -0.4605 -0.3892  0.2329
    4SAPS   H3R  438   2.283   3.937  10.057 -1.9682 -0.9313  0.5035
    4SAPS   H3S  439   2.378   3.856  10.193 -0.4692 -0.3815  0.2803
    4SAPS   C24  440   2.355   4.073  10.218 -1.0365 -0.1730  0.6690
    4SAPS   H4R  441   2.463   4.087  10.195 -1.5820  2.3230 -0.6583
    4SAPS   H4S  442   2.334   4.070  10.328 -0.9838  0.7110  0.7063
    4SAPS   C25  443   2.281   4.190  10.184  0.9367 -0.5087  0.4860
    4SAPS   H5R  444   2.245   4.251  10.268  3.0410 -0.2280  1.2363
    4SAPS   C26  445   2.250   4.235  10.054  0.2944  0.5037 -0.3371
    4SAPS   H6R  446   2.196   4.331  10.054 -2.4792 -0.9569 -0.0819
    4SAPS   C27  447   2.277   4.168   9.922 -0.0432  0.5142 -0.3352
    4SAPS   H7R  448   2.195   4.095   9.902  0.9874 -0.3727 -1.5111
    4SAPS   H7S  449   2.364   4.099   9.925  0.6622  1.2007 -2.7234
    4SAPS   C28  450   2.288   4.263   9.800  0.0097  0.3959  0.4905
    4SAPS   H8R  451   2.301   4.372   9.813  0.8958  0.4563 -0.7593
    4SAPS   C29  452   2.290   4.215   9.670 -0.0216 -0.3238  0.3782
    4SAPS   H9R  453   2.299   4.280   9.582 -1.1644  0.0481  0.5114
    4SAPS  C210  454   2.280   4.068   9.631 -0.5604  0.5234  0.4038
    4SAPS  H10R  455   2.338   4.013   9.708 -1.9356  2.0996  2.7013
    4SAPS  H10S  456   2.334   4.059   9.535 -1.3012  2.8430 -0.2777
    4SAPS  C211  457   2.136   4.016   9.607  0.2757 -0.4417  0.1741
    4SAPS  H11R  458   2.085   3.995   9.702  2.9199  0.8118  2.0096
    4SAPS  C212  459   2.073   4.002   9.490 -0.6410 -0.0599  0.5555
    4SAPS  H12R  460   1.976   3.952   9.485  0.3957 -2.2328  0.8724
    4SAPS  C213  461   2.136   4.026   9.351 -0.4037  0.2020 -0.2376
    4SAPS  H13R  462   2.221   4.097   9.355 -0.7511  0.6056  0.1165
    4SAPS  H13S  463   2.067   4.070   9.276  0.8359 -0.3621 -1.7600
    4SAPS  C214  464   2.202   3.907   9.297  0.2273  0.4394 -0.0641
    4SAPS  H14R  465   2.295   3.888   9.351  0.2445 -0.7065 -0.4645
    4SAPS  C215  466   2.176   3.821   9.197 -0.2840  0.2612  0.1362
    4SAPS  H15R  467   2.247   3.738   9.183  1.4821  1.9837 -1.9506
    4SAPS  C216  468   2.064   3.823   9.102 -0.3452 -0.1369  0.0860
    4SAPS  H16R  469   1.971   3.871   9.139  1.8890  3.2063  1.9077
    4SAPS  H16S  470   2.026   3.724   9.072 -0.7418 -0.4742  1.6346
    4SAPS  C217  471   2.102   3.918   8.983  0.9753 -0.1362 -0.7994
    4SAPS  H17R  472   2.175   3.856   8.926 -0.9403 -2.4477 -0.8806
    4SAPS  H17S  473   2.148   4.011   9.023 -0.8988  0.8752 -0.8740
    4SAPS  C218  474   1.994   3.946   8.881  0.1184 -0.3999  0.1401
    4SAPS  H18R  475   1.946   3.851   8.849  0.3792 -0.6115  0.3677
    4SAPS  H18S  476   2.043   3.987   8.790 -0.8461  0.4691  0.0036
    4SAPS  C219  477   1.882   4.040   8.931 -0.1801 -0.1754 -0.1307
    4SAPS  H19R  478   1.913   4.146   8.933 -0.0822 -0.2098  0.0915
    4SAPS  H19S  479   1.841   4.011   9.030 -0.4883 -0.0926 -0.2303
    4SAPS  C220  480   1.763   4.044   8.827 -1.1201  0.0286  0.2396
    4SAPS  H20R  481   1.688   3.968   8.857 -2.9061  1.7026  0.2626
    4SAPS  H20S  482   1.800   4.046   8.722  0.9191  0.1322  0.9101
    4SAPS  H20T  483   1.711   4.140   8.850  0.3698  0.5697  1.5584
    4SAPS   C33  484   1.896   3.792   9.807 -0.2627 -0.0041 -0.2809
    4SAPS   H3X  485   1.874   3.890   9.854  0.1570 -1.2330  2.6392
    4SAPS   H3Y  486   1.888   3.801   9.696  0.4425  1.1873 -0.2549
    4SAPS   C34  487   2.036   3.740   9.844 -0.0411 -0.0431  0.0070
    4SAPS   H4X  488   2.040   3.675   9.933  0.5588 -0.0296 -0.0040
    4SAPS   H4Y  489   2.104   3.827   9.858 -0.2016  0.1291 -0.2579
    4SAPS   C35  490   2.091   3.643   9.738  0.3955 -0.2162  0.5623
    4SAPS   H5X  491   2.101   3.696   9.641  0.0534  1.6552  1.4945
    4SAPS   H5Y  492   2.007   3.576   9.713  0.1278  0.0246  0.8124
    4SAPS   C36  493   2.220   3.572   9.775 -0.0730  0.1609  0.1760
    4SAPS   H6X  494   2.210   3.525   9.875  1.8336 -0.0921  0.2827
    4SAPS   H6Y  495   2.298   3.650   9.786  2.0810 -1.8513 -0.0355
    4SAPS   C37  496   2.265   3.472   9.665  0.3739  0.8294  0.2467
    4SAPS   H7X  497   2.180   3.402   9.650  0.9278 -0.1643  1.5059
    4SAPS   H7Y  498   2.350   3.410   9.700 -0.0969  1.4463  2.6752
    4SAPS   C38  499   2.293   3.529   9.528  0.4905 -0.6118 -0.5375
    4SAPS   H8X  500   2.376   3.602   9.514  0.2260 -0.6357 -2.5857
    4SAPS   H8Y  501   2.204   3.590   9.502  1.0607  0.3457 -0.2788
    4SAPS   C39  502   2.327   3.409   9.440 -0.0546  0.8203 -0.0726
    4SAPS   H9X  503   2.260   3.322   9.459 -0.0996  0.8757  0.0250
    4SAPS   H9Y  504   2.430   3.377   9.465 -0.1294  1.9625  1.8738
    4SAPS  C310  505   2.313   3.450   9.297  0.2262 -0.2035 -0.4021
    4SAPS  H10X  506   2.388   3.527   9.269  0.7234 -0.7696 -0.6441
    4SAPS  H10Y  507   2.211   3.492   9.284  0.5806  0.7304 -0.2531
    4SAPS  C311  508   2.332   3.335   9.199 -0.0851 -0.5660  0.4831
    4SAPS  H11X  509   2.258   3.253   9.215  0.8069 -1.9284 -1.9147
    4SAPS  H11Y  510   2.435   3.295   9.203  0.9768  1.5322 -2.6249
    4SAPS  C312  511   2.323   3.384   9.051 -0.2179 -0.1164  0.3055
    4SAPS  H12X  512   2.406   3.458   9.043 -2.2206  2.3057  0.7797
    4SAPS  H12Y  513   2.229   3.437   9.025 -0.6533 -0.2783  1.4802
    4SAPS  C313  514   2.346   3.276   8.946 -0.7779  0.8284  0.7952
    4SAPS  H13X  515   2.451   3.241   8.939 -0.5084  1.8087 -0.3036
    4SAPS  H13Y  516   2.320   3.331   8.854 -0.8835  1.7179  1.3412
    4SAPS  C314  517   2.255   3.154   8.958  0.0744  0.0067 -0.9022
    4SAPS  H14X  518   2.153   3.197   8.949  0.1436  0.5855  0.7642
    4SAPS  H14Y  519   2.254   3.103   9.057  0.7500  0.2830 -0.7484
    4SAPS  C315  520   2.266   3.038   8.858  0.3018 -0.3165 -0.3457
    4SAPS  H15X  521   2.373   3.012   8.844  0.4440 -0.0967  0.3023
    4SAPS  H15Y  522   2.241   3.071   8.755  0.3836 -0.1389 -0.3080
    4SAPS  C316  523   2.183   2.918   8.897  0.8828 -0.0481 -1.1538
    4SAPS  H16X  524   2.184   2.886   9.003 -1.7677  0.2471 -0.9705
    4SAPS  H16Y  525   2.214   2.837   8.828 -0.1348 -0.8189 -0.7404
    4SAPS  C317  526   2.033   2.940   8.869  0.1177  0.3273  0.3659
    4SAPS  H17X  527   2.027   2.938   8.758  1.9604 -2.8367  0.2086
    4SAPS  H17Y  528   2.000   3.039   8.908  1.7986  1.2137 -0.3238
    4SAPS  C318  529   1.953   2.820   8.919  0.7529 -0.3357  0.1728
    4SAPS  H18X  530   1.966   2.816   9.029  0.1035  0.0059  0.2661
    4SAPS  H18Y  531   1.965   2.723   8.866  0.8346  0.0965 -0.6150
    4SAPS  H18Z  532   1.847   2.841   8.892  0.4038 -2.4926 -0.3583
    5SAPS     N  533   1.381   3.903  11.035  0.3170 -0.0016 -0.0060
    5SAPS   HN1  534   1.437   3.933  11.118  0.7742 -2.6726  0.7533
    5SAPS   HN2  535   1.382   3.799  11.040 -1.9072 -0.1015 -0.7968
    5SAPS   HN3  536   1.442   3.932  10.956  1.0103  0.2874  0.6236
    5SAPS   C12  537   1.248   3.963  11.027  0.4294  0.4977 -0.3952
    5SAPS  H12A  538   1.208   3.922  10.935  1.1895 -2.3053  0.4298
    5SAPS   C13  539   1.157   3.923  11.149 -0.1476  0.8654 -0.2883
    5SAPS  O13A  540   1.203   3.845  11.237 -0.8356  0.2565 -0.3677
    5SAPS  O13B  541   1.039   3.977  11.153 -0.3044  0.0719  0.3012
    5SAPS   C11  542   1.262   4.121  11.016  0.4130 -0.0660 -0.1931
    5SAPS  H11A  543   1.301   4.154  11.115 -0.5560  1.4230 -0.2726
    5SAPS  H11B  544   1.167   4.174  10.995  1.4691  1.4068 -1.4990
    5SAPS     P  545   1.361   4.282  10.834  0.2031 -0.3946 -0.0328
    5SAPS   O13  546   1.313   4.389  10.925 -0.4716  0.0879  0.5185
    5SAPS   O14  547   1.491   4.291  10.765  0.0048 -0.4650  0.2084
    5SAPS   O12  548   1.368   4.145  10.922  0.4461 -0.2999  0.1491
    5SAPS   O11  549   1.240   4.244  10.732 -0.2492  0.0681 -0.3627
    5SAPS    C1  550   1.269   4.158  10.623  0.1654 -0.6381  0.2638
    5SAPS    HA  551   1.367   4.107  10.630  0.9529  1.0282  4.9318
    5SAPS    HB  552   1.190   4.082  10.609  0.8289 -1.2216 -0.4073
    5SAPS    C2  553   1.282   4.230  10.492 -0.7962 -0.6324  0.3041
    5SAPS    HS  554   1.347   4.319  10.510 -0.5661 -0.5276 -0.9421
    5SAPS   O21  555   1.149   4.258  10.445  0.4081  0.1363  0.5477
    5SAPS   C21  556   1.147   4.359  10.364  0.1068  0.4503  0.7468
    5SAPS   O22  557   1.242   4.434  10.342 -0.1071 -0.1178  0.2873
    5SAPS   C22  558   1.008   4.382  10.309  0.2821 -0.5811 -0.1110
    5SAPS   H2R  559   0.931   4.320  10.360  1.0333  0.0459  1.8590
    5SAPS   H2S  560   0.976   4.486  10.333 -1.3385 -1.3852  1.4693
    5SAPS    C3  561   1.352   4.126  10.388 -0.2572 -0.6955  0.0885
    5SAPS    HX  562   1.271   4.051  10.374 -0.8353 -0.0283 -0.1973
    5SAPS    HY  563   1.438   4.074  10.435 -0.9035 -1.3226  0.5975
    5SAPS   O31  564   1.386   4.179  10.263  0.7477 -0.4007  0.1441
    5SAPS   C31  565   1.493   4.255  10.261  0.1322  0.3076 -0.7988
    5SAPS   O32  566   1.570   4.274  10.350 -0.3416  0.8996  0.4023
    5SAPS   C32  567   1.515   4.304  10.117  0.1804  0.0123  0.9577
    5SAPS   H2X  568   1.526   4.219  10.047  0.8192  1.0985 -0.2999
    5SAPS   H2Y  569   1.610   4.361  10.117  1.2668 -1.6503 -1.1161
    5SAPS   C23  570   1.010   4.353  10.155 -0.0014  0.7544  0.3472
    5SAPS   H3R  571   1.031   4.245  10.140  0.9820  0.7767  1.4349
    5SAPS   H3S  572   1.090   4.409  10.102 -0.8458  0.5597 -1.1977
    5SAPS   C24  573   0.877   4.385  10.086 -0.3178  0.2879 -0.3526
    5SAPS   H4R  574   0.790   4.355  10.150  0.3765 -0.3690  0.3070
    5SAPS   H4S  575   0.876   4.331   9.989 -0.1802  2.8051 -1.8268
    5SAPS   C25  576   0.859   4.537  10.058  0.3098  0.4736  0.2485
    5SAPS   H5R  577   0.831   4.593  10.148  0.5652 -0.5823  0.9939
    5SAPS   C26  578   0.881   4.593   9.935 -0.0395  0.6705 -0.6422
    5SAPS   H6R  579   0.869   4.701   9.919  0.8030  0.7279 -0.9370
    5SAPS   C27  580   0.901   4.522   9.800  0.4840 -0.2009  0.0529
    5SAPS   H7R  581   0.966   4.432   9.795  0.8148  0.0425 -0.0644
    5SAPS   H7S  582   0.959   4.590   9.734  0.1851  0.1439  0.1446
    5SAPS   C28  583   0.777   4.487   9.724  0.5106 -0.6769 -0.6010
    5SAPS   H8R  584   0.683   4.512   9.775 -0.0437  1.7458 -2.6466
    5SAPS   C29  585   0.762   4.427   9.602 -0.3155  0.4157  0.0792
    5SAPS   H9R  586   0.659   4.408   9.569 -0.4776  0.8508  0.3325
    5SAPS  C210  587   0.875   4.381   9.519  0.6123  0.0270  0.1591
    5SAPS  H10R  588   0.962   4.448   9.539  0.5466 -0.3000  1.6567
    5SAPS  H10S  589   0.863   4.394   9.409 -1.0731 -0.0782  0.3038
    5SAPS  C211  590   0.900   4.236   9.555 -0.2180 -0.3024 -0.0496
    5SAPS  H11R  591   0.942   4.221   9.656 -0.6916 -0.9738  0.0540
    5SAPS  C212  592   0.898   4.134   9.460 -0.1421  0.3923 -0.0284
    5SAPS  H12R  593   0.933   4.033   9.487  2.8570  0.9709 -1.3746
    5SAPS  C213  594   0.857   4.155   9.317  0.7205 -0.3424  0.0250
    5SAPS  H13R  595   0.794   4.246   9.305  0.0368 -0.6204  1.3010
    5SAPS  H13S  596   0.799   4.063   9.297 -0.9158  0.2869  1.5861
    5SAPS  C214  597   0.979   4.165   9.218 -0.6552 -0.4820 -1.0193
    5SAPS  H14R  598   1.079   4.162   9.264 -0.7868 -0.8544 -0.7499
    5SAPS  C215  599   0.983   4.140   9.091 -0.5024  0.2020  0.4828
    5SAPS  H15R  600   1.082   4.128   9.045 -0.5801 -1.7145  0.7220
    5SAPS  C216  601   0.860   4.099   9.011  0.3981  0.1718 -0.1569
    5SAPS  H16R  602   0.768   4.100   9.072 -0.8989 -0.4066 -2.0222
    5SAPS  H16S  603   0.875   3.990   8.992 -1.5333 -0.9443  3.6682
    5SAPS  C217  604   0.819   4.168   8.880 -0.2797  0.1219 -0.2107
    5SAPS  H17R  605   0.789   4.270   8.912  1.5740  1.6599 -2.9892
    5SAPS  H17S  606   0.741   4.107   8.830  1.5019 -0.3392 -2.6301
    5SAPS  C218  607   0.919   4.189   8.764 -0.5101  0.0988  0.4494
    5SAPS  H18R  608   0.861   4.237   8.682 -1.4069 -0.7590  0.5633
    5SAPS  H18S  609   0.997   4.257   8.804  1.4757 -1.9269  0.2043
    5SAPS  C219  610   0.975   4.062   8.707  0.1242 -0.6806 -0.5849
    5SAPS  H19R  611   1.017   4.006   8.794  2.4072 -0.2511 -1.3385
    5SAPS  H19S  612   1.069   4.077   8.648 -0.6081 -1.9138 -2.1428
    5SAPS  C220  613   0.877   3.974   8.644  0.1426 -0.3000  0.2716
    5SAPS  H20R  614   0.820   4.042   8.578  0.7040 -1.1991 -1.1992
    5SAPS  H20S  615   0.808   3.912   8.705 -2.0354  0.0150 -1.7279
    5SAPS  H20T  616   0.921   3.892   8.582 -0.9187  0.1509 -1.1341
    5SAPS   C33  617   1.402   4.397  10.066 -0.2933  0.6115  1.0249
    5SAPS   H3X  618   1.387   4.488  10.128  1.3304  1.9473 -0.4203
    5SAPS   H3Y  619   1.311   4.334  10.071 -0.0716 -0.2030 -2.6343
    5SAPS   C34  620   1.419   4.454   9.925 -0.3436  0.1616 -0.5674
    5SAPS   H4X  621   1.473   4.378   9.865  2.1211  0.0746  1.5609
    5SAPS   H4Y  622   1.477   4.549   9.923  0.9248 -0.5922 -2.4423
    5SAPS   C35  623   1.286   4.501   9.863 -0.1676 -0.1611  0.2493
    5SAPS   H5X  624   1.259   4.588   9.926  0.0621 -0.5154  0.8433
    5SAPS   H5Y  625   1.203   4.427   9.868 -0.5649  0.1533 -1.2326
    5SAPS   C36  626   1.310   4.547   9.715 -0.1656 -0.3593 -0.1841
    5SAPS   H6X  627   1.417   4.572   9.698 -0.1636 -0.2431 -0.0109
    5SAPS   H6Y  628   1.248   4.636   9.692 -0.1464 -0.9682 -2.9239
    5SAPS   C37  629   1.275   4.428   9.626 -0.4350  0.0791  0.3929
    5SAPS   H7X  630   1.169   4.402   9.647  0.0671 -2.1743  0.3262
    5SAPS   H7Y  631   1.345   4.346   9.653  0.9481  1.5375  1.4486
    5SAPS   C38  632   1.298   4.460   9.476 -0.1330  0.2733  0.0376
    5SAPS   H8X  633   1.407   4.459   9.458  0.1424 -0.0852  1.5895
    5SAPS   H8Y  634   1.261   4.561   9.448 -1.5937 -0.4590 -0.8113
    5SAPS   C39  635   1.231   4.361   9.382 -0.0949 -0.2111 -0.3288
    5SAPS   H9X  636   1.120   4.357   9.390 -0.2150 -2.9507 -2.0991
    5SAPS   H9Y  637   1.267   4.261   9.413 -3.2252 -1.3224  0.0910
    5SAPS  C310  638   1.261   4.389   9.230  0.3482  0.4807 -0.2749
    5SAPS  H10X  639   1.250   4.302   9.161 -0.2375  0.8208 -0.6154
    5SAPS  H10Y  640   1.369   4.414   9.231  0.4861  0.0285  1.9082
    5SAPS  C311  641   1.179   4.507   9.180  0.3282 -0.4464  0.3781
    5SAPS  H11X  642   1.204   4.592   9.247 -0.0311 -0.1189  0.0979
    5SAPS  H11Y  643   1.073   4.483   9.203  0.6111  1.6675  5.1746
    5SAPS  C312  644   1.202   4.545   9.030  0.7279  0.1076  0.0354
    5SAPS  H12X  645   1.167   4.467   8.959  1.0882  0.3836 -0.4475
    5SAPS  H12Y  646   1.313   4.556   9.024  0.7616  1.4124  1.8973
    5SAPS  C313  647   1.134   4.675   8.992 -0.0025  0.5518 -0.8685
    5SAPS  H13X  648   1.165   4.758   9.059 -0.8695  3.4407 -3.8008
    5SAPS  H13Y  649   1.023   4.676   9.003  0.2044  2.2658  2.2202
    5SAPS  C314  650   1.184   4.732   8.856 -0.5962 -1.0728  0.3673
    5SAPS  H14X  651   1.162   4.672   8.766  1.0362  1.3333 -1.7604
    5SAPS  H14Y  652   1.294   4.743   8.870 -0.7250  1.4970 -0.1482
    5SAPS  C315  653   1.134   4.875   8.831  0.4513 -0.4390  0.2315
    5SAPS  H15X  654   1.136   4.928   8.929 -0.4187 -0.5111  0.2983
    5SAPS  H15Y  655   1.029   4.864   8.798  0.5331 -0.3105 -0.0700
    5SAPS  C316  656   1.213   4.955   8.725  0.5112  0.1143  0.0758
    5SAPS  H16X  657   1.189   4.916   8.624  2.8144 -0.7669 -0.1954
    5SAPS  H16Y  658   1.323   4.957   8.746  0.7422  2.3552 -0.9739
    5SAPS  C317  659   1.170   5.104   8.723  0.1157 -0.8023 -0.1940
    5SAPS  H17X  660   1.060   5.119   8.722  0.1870  0.2576  1.8410
    5SAPS  H17Y  661   1.219   5.158   8.639  0.6834 -0.7377  0.1729
    5SAPS  C318  662   1.210   5.181   8.851 -0.0871 -0.8431 -0.0993
    5SAPS  H18X  663   1.319   5.179   8.872 -0.1319 -0.7430  0.1464
    5SAPS  H18Y  664   1.154   5.142   8.939 -0.4813  0.1307  0.0964
    5SAPS  H18Z  665   1.180   5.287   8.833  0.6502 -0.4951  0.6998
    6SAPS     N  666   1.199   1.892  10.808  0.0541 -0.3061 -1.2519
    6SAPS   HN1  667   1.164   1.864  10.715  1.7750 -0.8829 -1.7580
    6SAPS   HN2  668   1.298   1.924  10.805  0.4750 -1.4272 -0.2783
    6SAPS   HN3  669   1.197   1.811  10.874  2.9867  1.1028  0.8079
    6SAPS   C12  670   1.115   2.002  10.867  0.5347 -0.7362 -0.6276
    6SAPS  H12A  671   1.015   1.987  10.830  1.3704 -0.9475 -2.9242
    6SAPS   C13  672   1.109   1.989  11.019  0.9567 -0.5262 -0.3112
    6SAPS  O13A  673   1.198   1.934  11.084  0.0598  0.0383 -0.5664
    6SAPS  O13B  674   1.000   2.030  11.077 -0.5350 -0.2170  0.3050
    6SAPS   C11  675   1.180   2.142  10.839  0.2351 -0.5451 -0.7102
    6SAPS  H11A  676   1.275   2.163  10.893 -1.4139  0.3150  2.0718
    6SAPS  H11B  677   1.113   2.223  10.876  0.8036 -0.6430  0.5887
    6SAPS     P  678   1.121   2.234  10.610  0.1605 -0.1511  0.5932
    6SAPS   O13  679   0.980   2.183  10.635  0.0099 -0.2261  0.1362
    6SAPS   O14  680   1.137   2.381  10.641  0.2600  0.0257 -0.1110
    6SAPS   O12  681   1.209   2.150  10.702 -0.4536  0.0757 -0.3560
    6SAPS   O11  682   1.174   2.202  10.467 -0.0641 -0.5710  0.3047
    6SAPS    C1  683   1.192   2.067  10.422  0.0646 -0.1691  0.5074
    6SAPS    HA  684   1.300   2.041  10.423  0.4209  1.2133  1.3944
    6SAPS    HB  685   1.141   1.997  10.492 -3.0490 -0.3128 -1.6765
    6SAPS    C2  686   1.106   2.039  10.300  0.3360  0.2386 -0.2263
    6SAPS    HS  687   1.088   1.931  10.286  1.8493 -0.1307  0.4632
    6SAPS   O21  688   1.172   2.100  10.188  0.7757 -0.0907  0.5167
    6SAPS   C21  689   1.243   2.013  10.114  0.5966 -0.2632  0.1956
    6SAPS   O22  690   1.254   1.896  10.142 -0.4528 -0.5701  0.2886
    6SAPS   C22  691   1.284   2.084   9.986  0.4521 -0.0201  0.8303
    6SAPS   H2R  692   1.395   2.092   9.986  0.3606  1.6118  0.4127
    6SAPS   H2S  693   1.256   2.019   9.901 -2.0916  2.5880 -0.4819
    6SAPS    C3  694   0.962   2.094  10.311 -0.0089  0.6286 -0.2824
    6SAPS    HX  695   0.974   2.200  10.343 -1.1186 -0.0494  2.6373
    6SAPS    HY  696   0.914   2.039  10.394  0.5808 -0.4403 -0.6317
    6SAPS   O31  697   0.883   2.069  10.190 -0.0093 -0.1500 -0.0528
    6SAPS   C31  698   0.855   2.181  10.125  0.2143 -0.7355  0.4533
    6SAPS   O32  699   0.877   2.295  10.164  0.5932  0.1593 -0.3320
    6SAPS   C32  700   0.817   2.152   9.978  0.2375  0.2828 -0.3587
    6SAPS   H2X  701   0.730   2.082   9.978  0.2284  0.2632 -2.0144
    6SAPS   H2Y  702   0.907   2.107   9.931 -0.0562 -0.6102 -0.0988
    6SAPS   C23  703   1.209   2.210   9.946  0.0442 -0.1872  0.5501
    6SAPS   H3R  704   1.232   2.295  10.014  1.9140 -0.2509  0.0631
    6SAPS   H3S  705   1.100   2.191   9.952 -0.1123  0.3476 -0.3133
    6SAPS   C24  706   1.222   2.256   9.796  0.0915  0.0500  0.6247
    6SAPS   H4R  707   1.155   2.340   9.770  0.8982  0.7232  0.6567
    6SAPS   H4S  708   1.202   2.169   9.731  1.3703 -0.4672  0.8819
    6SAPS   C25  709   1.362   2.301   9.764  0.6646  0.5201 -0.3895
    6SAPS   H5R  710   1.420   2.352   9.842  2.1901  0.5163 -1.4542
    6SAPS   C26  711   1.421   2.292   9.643 -0.1839 -0.1154 -0.0439
    6SAPS   H6R  712   1.524   2.331   9.636  0.3915 -0.6484  3.4767
    6SAPS   C27  713   1.363   2.246   9.518 -0.2050 -0.2006 -0.4244
    6SAPS   H7R  714   1.329   2.141   9.530  0.4247 -0.6352 -2.1448
    6SAPS   H7S  715   1.449   2.230   9.449  1.9221 -1.1704  2.3029
    6SAPS   C28  716   1.245   2.317   9.462  0.0191 -0.4786 -0.5493
    6SAPS   H8R  717   1.186   2.369   9.539  0.9477 -2.1682  1.4053
    6SAPS   C29  718   1.211   2.316   9.331  0.1016 -0.0861  0.2786
    6SAPS   H9R  719   1.120   2.367   9.297 -0.5884 -2.3230 -1.4816
    6SAPS  C210  720   1.286   2.247   9.214 -0.5092  1.0370  0.1972
    6SAPS  H10R  721   1.384   2.202   9.236 -0.2469  1.7672  0.5488
    6SAPS  H10S  722   1.292   2.323   9.132 -1.9406 -0.4372 -1.3692
    6SAPS  C211  723   1.191   2.138   9.180 -0.0686 -0.7395 -0.5046
    6SAPS  H11R  724   1.091   2.143   9.226  0.5710 -2.2347  1.1577
    6SAPS  C212  725   1.230   2.027   9.110 -0.5496  0.2828  0.1357
    6SAPS  H12R  726   1.158   1.953   9.074  0.1657 -0.4539  0.1839
    6SAPS  C213  727   1.366   1.996   9.057  1.3398 -0.4545  0.3084
    6SAPS  H13R  728   1.430   1.932   9.122  0.9793  1.0873  2.2979
    6SAPS  H13S  729   1.425   2.090   9.052 -0.7028  0.8399 -0.6995
    6SAPS  C214  730   1.356   1.935   8.919  0.2901 -0.3567  0.6958
    6SAPS  H14R  731   1.373   1.826   8.912  1.3486 -0.0709 -2.3108
    6SAPS  C215  732   1.349   2.007   8.808  0.1413 -0.4852 -0.3050
    6SAPS  H15R  733   1.352   1.956   8.710  2.0177 -0.9726 -0.0279
    6SAPS  C216  734   1.334   2.160   8.804  0.0894 -0.2498  0.5445
    6SAPS  H16R  735   1.425   2.206   8.848 -0.0146 -0.1743  0.6807
    6SAPS  H16S  736   1.242   2.186   8.860 -0.8010 -0.2843 -0.8546
    6SAPS  C217  737   1.319   2.208   8.659 -0.6205 -0.5988  0.4530
    6SAPS  H17R  738   1.244   2.138   8.618 -2.0152  1.3413 -0.4911
    6SAPS  H17S  739   1.420   2.185   8.618  0.1771  1.2687  1.2105
    6SAPS  C218  740   1.280   2.361   8.638  0.5746  0.3130 -0.0714
    6SAPS  H18R  741   1.364   2.413   8.687  1.7072 -0.5178 -1.0661
    6SAPS  H18S  742   1.186   2.389   8.690  1.3912  0.2400  1.5179
    6SAPS  C219  743   1.281   2.395   8.488  0.6985  0.1490  0.2618
    6SAPS  H19R  744   1.252   2.502   8.488 -0.8515 -0.2555 -0.4161
    6SAPS  H19S  745   1.203   2.335   8.438  1.9014 -0.5576 -0.8290
    6SAPS  C220  746   1.419   2.383   8.416  0.3232 -0.3551  0.5917
    6SAPS  H20R  747   1.480   2.469   8.452 -0.7456  0.3555  0.7548
    6SAPS  H20S  748   1.399   2.385   8.307 -1.1544  1.4062  0.8496
    6SAPS  H20T  749   1.472   2.289   8.444  0.1351 -0.6140  0.0922
    6SAPS   C33  750   0.775   2.277   9.908 -0.1730  0.3427  0.3074
    6SAPS   H3X  751   0.859   2.349   9.910  0.9255 -0.8836 -0.0074
    6SAPS   H3Y  752   0.683   2.324   9.949 -0.1045  1.5114 -0.8259
    6SAPS   C34  753   0.726   2.249   9.762 -1.0886 -0.3106  0.9449
    6SAPS   H4X  754   0.721   2.350   9.716 -0.9794 -0.8401 -0.2831
    6SAPS   H4Y  755   0.626   2.200   9.769 -0.7078 -0.9038  2.8410
    6SAPS   C35  756   0.827   2.166   9.680  0.2263 -0.0217 -0.2431
    6SAPS   H5X  757   0.820   2.064   9.723 -0.9631  0.0542 -0.2203
    6SAPS   H5Y  758   0.931   2.203   9.692  0.8982 -1.8507 -0.0887
    6SAPS   C36  759   0.793   2.165   9.530 -0.0991  1.0601 -0.7164
    6SAPS   H6X  760   0.808   2.267   9.489  0.7797  1.0848 -0.3568
    6SAPS   H6Y  761   0.692   2.120   9.524 -0.1363  1.1514 -0.7821
    6SAPS   C37  762   0.882   2.067   9.453  0.0297 -0.4060 -0.3777
    6SAPS   H7X  763   0.871   1.958   9.470 -0.3172 -0.8020 -2.7874
    6SAPS   H7Y  764   0.982   2.098   9.489 -1.4792  1.0618  2.9270
    6SAPS   C38  765   0.858   2.063   9.308 -0.4323  0.3878 -0.2678
    6SAPS   H8X  766   0.940   2.009   9.256 -0.1958  1.0124 -0.5479
    6SAPS   H8Y  767   0.863   2.162   9.259 -1.3511 -0.1877 -1.5914
    6SAPS   C39  768   0.724   2.008   9.253 -0.5402 -0.3828  0.5656
    6SAPS   H9X  769   0.647   2.076   9.296  0.3821  0.1192  1.4492
    6SAPS   H9Y  770   0.709   1.901   9.278  4.5492 -1.6255 -0.5642
    6SAPS  C310  771   0.711   2.013   9.096 -0.4464 -0.1134  0.5958
    6SAPS  H10X  772   0.711   2.122   9.073 -1.1852  0.2223  2.0992
    6SAPS  H10Y  773   0.609   1.980   9.067  0.5145 -1.3685 -1.6781
    6SAPS  C311  774   0.802   1.922   9.007 -0.3226  0.2526 -0.1137
    6SAPS  H11X  775   0.781   1.814   9.020  0.7823 -0.0049 -0.3387
    6SAPS  H11Y  776   0.904   1.938   9.048 -0.6374  0.2734  0.6932
    6SAPS  C312  777   0.795   1.943   8.854 -0.1628 -0.3925 -0.3088
    6SAPS  H12X  778   0.862   1.872   8.802  2.2475  1.4902  0.0288
    6SAPS  H12Y  779   0.831   2.046   8.830  0.2783  0.0461  2.0431
    6SAPS  C313  780   0.653   1.933   8.789 -0.3045 -0.0231 -0.8685
    6SAPS  H13X  781   0.574   1.991   8.841 -0.7732 -0.5121 -1.0227
    6SAPS  H13Y  782   0.614   1.829   8.799 -0.4729  0.1920  1.0951
    6SAPS  C314  783   0.658   1.963   8.639  0.5352  0.0717  0.4911
    6SAPS  H14X  784   0.737   1.895   8.603  0.6573 -0.1706  1.2012
    6SAPS  H14Y  785   0.699   2.066   8.630 -1.0476  0.7781  0.9108
    6SAPS  C315  786   0.520   1.959   8.561  0.4555  0.3154 -0.2484
    6SAPS  H15X  787   0.457   1.876   8.600  0.4586  1.5589  2.6781
    6SAPS  H15Y  788   0.545   1.942   8.454 -0.5152 -1.6061 -0.1967
    6SAPS  C316  789   0.444   2.093   8.580 -0.1171 -0.0808  0.4876
    6SAPS  H16X  790   0.501   2.175   8.532 -1.0369 -0.5724 -1.5741
    6SAPS  H16Y  791   0.452   2.116   8.688  1.5408  1.1925  0.1365
    6SAPS  C317  792   0.297   2.082   8.537  0.0926  0.0231 -0.0110
    6SAPS  H17X  793   0.244   2.172   8.575 -1.3257 -0.2763 -1.2024
    6SAPS  H17Y  794   0.251   1.991   8.580  0.2595 -1.0066 -1.9219
    6SAPS  C318  795   0.269   2.079   8.381  0.0936  0.4623 -0.1285
    6SAPS  H18X  796   0.305   1.981   8.342 -0.1215 -0.1576  1.1516
    6SAPS  H18Y  797   0.310   2.166   8.327 -0.0717 -1.3376 -3.3773
    6SAPS  H18Z  798   0.160   2.084   8.361  0.3381 -1.0393 -2.1456
    7SAPS     N  799   2.435   2.881  10.922  0.2593 -0.7447 -0.1595
    7SAPS   HN1  800   2.525   2.833  10.906 -0.2860 -1.6610 -0.5901
    7SAPS   HN2  801   2.411   2.941  10.841  0.6308  3.1148  2.3638
    7SAPS   HN3  802   2.440   2.936  11.010  1.7294 -0.1282 -0.6168
    7SAPS   C12  803   2.342   2.766  10.940 -0.2574 -0.5351  0.0485
    7SAPS  H12A  804   2.339   2.717  10.843  1.5408  0.8271 -0.7577
    7SAPS   C13  805   2.378   2.659  11.043  0.2287  0.8298 -0.1814
    7SAPS  O13A  806   2.491   2.667  11.102 -0.0655  0.2586  0.1371
    7SAPS  O13B  807   2.288   2.575  11.075  0.5243 -0.1604 -0.0484
    7SAPS   C11  808   2.201   2.828  10.965 -0.6071  0.4804  0.4159
    7SAPS  H11A  809   2.196   2.857  11.072 -2.2696  1.2254  0.1664
    7SAPS  H11B  810   2.125   2.749  10.982  0.2389 -0.1312  1.4560
    7SAPS     P  811   2.003   2.929  10.811 -0.1381 -0.2804 -0.4630
    7SAPS   O13  812   1.911   2.911  10.923  1.2014 -0.3179 -0.6852
    7SAPS   O14  813   1.991   3.048  10.731  0.2501 -0.7847 -0.2084
    7SAPS   O12  814   2.157   2.928  10.862 -0.0604  0.6598 -0.2425
    7SAPS   O11  815   2.000   2.796  10.729 -0.3241  0.1319 -0.3393
    7SAPS    C1  816   2.088   2.764  10.622  0.9718 -0.7110 -0.1501
    7SAPS    HA  817   2.155   2.849  10.597 -1.3191  0.8040 -1.4581
    7SAPS    HB  818   2.159   2.687  10.659  1.0642 -0.6293 -0.1542
    7SAPS    C2  819   2.006   2.714  10.505 -0.1697 -0.0291 -0.1913
    7SAPS    HS  820   1.952   2.625  10.544  1.4505 -1.1239 -0.3685
    7SAPS   O21  821   2.095   2.679  10.400  0.6649  0.0312  0.2183
    7SAPS   C21  822   2.140   2.558  10.420  0.1695 -0.2635  0.4190
    7SAPS   O22  823   2.104   2.477  10.501  0.2352 -0.6190 -0.3290
    7SAPS   C22  824   2.251   2.527  10.310  0.2391 -0.2096 -0.0198
    7SAPS   H2R  825   2.211   2.539  10.207 -0.6608 -2.6660 -0.0298
    7SAPS   H2S  826   2.331   2.599  10.337  0.2717 -0.1743 -0.2146
    7SAPS    C3  827   1.915   2.816  10.443 -0.2050 -0.9403 -0.8924
    7SAPS    HX  828   1.975   2.905  10.413 -0.3340 -1.0898 -1.6081
    7SAPS    HY  829   1.833   2.835  10.515 -1.1151 -1.3031 -1.8147
    7SAPS   O31  830   1.855   2.767  10.320  0.0312 -0.3072 -0.4096
    7SAPS   C31  831   1.792   2.863  10.255  0.8248  0.5804  0.7260
    7SAPS   O32  832   1.774   2.978  10.287  0.5216 -0.1671 -0.0922
    7SAPS   C32  833   1.746   2.810  10.113 -0.4466  0.4694 -0.7233
    7SAPS   H2X  834   1.722   2.702  10.118 -0.2202  0.2823 -2.7493
    7SAPS   H2Y  835   1.834   2.809  10.045 -0.5562  0.7201 -0.8725
    7SAPS   C23  836   2.321   2.383  10.310  0.2445 -0.7827  0.3672
    7SAPS   H3R  837   2.248   2.300  10.296 -0.5732  0.0914 -0.7407
    7SAPS   H3S  838   2.387   2.370  10.399  3.2926 -1.5236 -1.8154
    7SAPS   C24  839   2.435   2.384  10.203  0.4480 -0.3220  0.1477
    7SAPS   H4R  840   2.493   2.294  10.234 -0.1866 -1.0823 -0.8181
    7SAPS   H4S  841   2.496   2.476  10.201  0.6675 -0.4656 -2.0008
    7SAPS   C25  842   2.367   2.353  10.073  0.4614  0.1982  0.3783
    7SAPS   H5R  843   2.301   2.266  10.058 -0.8196  1.5480 -2.6780
    7SAPS   C26  844   2.358   2.436   9.973 -0.7516  0.3290  0.4103
    7SAPS   H6R  845   2.308   2.407   9.880  0.2758  3.1852 -1.1376
    7SAPS   C27  846   2.420   2.566   9.973 -0.1716  0.0482  0.3587
    7SAPS   H7R  847   2.529   2.550   9.983 -0.0952  0.3619  0.0516
    7SAPS   H7S  848   2.386   2.630  10.057 -0.7957 -1.0661  0.9822
    7SAPS   C28  849   2.408   2.649   9.847  0.2984  0.0373 -0.1841
    7SAPS   H8R  850   2.318   2.713   9.848 -1.6251 -2.4555  1.8263
    7SAPS   C29  851   2.478   2.635   9.737  0.1398 -0.3358  0.4865
    7SAPS   H9R  852   2.448   2.702   9.655 -0.5530 -1.2432 -0.0063
    7SAPS  C210  853   2.580   2.534   9.704 -0.5128 -0.4766 -0.5189
    7SAPS  H10R  854   2.534   2.434   9.717  2.0650 -1.4828  1.8984
    7SAPS  H10S  855   2.663   2.549   9.776 -1.1074  1.4336 -0.1754
    7SAPS  C211  856   2.649   2.557   9.568  0.1021  0.7016 -0.3243
    7SAPS  H11R  857   2.742   2.615   9.572  0.1265  0.5955  2.0159
    7SAPS  C212  858   2.615   2.501   9.454 -0.2221 -0.4477 -0.5383
    7SAPS  H12R  859   2.678   2.527   9.367 -1.8585  0.5913 -1.4562
    7SAPS  C213  860   2.504   2.402   9.428  0.1014 -0.1664 -0.0566
    7SAPS  H13R  861   2.412   2.450   9.468  0.5177  1.0846 -0.5623
    7SAPS  H13S  862   2.533   2.318   9.495  2.7999  1.7324  1.3165
    7SAPS  C214  863   2.461   2.358   9.290  0.0711  0.1643 -0.0535
    7SAPS  H14R  864   2.352   2.369   9.276  0.3611  0.1827 -2.6151
    7SAPS  C215  865   2.535   2.324   9.182 -0.0854 -0.0090 -0.2758
    7SAPS  H15R  866   2.478   2.286   9.096  0.5481 -1.1299 -0.2342
    7SAPS  C216  867   2.687   2.322   9.164  0.0238 -0.1226  0.1710
    7SAPS  H16R  868   2.739   2.403   9.220  0.1753 -1.3671  1.9129
    7SAPS  H16S  869   2.709   2.318   9.055 -0.0415  0.0816  0.1499
    7SAPS  C217  870   2.749   2.198   9.222  0.1195  0.3575 -0.0851
    7SAPS  H17R  871   2.729   2.105   9.164  0.8816  0.5497 -0.6864
    7SAPS  H17S  872   2.719   2.180   9.327  1.2096  0.9958  0.3456
    7SAPS  C218  873   2.903   2.211   9.221  0.4855 -0.4145  0.6178
    7SAPS  H18R  874   2.946   2.125   9.277 -0.4907 -1.0495  0.4082
    7SAPS  H18S  875   2.930   2.305   9.275 -1.2390 -0.0362  0.8701
    7SAPS  C219  876   2.969   2.207   9.084  0.3088 -0.0563  0.6261
    7SAPS  H19R  877   2.924   2.274   9.009  0.0342 -1.4136 -0.4588
    7SAPS  H19S  878   2.945   2.104   9.049  0.8759 -0.7380  2.1248
    7SAPS  C220  879   3.116   2.232   9.091  0.0282  0.1541  0.1067
    7SAPS  H20R  880   3.141   2.321   9.152 -1.6570  0.6966  0.0570
    7SAPS  H20S  881   3.149   2.254   8.987 -0.9643  0.3409 -0.1764
    7SAPS  H20T  882   3.160   2.144   9.143 -1.3669  0.3473  1.6892
    7SAPS   C33  883   1.639   2.900  10.045  0.2130 -0.3267 -0.1665
    7SAPS   H3X  884   1.682   3.002  10.035  0.1858 -0.4311 -1.4978
    7SAPS   H3Y  885   1.556   2.909  10.119  2.5620  0.8430  2.5119
    7SAPS   C34  886   1.586   2.854   9.907  0.1511 -0.6638 -0.4459
    7SAPS   H4X  887   1.483   2.891   9.887  0.9649  3.2426  1.6300
    7SAPS   H4Y  888   1.575   2.743   9.899  0.7446 -0.6182 -2.3626
    7SAPS   C35  889   1.675   2.899   9.788 -0.6010 -0.4027 -0.0148
    7SAPS   H5X  890   1.782   2.874   9.802 -0.4805  0.8925  1.6077
    7SAPS   H5Y  891   1.673   3.010   9.781 -1.4551 -0.3786  0.4563
    7SAPS   C36  892   1.628   2.840   9.658 -0.1630 -0.5677  0.0628
    7SAPS   H6X  893   1.639   2.730   9.655  1.7328 -0.4464  0.7858
    7SAPS   H6Y  894   1.686   2.882   9.573 -2.6573  1.2161 -0.8896
    7SAPS   C37  895   1.480   2.869   9.624 -0.1834  0.5585 -0.0582
    7SAPS   H7X  896   1.458   2.977   9.632  0.5233  0.8494 -1.5957
    7SAPS   H7Y  897   1.413   2.812   9.693  0.0433  0.9172  0.4632
    7SAPS   C38  898   1.453   2.834   9.479 -0.3460  0.1658  0.4031
    7SAPS   H8X  899   1.511   2.897   9.407 -2.9498  1.7788 -0.4310
    7SAPS   H8Y  900   1.348   2.860   9.455  0.2706  2.8854  0.3513
    7SAPS   C39  901   1.473   2.685   9.448 -0.2320  0.2181 -0.2476
    7SAPS   H9X  902   1.432   2.617   9.526 -0.1020 -0.5938 -0.8807
    7SAPS   H9Y  903   1.581   2.668   9.431 -0.6451 -0.1565 -2.8455
    7SAPS  C310  904   1.409   2.636   9.322 -0.4912 -0.2753  0.0995
    7SAPS  H10X  905   1.301   2.663   9.319 -0.1997  0.9109 -0.1338
    7SAPS  H10Y  906   1.429   2.527   9.331  1.1260  0.1735  3.4383
    7SAPS  C311  907   1.473   2.690   9.191 -0.0593 -0.4966  0.3087
    7SAPS  H11X  908   1.583   2.704   9.197 -0.0204 -0.8982  0.5679
    7SAPS  H11Y  909   1.432   2.787   9.156  0.2661 -0.3966  0.2074
    7SAPS  C312  910   1.441   2.592   9.082 -0.1205 -0.0801 -0.3507
    7SAPS  H12X  911   1.333   2.569   9.074 -0.8683  2.8202  0.1514
    7SAPS  H12Y  912   1.484   2.492   9.106 -1.5328 -0.5727  0.1963
    7SAPS  C313  913   1.507   2.624   8.948  0.1960  0.4380  0.4869
    7SAPS  H13X  914   1.559   2.722   8.947  0.0836  0.4988  0.5849
    7SAPS  H13Y  915   1.423   2.631   8.877  0.5632  0.1423  0.0201
    7SAPS  C314  916   1.601   2.509   8.893 -0.5554 -0.2200 -0.3298
    7SAPS  H14X  917   1.541   2.417   8.879 -0.6314 -0.0425 -1.2021
    7SAPS  H14Y  918   1.679   2.480   8.967 -0.2451 -0.7128 -0.8422
    7SAPS  C315  919   1.668   2.537   8.756 -0.0131  0.8532  0.4422
    7SAPS  H15X  920   1.762   2.593   8.767 -0.6923  2.2978 -0.7475
    7SAPS  H15Y  921   1.596   2.594   8.693 -2.7683  0.2568  2.7994
    7SAPS  C316  922   1.701   2.408   8.681 -0.0314  0.6157 -0.9250
    7SAPS  H16X  923   1.601   2.371   8.649 -1.1340  4.1134 -2.0058
    7SAPS  H16Y  924   1.740   2.325   8.743  1.1956  0.5444 -1.7513
    7SAPS  C317  925   1.797   2.423   8.561  0.3577 -0.0294  0.3509
    7SAPS  H17X  926   1.883   2.484   8.596 -0.3616  0.2261  1.7151
    7SAPS  H17Y  927   1.755   2.485   8.479  0.2312 -0.6995 -0.1057
    7SAPS  C318  928   1.835   2.287   8.505  0.4514  0.0054 -0.4150
    7SAPS  H18X  929   1.753   2.225   8.462  0.8016 -0.3870 -0.5329
    7SAPS  H18Y  930   1.865   2.232   8.597 -1.8231  0.9868  0.9964
    7SAPS  H18Z  931   1.910   2.291   8.423 -0.1164  2.4804 -0.8815
    8SAPS     N  932   0.952   5.365  11.214  0.0199  0.4779  0.2066
    8SAPS   HN1  933   1.015   5.323  11.286  1.6076 -0.7497 -1.8113
    8SAPS   HN2  934   0.861   5.317  11.233 -0.1091  0.7540  0.2936
    8SAPS   HN3  935   0.990   5.337  11.122  0.1563  0.3961  0.2864
    8SAPS   C12  936   0.940   5.509  11.231 -0.7153 -0.7598 -1.1560
    8SAPS  H12A  937   0.851   5.536  11.286 -0.9473 -1.4428 -1.1844
    8SAPS   C13  938   1.061   5.571  11.311 -0.3211 -0.4519 -0.4743
    8SAPS  O13A  939   1.151   5.496  11.354  0.0046  0.3714 -0.9424
    8SAPS  O13B  940   1.056   5.693  11.337 -0.4038 -0.3701  0.3055
    8SAPS   C11  941   0.949   5.582  11.091  0.0306 -0.2683 -0.2996
    8SAPS  H11A  942   1.037   5.539  11.038 -0.2754 -1.9124  0.4552
    8SAPS  H11B  943   0.973   5.689  11.109 -1.0279 -0.0352 -0.2238
    8SAPS     P  944   0.719   5.669  11.010  0.3292 -0.2195 -0.0528
    8SAPS   O13  945   0.604   5.620  10.933  0.9409  0.0603 -0.0134
    8SAPS   O14  946   0.683   5.716  11.148  0.5800 -0.0870  0.8887
    8SAPS   O12  947   0.831   5.558  11.013  0.3163  0.5007  0.4724
    8SAPS   O11  948   0.794   5.786  10.929  0.4021  0.2433 -0.3158
    8SAPS    C1  949   0.730   5.914  10.913 -0.2144 -0.6159  0.4736
    8SAPS    HA  950   0.680   5.955  11.004  1.7743  1.8137  0.6004
    8SAPS    HB  951   0.812   5.988  10.900 -1.3719  0.9286  1.5041
    8SAPS    C2  952   0.632   5.921  10.789  0.5644  0.0807  0.0740
    8SAPS    HS  953   0.560   5.837  10.800 -0.8889  1.0947 -1.1627
    8SAPS   O21  954   0.710   5.907  10.670  0.7737  0.1564  0.3606
    8SAPS   C21  955   0.646   5.837  10.571 -0.4458 -0.2230 -0.1193
    8SAPS   O22  956   0.534   5.796  10.570  0.9888  1.4253 -0.0619
    8SAPS   C22  957   0.739   5.815  10.448 -0.3628  0.3988  0.5125
    8SAPS   H2R  958   0.845   5.827  10.479 -0.6138 -0.7322  1.8814
    8SAPS   H2S  959   0.728   5.714  10.404  1.1069  0.4905 -0.1286
    8SAPS    C3  960   0.554   6.052  10.780  0.6404 -1.0817  0.2696
    8SAPS    HX  961   0.624   6.138  10.773 -2.8072  1.9721 -0.0819
    8SAPS    HY  962   0.499   6.069  10.875 -1.7528  0.0210 -1.2121
    8SAPS   O31  963   0.466   6.062  10.666  0.4541 -0.7894 -0.1920
    8SAPS   C31  964   0.346   6.022  10.679 -0.0228 -0.6788  0.1885
    8SAPS   O32  965   0.293   5.975  10.780 -0.4397 -0.2828  0.4325
    8SAPS   C32  966   0.277   6.043  10.543 -0.1774  0.0472  0.4558
    8SAPS   H2X  967   0.171   6.036  10.574 -0.6043  0.8872 -0.7429
    8SAPS   H2Y  968   0.294   5.958  10.473  0.1965 -0.7345  1.4753
    8SAPS   C23  969   0.712   5.923  10.340  1.4596  0.0454  0.7198
    8SAPS   H3R  970   0.765   5.902  10.245  1.2468  0.6789  0.4543
    8SAPS   H3S  971   0.748   6.019  10.383 -1.5089  1.1889  0.8728
    8SAPS   C24  972   0.565   5.944  10.294  0.0922 -0.0927 -0.3084
    8SAPS   H4R  973   0.559   6.027  10.221  2.1008  2.5430  2.2808
    8SAPS   H4S  974   0.501   5.983  10.376  0.1190  1.9862 -1.2011
    8SAPS   C25  975   0.494   5.820  10.242  0.2425  0.3068 -0.0840
    8SAPS   H5R  976   0.439   5.762  10.317 -0.3075 -0.4525 -1.0390
    8SAPS   C26  977   0.467   5.780  10.116 -0.1717 -0.3099 -0.0658
    8SAPS   H6R  978   0.429   5.678  10.100 -0.3357 -0.5381  1.6816
    8SAPS   C27  979   0.503   5.848   9.985  0.9453 -0.6612 -0.2900
    8SAPS   H7R  980   0.513   5.764   9.913  0.4545 -1.8290  0.9667
    8SAPS   H7S  981   0.612   5.870   9.995  1.5346 -3.2214 -0.2654
    8SAPS   C28  982   0.416   5.955   9.929  0.4766 -0.3912 -0.9261
    8SAPS   H8R  983   0.364   6.012  10.007  1.6065 -0.1859 -0.2970
    8SAPS   C29  984   0.391   5.980   9.801 -0.3580  0.5351 -0.1052
    8SAPS   H9R  985   0.340   6.074   9.776 -0.3250  1.0676  1.6488
    8SAPS  C210  986   0.443   5.908   9.684 -0.2328 -0.6867 -0.1254
    8SAPS  H10R  987   0.518   5.829   9.706  2.5768  2.1303  1.0742
    8SAPS  H10S  988   0.510   5.985   9.641  0.1145 -1.1983 -0.5162
    8SAPS  C211  989   0.346   5.873   9.569 -0.1102 -0.3346  0.7570
    8SAPS  H11R  990   0.244   5.907   9.587 -0.3151 -0.0470 -0.7532
    8SAPS  C212  991   0.383   5.839   9.440 -0.7086 -0.4500 -0.1728
    8SAPS  H12R  992   0.308   5.822   9.361 -3.3834  2.8145  1.3860
    8SAPS  C213  993   0.522   5.816   9.387  0.8420  0.3569  0.0411
    8SAPS  H13R  994   0.534   5.717   9.339  0.1485  0.3656 -0.1638
    8SAPS  H13S  995   0.592   5.838   9.470  1.6916  2.2951 -1.1208
    8SAPS  C214  996   0.549   5.917   9.284  0.3729  0.6966  0.3445
    8SAPS  H14R  997   0.509   6.019   9.299  2.6435  1.7184 -0.0511
    8SAPS  C215  998   0.624   5.904   9.176  0.0115 -0.3807  0.0011
    8SAPS  H15R  999   0.641   5.989   9.108 -1.1804 -0.3777 -0.3110
    8SAPS  C216 1000   0.683   5.770   9.138  0.1771 -0.1312 -0.0947
    8SAPS  H16R 1001   0.652   5.683   9.199  0.6599  1.3672  2.4399
    8SAPS  H16S 1002   0.793   5.778   9.149 -0.0386  1.7267  1.2440
    8SAPS  C217 1003   0.640   5.726   8.999  0.1449 -0.2015  0.2533
    8SAPS  H17R 1004   0.529   5.718   8.994  0.0860 -0.7116  1.8761
    8SAPS  H17S 1005   0.678   5.622   8.988 -3.1150 -1.7540  1.9162
    8SAPS  C218 1006   0.685   5.812   8.880 -0.2575  0.0570 -0.1559
    8SAPS  H18R 1007   0.796   5.820   8.883 -0.3071  0.6846  0.1823
    8SAPS  H18S 1008   0.641   5.912   8.901 -2.9882 -1.2205  0.6036
    8SAPS  C219 1009   0.619   5.747   8.754 -0.4968 -0.4338 -0.1397
    8SAPS  H19R 1010   0.509   5.746   8.774 -0.5001  0.2817 -0.0772
    8SAPS  H19S 1011   0.630   5.637   8.748 -1.7757 -0.6161  0.4467
    8SAPS  C220 1012   0.670   5.804   8.626  0.2330 -0.0369  0.0950
    8SAPS  H20R 1013   0.781   5.810   8.623  0.2479  0.5058  1.2870
    8SAPS  H20S 1014   0.626   5.904   8.605  0.9759  0.1080 -0.8661
    8SAPS  H20T 1015   0.649   5.739   8.538  1.6748  2.0604 -1.9119
    8SAPS   C33 1016   0.309   6.180  10.477  0.3993  0.1050  0.5277
    8SAPS   H3X 1017   0.406   6.197  10.426 -1.4018  1.6120 -2.6961
    8SAPS   H3Y 1018   0.301   6.261  10.553  0.3000 -0.4131  1.0788
    8SAPS   C34 1019   0.197   6.214  10.382 -0.4621 -0.3620 -0.3542
    8SAPS   H4X 1020   0.184   6.323  10.364  3.7799  0.3697 -0.0743
    8SAPS   H4Y 1021   0.105   6.184  10.437 -0.7974  0.6452 -0.3558
    8SAPS   C35 1022   0.214   6.138  10.248  0.3754 -0.1574  0.1499
    8SAPS   H5X 1023   0.230   6.029  10.262 -3.4155 -0.7613  0.8696
    8SAPS   H5Y 1024   0.304   6.186  10.205 -0.1743  0.9770  0.2111
    8SAPS   C36 1025   0.081   6.139  10.174 -0.1236 -0.5967 -0.2440
    8SAPS   H6X 1026   0.040   6.240  10.154  1.8075  0.1921 -0.4440
    8SAPS   H6Y 1027   0.018   6.074  10.238  0.6007 -1.7774 -0.7023
    8SAPS   C37 1028   0.087   6.081  10.034 -0.8186  0.2672  1.0637
    8SAPS   H7X 1029   0.143   5.985  10.044  1.3319  1.0418 -2.0433
    8SAPS   H7Y 1030   0.146   6.137   9.958 -2.2222 -1.1898 -1.2628
    8SAPS   C38 1031  -0.052   6.047   9.971 -0.0916 -0.4621  0.4522
    8SAPS   H8X 1032  -0.110   6.141   9.972  0.9972  0.2239  1.2454
    8SAPS   H8Y 1033  -0.103   5.963  10.024  0.7930 -1.9940 -1.0094
    8SAPS   C39 1034  -0.050   6.005   9.820 -0.6221  0.8310 -0.4044
    8SAPS   H9X 1035  -0.033   5.896   9.808 -1.2933  0.2617  2.7440
    8SAPS   H9Y 1036   0.031   6.061   9.768 -0.3829 -1.4844 -2.6791
    8SAPS  C310 1037  -0.186   6.025   9.742 -0.0899 -0.0467  0.4972
    8SAPS  H10X 1038  -0.231   6.121   9.776  0.2928  0.5094 -0.5170
    8SAPS  H10Y 1039  -0.251   5.938   9.763  1.6394 -1.8570 -1.3012
    8SAPS  C311 1040  -0.144   6.035   9.598 -0.3996 -0.0301 -0.3182
    8SAPS  H11X 1041  -0.086   6.128   9.579  0.9315 -1.0742 -1.5152
    8SAPS  H11Y 1042  -0.241   6.043   9.544 -1.3908 -0.6379  1.2964
    8SAPS  C312 1043  -0.067   5.920   9.537  0.5328  0.6857  0.4065
    8SAPS  H12X 1044  -0.131   5.831   9.553  1.3756  0.2420  1.4075
    8SAPS  H12Y 1045   0.030   5.898   9.587  0.2734 -0.5646  0.3961
    8SAPS  C313 1046  -0.030   5.926   9.384  0.6681  0.4854 -0.5273
    8SAPS  H13X 1047  -0.116   5.946   9.317  2.3534 -0.8236 -3.2893
    8SAPS  H13Y 1048   0.012   5.829   9.350 -1.5192 -0.0280 -1.9481
    8SAPS  C314 1049   0.074   6.038   9.351  0.2953 -0.0930  0.5742
    8SAPS  H14X 1050   0.169   6.026   9.409  0.3786  1.0194  0.6810
    8SAPS  H14Y 1051   0.027   6.135   9.375 -1.5793 -0.6799 -0.5158
    8SAPS  C315 1052   0.091   6.021   9.200 -0.6006  0.0716  0.1913
    8SAPS  H15X 1053   0.008   6.075   9.148 -1.5852 -2.6485 -1.2194
    8SAPS  H15Y 1054   0.098   5.914   9.173 -3.1100  0.0890 -0.8634
    8SAPS  C316 1055   0.230   6.079   9.158  0.4190  0.7107 -0.4402
    8SAPS  H16X 1056   0.304   6.038   9.230  0.1973 -0.5210 -0.8806
    8SAPS  H16Y 1057   0.232   6.188   9.178 -1.2223  0.5337  0.8749
    8SAPS  C317 1058   0.269   6.040   9.012  1.0173  0.0837 -0.1402
    8SAPS  H17X 1059   0.357   6.096   8.973  2.3425 -1.4891  0.4792
    8SAPS  H17Y 1060   0.184   6.080   8.953  1.0887  0.9008  0.3037
    8SAPS  C318 1061   0.295   5.889   8.996  0.4102 -0.4863  0.0871
    8SAPS  H18X 1062   0.327   5.858   8.894 -1.5746 -0.5022 -0.5571
    8SAPS  H18Y 1063   0.215   5.823   9.035 -0.7763  1.7922  1.7747
    8SAPS  H18Z 1064   0.385   5.856   9.052 -1.4511 -0.3279  3.4364
    9SAPS     N 1065   1.309   1.039   6.091 -0.1202  0.1660 -0.2872
    9SAPS   HN1 1066   1.225   1.092   6.059  1.2544  3.1382  0.7148
    9SAPS   HN2 1067   1.390   1.075   6.037 -1.2740  1.0600 -1.5015
    9SAPS   HN3 1068   1.284   0.939   6.074  1.7345 -0.8850  2.5103
    9SAPS   C12 1069   1.326   1.058   6.239 -0.2072  0.1406  0.4553
    9SAPS  H12A 1070   1.238   1.018   6.287 -0.6216 -1.1364 -1.2696
    9SAPS   C13 1071   1.451   0.994   6.308  0.0633 -0.1365  0.2243
    9SAPS  O13A 1072   1.540   0.945   6.232 -0.3918 -0.1749 -0.2365
    9SAPS  O13B 1073   1.478   1.020   6.432 -0.6408  0.6023 -0.5088
    9SAPS   C11 1074   1.329   1.209   6.265 -0.1543  0.2012 -0.2533
    9SAPS  H11A 1075   1.421   1.252   6.220  0.8510 -1.4500  0.1632
    9SAPS  H11B 1076   1.337   1.230   6.374  2.9395  2.9669 -0.8450
    9SAPS     P 1077   1.190   1.426   6.220  0.0676  0.2296  0.2471
    9SAPS   O13 1078   1.309   1.497   6.265  0.1003  0.9905  0.1256
    9SAPS   O14 1079   1.133   1.466   6.088 -0.6273 -0.2010  0.2581
    9SAPS   O12 1080   1.212   1.266   6.215  0.1664 -0.0097  0.3822
    9SAPS   O11 1081   1.073   1.459   6.321 -0.0564 -0.2234  0.3474
    9SAPS    C1 1082   1.090   1.544   6.435 -0.2634 -0.0123  0.0690
    9SAPS    HA 1083   1.192   1.527   6.475  1.0665 -0.5072 -3.2554
    9SAPS    HB 1084   1.088   1.653   6.410 -0.1279  0.3661  1.5853
    9SAPS    C2 1085   0.987   1.512   6.545 -0.6152  0.0860 -0.4350
    9SAPS    HS 1086   0.887   1.544   6.510 -0.4582  0.8639 -0.1921
    9SAPS   O21 1087   1.027   1.580   6.666 -0.1741 -0.2764  0.4821
    9SAPS   C21 1088   1.018   1.712   6.664  0.5369  0.4761 -0.3765
    9SAPS   O22 1089   0.954   1.777   6.579  0.2152  0.7521 -0.6004
    9SAPS   C22 1090   1.106   1.779   6.768 -0.1755  0.1043 -0.3404
    9SAPS   H2R 1091   1.205   1.729   6.761 -0.4970 -0.4729 -0.7816
    9SAPS   H2S 1092   1.116   1.886   6.739 -0.6311  1.2997  3.3741
    9SAPS    C3 1093   0.982   1.357   6.570 -0.3589  0.2464 -0.1574
    9SAPS    HX 1094   0.968   1.297   6.477  0.2867 -0.3274  0.1070
    9SAPS    HY 1095   0.892   1.338   6.632 -0.9567  0.9820 -0.7816
    9SAPS   O31 1096   1.109   1.332   6.636  0.0428  0.6047  0.1350
    9SAPS   C31 1097   1.108   1.233   6.720  0.2798 -0.1573 -0.2978
    9SAPS   O32 1098   1.010   1.173   6.763  0.0605 -0.1261 -0.0885
    9SAPS   C32 1099   1.252   1.191   6.760 -0.3711 -0.2066 -0.4827
    9SAPS   H2X 1100   1.266   1.198   6.870  0.6759  0.0749 -0.6160
    9SAPS   H2Y 1101   1.319   1.264   6.709 -1.4473  0.8548 -0.4149
    9SAPS   C23 1102   1.057   1.769   6.918 -0.4983 -0.1429  0.2497
    9SAPS   H3R 1103   0.970   1.836   6.934 -0.1317 -0.1851  2.8828
    9SAPS   H3S 1104   1.140   1.803   6.984  1.4340 -2.1635 -0.9740
    9SAPS   C24 1105   1.022   1.630   6.973 -0.1561 -0.5473 -0.0951
    9SAPS   H4R 1106   0.957   1.574   6.903 -0.6269 -1.4308  1.0097
    9SAPS   H4S 1107   0.965   1.645   7.068  1.6555 -0.0182  0.9630
    9SAPS   C25 1108   1.150   1.559   7.001  0.1748  0.3503  0.1711
    9SAPS   H5R 1109   1.211   1.547   6.911  0.8131 -2.6758  0.8919
    9SAPS   C26 1110   1.197   1.500   7.116  0.7738  0.6546  0.1560
    9SAPS   H6R 1111   1.291   1.442   7.120 -0.5733 -1.5922  2.1614
    9SAPS   C27 1112   1.128   1.493   7.247  0.3905 -0.5181  0.4707
    9SAPS   H7R 1113   1.018   1.505   7.247  0.3576 -0.7762  1.4467
    9SAPS   H7S 1114   1.174   1.568   7.315  1.1887 -0.9787  0.4501
    9SAPS   C28 1115   1.151   1.356   7.305  0.6978  0.1776 -0.0251
    9SAPS   H8R 1116   1.128   1.271   7.238  0.2861 -0.0356  0.3828
    9SAPS   C29 1117   1.201   1.321   7.425 -0.8728  0.4910 -0.4534
    9SAPS   H9R 1118   1.206   1.212   7.437  0.2544  0.5261 -0.4453
    9SAPS  C210 1119   1.255   1.418   7.531  0.5017 -0.6064  0.0329
    9SAPS  H10R 1120   1.302   1.509   7.488  0.8130 -1.1695 -0.8487
    9SAPS  H10S 1121   1.335   1.364   7.585  2.5957  0.5068 -1.7747
    9SAPS  C211 1122   1.165   1.475   7.625  0.5670  0.6490  0.2410
    9SAPS  H11R 1123   1.099   1.555   7.586 -1.0465  0.1906  1.9047
    9SAPS  C212 1124   1.125   1.440   7.750  0.3943  0.5080 -0.0565
    9SAPS  H12R 1125   1.047   1.500   7.799 -0.4388 -0.0046 -0.7243
    9SAPS  C213 1126   1.174   1.319   7.824 -0.5441  0.2549 -0.6107
    9SAPS  H13R 1127   1.244   1.263   7.758 -0.1290  1.0772 -0.8843
    9SAPS  H13S 1128   1.092   1.247   7.848 -0.5992 -0.5468 -2.9501
    9SAPS  C214 1129   1.243   1.380   7.942 -0.9055  0.9958  0.1885
    9SAPS  H14R 1130   1.342   1.425   7.926  0.8725 -1.7689  2.4688
    9SAPS  C215 1131   1.214   1.365   8.072 -0.0420 -0.0422  0.1710
    9SAPS  H15R 1132   1.276   1.423   8.143 -0.4962  2.4625 -1.3529
    9SAPS  C216 1133   1.095   1.289   8.132  0.3817 -0.0643  0.1881
    9SAPS  H16R 1134   1.106   1.179   8.121 -3.6109 -0.4526 -2.2006
    9SAPS  H16S 1135   1.008   1.312   8.067  1.6189  2.1916 -0.7776
    9SAPS  C217 1136   1.058   1.345   8.270  0.0964  0.4007  0.1213
    9SAPS  H17R 1137   0.949   1.336   8.289 -0.1413  2.8401  0.2018
    9SAPS  H17S 1138   1.083   1.453   8.263 -0.8365  0.5861 -0.5285
    9SAPS  C218 1139   1.141   1.278   8.378  0.0716 -0.4940  0.0048
    9SAPS  H18R 1140   1.243   1.301   8.340 -0.0179  1.0240  0.6024
    9SAPS  H18S 1141   1.125   1.170   8.360  0.2893 -0.7440  1.2156
    9SAPS  C219 1142   1.105   1.323   8.522 -0.0950  0.1151  0.2895
    9SAPS  H19R 1143   0.996   1.302   8.528 -0.8306  3.3929  0.5366
    9SAPS  H19S 1144   1.120   1.433   8.537 -1.8531  0.4183  0.0164
    9SAPS  C220 1145   1.190   1.253   8.627 -0.1172 -0.1140  0.1185
    9SAPS  H20R 1146   1.146   1.152   8.644 -1.0933  0.1030 -0.9397
    9SAPS  H20S 1147   1.185   1.311   8.721 -1.8108  2.5253 -1.4720
    9SAPS  H20T 1148   1.294   1.249   8.591 -0.3238 -0.3764 -0.4590
    9SAPS   C33 1149   1.290   1.050   6.731 -0.1001  0.0759 -0.8853
    9SAPS   H3X 1150   1.311   1.022   6.626  0.8712 -1.3086 -0.3600
    9SAPS   H3Y 1151   1.207   0.981   6.759  0.8397 -0.5914  0.4098
    9SAPS   C34 1152   1.417   1.015   6.812  1.0744 -0.6758 -0.6643
    9SAPS   H4X 1153   1.495   1.092   6.834  2.4426 -1.9976 -0.6819
    9SAPS   H4Y 1154   1.483   0.944   6.758  2.0309 -0.8527  0.6776
    9SAPS   C35 1155   1.389   0.960   6.948  1.0310 -0.2179 -0.3329
    9SAPS   H5X 1156   1.341   0.860   6.939 -1.7294  0.7767  1.9536
    9SAPS   H5Y 1157   1.324   1.037   6.995  1.0471 -0.8188  0.7068
    9SAPS   C36 1158   1.513   0.941   7.034 -0.4733 -0.1583 -1.0158
    9SAPS   H6X 1159   1.553   1.044   7.042  0.0806 -0.2681 -2.2625
    9SAPS   H6Y 1160   1.592   0.877   6.990  0.3079  0.1053 -0.0467
    9SAPS   C37 1161   1.472   0.883   7.171 -0.3057 -0.3556 -0.5095
    9SAPS   H7X 1162   1.559   0.829   7.214 -0.4825 -0.8028 -0.7119
    9SAPS   H7Y 1163   1.394   0.805   7.165 -0.8388  0.2135 -1.1081
    9SAPS   C38 1164   1.444   0.985   7.283 -0.4851  0.7772 -0.4028
    9SAPS   H8X 1165   1.335   1.003   7.273 -0.7943 -0.8626 -0.2760
    9SAPS   H8Y 1166   1.502   1.080   7.280  2.3278 -0.7525  0.9643
    9SAPS   C39 1167   1.481   0.918   7.426  0.9634  0.1786 -0.5059
    9SAPS   H9X 1168   1.589   0.893   7.426  0.4274 -2.4482 -0.0985
    9SAPS   H9Y 1169   1.438   0.819   7.453  0.6835  0.3398 -0.3550
    9SAPS  C310 1170   1.451   1.009   7.553  0.3726 -0.1435 -0.4933
    9SAPS  H10X 1171   1.344   1.024   7.581  1.3210  3.6101  1.9055
    9SAPS  H10Y 1172   1.486   1.111   7.524 -1.7140  0.5095 -0.9110
    9SAPS  C311 1173   1.528   0.952   7.674 -0.8329 -0.1180  0.6302
    9SAPS  H11X 1174   1.637   0.956   7.653 -1.1270 -2.2621 -1.8543
    9SAPS  H11Y 1175   1.492   0.847   7.684 -1.2721  0.1923  2.5706
    9SAPS  C312 1176   1.501   1.026   7.802 -0.0763  0.1706  0.2026
    9SAPS  H12X 1177   1.403   1.077   7.803  0.0882  0.5732 -1.6888
    9SAPS  H12Y 1178   1.572   1.109   7.825 -2.6725  1.8185  2.9853
    9SAPS  C313 1179   1.499   0.934   7.921 -0.0345 -0.1540 -0.4517
    9SAPS  H13X 1180   1.595   0.879   7.932  1.6103  2.6794  0.5542
    9SAPS  H13Y 1181   1.413   0.864   7.910  0.3943 -0.7936  0.1215
    9SAPS  C314 1182   1.480   1.019   8.048 -0.0601 -0.4169 -0.2189
    9SAPS  H14X 1183   1.388   1.081   8.054  1.1378  1.3018  1.4477
    9SAPS  H14Y 1184   1.548   1.106   8.057 -0.5310 -0.1704  1.1490
    9SAPS  C315 1185   1.498   0.928   8.175 -0.9837  0.2105  0.4854
    9SAPS  H15X 1186   1.605   0.948   8.200 -1.0119  1.8946 -0.5841
    9SAPS  H15Y 1187   1.486   0.821   8.147  0.5899 -0.6399  2.7148
    9SAPS  C316 1188   1.414   0.971   8.295  0.5906  0.3840 -1.4557
    9SAPS  H16X 1189   1.309   0.949   8.265 -0.1306 -0.0706  1.1344
    9SAPS  H16Y 1190   1.431   1.080   8.308  3.4188 -0.1067 -0.2229
    9SAPS  C317 1191   1.450   0.893   8.424  0.4376 -0.0915 -0.1277
    9SAPS  H17X 1192   1.471   0.785   8.404 -0.1225 -0.2785  0.2884
    9SAPS  H17Y 1193   1.360   0.889   8.488  0.8519  1.0055  0.5444
    9SAPS  C318 1194   1.569   0.955   8.504  0.5865 -0.2537 -0.3655
    9SAPS  H18X 1195   1.548   1.063   8.523  1.4761 -0.2838  0.9090
    9SAPS  H18Y 1196   1.671   0.966   8.460  0.5970  0.3551 -0.2112
    9SAPS  H18Z 1197   1.575   0.901   8.600 -0.8706 -2.3591 -1.3985
   10SAPS     N 1198   2.625   6.764   6.230  0.2282 -0.5165 -0.2475
   10SAPS   HN1 1199   2.723   6.779   6.199  0.5169 -0.7212  0.5567
   10SAPS   HN2 1200   2.598   6.856   6.270  1.8661  0.4989 -1.3561
   10SAPS   HN3 1201   2.628   6.700   6.312 -2.8632  1.3301  1.5192
   10SAPS   C12 1202   2.522   6.725   6.139 -0.2816 -0.6516 -0.7409
   10SAPS  H12A 1203   2.488   6.812   6.084  0.2229  1.4892  2.0520
   10SAPS   C13 1204   2.565   6.607   6.049 -0.2899 -0.9274 -1.0942
   10SAPS  O13A 1205   2.687   6.566   6.041  0.4788 -0.6399 -0.7018
   10SAPS  O13B 1206   2.481   6.544   5.983  0.2397 -0.0563  0.3597
   10SAPS   C11 1207   2.392   6.689   6.229 -0.9822 -0.3799  0.4789
   10SAPS  H11A 1208   2.400   6.582   6.256  0.2523 -0.6906 -0.9987
   10SAPS  H11B 1209   2.305   6.698   6.160  0.0578  0.6737 -0.7643
   10SAPS     P 1210   2.286   6.899   6.338  0.3333  0.1290 -0.1668
   10SAPS   O13 1211   2.353   7.018   6.393 -0.5214  0.3893  0.0042
   10SAPS   O14 1212   2.220   6.916   6.201 -0.1801  0.0033 -0.5279
   10SAPS   O12 1213   2.369   6.766   6.354  0.4882 -0.6381  0.5321
   10SAPS   O11 1214   2.172   6.854   6.434  0.0905  0.1292  0.6126
   10SAPS    C1 1215   2.205   6.849   6.575  0.8419  0.5560  0.5415
   10SAPS    HA 1216   2.277   6.925   6.611 -0.0893  1.2220  1.0443
   10SAPS    HB 1217   2.116   6.857   6.641  1.0070 -1.5093  1.0727
   10SAPS    C2 1218   2.265   6.702   6.616 -0.6047 -0.5224 -0.1496
   10SAPS    HS 1219   2.350   6.674   6.550 -2.0230 -1.1990 -1.8036
   10SAPS   O21 1220   2.161   6.608   6.599  0.1906  0.1407  0.0655
   10SAPS   C21 1221   2.191   6.487   6.544  0.3975  0.1278 -0.3973
   10SAPS   O22 1222   2.297   6.449   6.505  0.1875 -0.2948  0.7472
   10SAPS   C22 1223   2.065   6.401   6.541 -0.3685  0.6035  1.0388
   10SAPS   H2R 1224   1.995   6.458   6.606  0.5935  2.7146  0.3382
   10SAPS   H2S 1225   2.015   6.411   6.442  3.0385 -0.8018 -1.0118
   10SAPS    C3 1226   2.326   6.702   6.760  0.7138 -0.3469  0.5048
   10SAPS    HX 1227   2.365   6.601   6.788 -1.9109 -1.0483  1.9630
   10SAPS    HY 1228   2.241   6.709   6.831  1.2545  1.2198  1.0191
   10SAPS   O31 1229   2.416   6.809   6.788  0.2084  0.4244  0.2518
   10SAPS   C31 1230   2.545   6.789   6.774  0.3571 -0.1739 -0.0083
   10SAPS   O32 1231   2.587   6.679   6.737  0.2332  0.1963  0.1953
   10SAPS   C32 1232   2.617   6.910   6.818 -0.0923 -0.5757 -0.8063
   10SAPS   H2X 1233   2.549   6.990   6.853  0.9781 -0.4638  1.1319
   10SAPS   H2Y 1234   2.666   6.937   6.723  2.9391 -0.0221  0.8083
   10SAPS   C23 1235   2.082   6.251   6.567 -0.1830  0.0095 -0.8730
   10SAPS   H3R 1236   2.146   6.208   6.487  1.9378 -0.7112  1.0822
   10SAPS   H3S 1237   1.987   6.199   6.543  2.0225 -4.7311 -0.5284
   10SAPS   C24 1238   2.140   6.232   6.709  0.2187 -0.2572  0.9576
   10SAPS   H4R 1239   2.240   6.278   6.717 -0.0688  0.1855  2.3802
   10SAPS   H4S 1240   2.143   6.124   6.732 -1.2252 -0.6305 -0.3941
   10SAPS   C25 1241   2.059   6.302   6.809  0.1003 -0.3760 -0.4492
   10SAPS   H5R 1242   1.952   6.319   6.787 -0.2617 -3.7261 -1.7553
   10SAPS   C26 1243   2.102   6.353   6.928 -0.0225  1.0020  0.0181
   10SAPS   H6R 1244   2.023   6.397   6.991 -1.6349 -2.0077  0.2692
   10SAPS   C27 1245   2.236   6.354   6.985 -0.4220 -0.0894 -0.2842
   10SAPS   H7R 1246   2.298   6.429   6.932  0.9385  0.4677  1.9201
   10SAPS   H7S 1247   2.281   6.253   6.981 -0.7376 -0.2500  0.1464
   10SAPS   C28 1248   2.221   6.387   7.128 -0.9615  0.0700 -0.0471
   10SAPS   H8R 1249   2.188   6.310   7.199 -0.7571  1.0401  1.1362
   10SAPS   C29 1250   2.253   6.500   7.190 -0.4998 -0.6753 -0.4575
   10SAPS   H9R 1251   2.235   6.500   7.299  1.1854 -1.2034 -0.1534
   10SAPS  C210 1252   2.311   6.627   7.129  0.2246  0.3366 -0.0604
   10SAPS  H10R 1253   2.333   6.611   7.022  0.0671 -1.4034  0.1317
   10SAPS  H10S 1254   2.407   6.663   7.172 -0.8965  2.4259  0.8937
   10SAPS  C211 1255   2.218   6.749   7.154 -0.3742 -0.0278 -0.7636
   10SAPS  H11R 1256   2.128   6.754   7.091 -1.6128  2.1625  1.0204
   10SAPS  C212 1257   2.234   6.843   7.252 -0.1764 -0.0940  0.0367
   10SAPS  H12R 1258   2.155   6.918   7.264 -1.5619 -1.3675 -0.8453
   10SAPS  C213 1259   2.353   6.846   7.349  0.0564 -0.4099 -0.9819
   10SAPS  H13R 1260   2.439   6.903   7.308  0.9253 -1.5234 -0.7478
   10SAPS  H13S 1261   2.393   6.750   7.388  1.3633  0.2985 -0.5149
   10SAPS  C214 1262   2.301   6.926   7.472  0.1363 -0.0028  1.0768
   10SAPS  H14R 1263   2.235   7.011   7.449  0.6682  0.1226 -0.0302
   10SAPS  C215 1264   2.326   6.906   7.601 -0.2628 -0.9295  0.2006
   10SAPS  H15R 1265   2.271   6.966   7.675  0.1349 -2.6402  1.9683
   10SAPS  C216 1266   2.420   6.803   7.659 -0.2560  0.2927 -0.3483
   10SAPS  H16R 1267   2.450   6.724   7.587 -0.4005  0.7156 -0.8810
   10SAPS  H16S 1268   2.369   6.753   7.744 -0.2882 -0.3637 -0.7495
   10SAPS  C217 1269   2.558   6.871   7.689 -0.4836  0.2792  0.2548
   10SAPS  H17R 1270   2.617   6.795   7.746 -0.4230 -0.5609 -0.9001
   10SAPS  H17S 1271   2.551   6.962   7.752 -1.5500 -0.4313  1.2206
   10SAPS  C218 1272   2.642   6.908   7.565 -1.0478 -0.1969 -0.2893
   10SAPS  H18R 1273   2.592   6.981   7.498  0.3765 -0.8447 -2.1467
   10SAPS  H18S 1274   2.657   6.819   7.500  2.2198  0.3727 -0.4888
   10SAPS  C219 1275   2.786   6.966   7.589  0.1459  0.1999 -0.5196
   10SAPS  H19R 1276   2.782   7.059   7.650 -0.9479  1.4735 -2.3915
   10SAPS  H19S 1277   2.834   6.999   7.494 -1.0631 -0.8382 -1.5284
   10SAPS  C220 1278   2.892   6.873   7.648  0.7391  0.2877 -0.4758
   10SAPS  H20R 1279   2.917   6.786   7.584 -0.1284 -0.7594  0.5640
   10SAPS  H20S 1280   2.863   6.850   7.753 -1.3164 -1.8397 -1.4001
   10SAPS  H20T 1281   2.985   6.931   7.659  0.0941  1.2414  0.0817
   10SAPS   C33 1282   2.723   6.879   6.923 -0.5273 -0.5464  0.6485
   10SAPS   H3X 1283   2.778   6.975   6.933  3.4417 -2.2877 -1.9104
   10SAPS   H3Y 1284   2.789   6.795   6.891 -0.6394 -0.6877  0.7918
   10SAPS   C34 1285   2.667   6.854   7.056  0.4188  0.4253  0.5478
   10SAPS   H4X 1286   2.627   6.750   7.052  1.2024  0.1552 -2.4293
   10SAPS   H4Y 1287   2.573   6.911   7.071 -1.9571 -2.4584 -2.1098
   10SAPS   C35 1288   2.768   6.871   7.170 -0.1431 -0.4676 -0.0796
   10SAPS   H5X 1289   2.725   6.826   7.263  2.3410 -3.7724 -0.3629
   10SAPS   H5Y 1290   2.783   6.981   7.180  0.9321 -0.6583  0.5620
   10SAPS   C36 1291   2.911   6.806   7.159 -0.3675 -0.1557  0.2428
   10SAPS   H6X 1292   2.973   6.869   7.091 -2.2348  0.0030 -1.3916
   10SAPS   H6Y 1293   2.901   6.710   7.104 -0.3465  1.0142 -1.9094
   10SAPS   C37 1294   2.979   6.770   7.294 -1.1740 -0.6091 -0.4476
   10SAPS   H7X 1295   2.916   6.695   7.346  2.3993 -3.0870  0.7194
   10SAPS   H7Y 1296   2.994   6.861   7.356 -0.1193 -0.2897 -1.1495
   10SAPS   C38 1297   3.114   6.697   7.270  0.3906 -0.1319 -0.0798
   10SAPS   H8X 1298   3.188   6.761   7.217 -0.1805  0.2924 -0.3721
   10SAPS   H8Y 1299   3.085   6.632   7.185 -4.5150  2.2951 -0.6189
   10SAPS   C39 1300   3.173   6.629   7.392  0.1163 -0.0784 -1.0882
   10SAPS   H9X 1301   3.185   6.710   7.467  2.1966  0.5361 -2.0024
   10SAPS   H9Y 1302   3.280   6.602   7.376 -0.1738 -0.8735 -1.7613
   10SAPS  C310 1303   3.109   6.501   7.436  1.1533 -0.8807 -0.0150
   10SAPS  H10X 1304   3.115   6.433   7.349 -1.0248  0.4791 -1.3361
   10SAPS  H10Y 1305   3.001   6.516   7.461  0.9465  0.3326 -1.4560
   10SAPS  C311 1306   3.177   6.443   7.560  0.6121  0.3636 -0.2225
   10SAPS  H11X 1307   3.159   6.520   7.638 -0.4579 -0.5777  0.4924
   10SAPS  H11Y 1308   3.287   6.436   7.547  0.3962 -0.9097 -1.6199
   10SAPS  C312 1309   3.119   6.301   7.591  0.2193  0.4232 -0.7588
   10SAPS  H12X 1310   3.150   6.231   7.511 -0.8733 -0.2667 -0.6063
   10SAPS  H12Y 1311   3.010   6.322   7.583  0.3305  0.4808 -2.3707
   10SAPS  C313 1312   3.173   6.245   7.721 -0.0297  0.0421 -0.3968
   10SAPS  H13X 1313   3.183   6.320   7.801  3.5422  1.0888 -1.6337
   10SAPS  H13Y 1314   3.280   6.215   7.708  0.7232  1.9140  1.0570
   10SAPS  C314 1315   3.084   6.127   7.769 -0.5460 -0.1604 -0.4680
   10SAPS  H14X 1316   3.074   6.067   7.676  0.2731  2.3323 -2.2421
   10SAPS  H14Y 1317   2.982   6.166   7.790  0.6214  2.0927  1.4080
   10SAPS  C315 1318   3.131   6.038   7.892 -0.3905 -0.0686  0.6646
   10SAPS  H15X 1319   3.225   5.988   7.859 -0.0313 -0.9035  2.7989
   10SAPS  H15Y 1320   3.052   5.960   7.895 -1.5681  1.0474 -0.2964
   10SAPS  C316 1321   3.127   6.117   8.028 -0.1589 -0.1479  0.5570
   10SAPS  H16X 1322   3.018   6.134   8.042 -0.3322  1.0317 -1.7276
   10SAPS  H16Y 1323   3.177   6.214   8.009 -1.6706  0.3036 -1.5390
   10SAPS  C317 1324   3.186   6.048   8.150 -0.1114  0.0399 -0.2797
   10SAPS  H17X 1325   3.203   6.126   8.228  2.8152  0.2756 -1.0172
   10SAPS  H17Y 1326   3.280   6.000   8.115 -1.1377 -3.2533  1.0972
   10SAPS  C318 1327   3.098   5.939   8.206 -0.1950  0.8527  0.3281
   10SAPS  H18X 1328   3.013   5.976   8.267 -0.3942 -0.8986  1.1632
   10SAPS  H18Y 1329   3.167   5.876   8.266 -0.2326 -0.6996 -1.1747
   10SAPS  H18Z 1330   3.065   5.875   8.122  2.8082 -1.5636  0.7981
   11SAPS     N 1331   5.237   4.142   6.251 -0.1262 -0.3711  0.7488
   11SAPS   HN1 1332   5.201   4.089   6.333 -4.3117 -0.9443 -1.1811
   11SAPS   HN2 1333   5.294   4.222   6.284 -0.5076  0.0329  0.4521
   11SAPS   HN3 1334   5.153   4.169   6.196  0.3995 -3.7128 -2.0218
   11SAPS   C12 1335   5.339   4.058   6.171  0.0922 -0.1312 -0.7323
   11SAPS  H12A 1336   5.393   4.125   6.104 -0.3146 -1.1986 -2.1792
   11SAPS   C13 1337   5.447   3.999   6.267 -1.0770 -0.3239 -0.0717
   11SAPS  O13A 1338   5.440   4.033   6.392 -0.0700 -0.1433  0.7065
   11SAPS  O13B 1339   5.547   3.936   6.226  0.6439 -0.2105  0.3473
   11SAPS   C11 1340   5.263   3.951   6.087 -0.0387  0.2235 -0.0580
   11SAPS  H11A 1341   5.210   3.891   6.163  0.2320  1.8083  1.4492
   11SAPS  H11B 1342   5.338   3.885   6.039 -0.0908  1.3515 -1.8006
   11SAPS     P 1343   5.027   4.020   6.004  0.0584 -0.0928 -0.0256
   11SAPS   O13 1344   5.009   4.146   6.083  0.3867 -0.7923  0.1448
   11SAPS   O14 1345   4.959   4.012   5.872 -0.2757 -0.2405  0.1990
   11SAPS   O12 1346   5.182   4.003   5.980  0.2731 -0.2394 -0.5836
   11SAPS   O11 1347   4.978   3.897   6.086 -0.0092 -0.3593 -0.6869
   11SAPS    C1 1348   4.852   3.894   6.136  0.2354  0.2378  0.2090
   11SAPS    HA 1349   4.781   3.970   6.098 -0.8116 -0.6430  0.3214
   11SAPS    HB 1350   4.818   3.791   6.111  0.8655  0.8073 -3.6004
   11SAPS    C2 1351   4.839   3.921   6.286 -0.2244  0.4364  0.0840
   11SAPS    HS 1352   4.882   4.022   6.303  1.8846 -0.1392 -1.3752
   11SAPS   O21 1353   4.916   3.818   6.362  0.1860  0.3428  0.6908
   11SAPS   C21 1354   5.024   3.860   6.412 -0.6042 -0.2153  0.2271
   11SAPS   O22 1355   5.077   3.970   6.404  0.0042  0.4608 -0.7844
   11SAPS   C22 1356   5.089   3.743   6.482  0.0289 -0.4434  0.7233
   11SAPS   H2R 1357   5.027   3.651   6.478  0.7932 -0.9190 -1.5563
   11SAPS   H2S 1358   5.181   3.718   6.426 -0.4770  1.4413 -1.0661
   11SAPS    C3 1359   4.688   3.932   6.331 -0.3915 -0.0247 -0.2558
   11SAPS    HX 1360   4.637   3.839   6.299  0.5466  0.0057 -1.9585
   11SAPS    HY 1361   4.643   4.015   6.273 -1.6129 -0.7122 -0.3227
   11SAPS   O31 1362   4.693   3.946   6.478  0.1981  0.2073  0.7920
   11SAPS   C31 1363   4.719   4.065   6.525  0.3735  0.4919 -0.7680
   11SAPS   O32 1364   4.712   4.170   6.462 -0.3918  0.7249 -0.5482
   11SAPS   C32 1365   4.738   4.059   6.672  0.1434  0.7193  0.5544
   11SAPS   H2X 1366   4.671   3.986   6.723  0.8870  0.2669  0.9122
   11SAPS   H2Y 1367   4.730   4.149   6.737  0.3335  0.0311  1.5644
   11SAPS   C23 1368   5.142   3.785   6.627 -0.0400  0.2949 -0.1169
   11SAPS   H3R 1369   5.061   3.762   6.700 -0.6014  1.6383 -0.2921
   11SAPS   H3S 1370   5.175   3.891   6.635  2.2720 -0.3913  0.2173
   11SAPS   C24 1371   5.266   3.708   6.666  0.6667 -0.1352  0.4882
   11SAPS   H4R 1372   5.299   3.751   6.763  0.0650  0.6642  0.3498
   11SAPS   H4S 1373   5.338   3.736   6.585 -2.0806  1.1598 -1.6758
   11SAPS   C25 1374   5.264   3.560   6.691  0.0224 -0.3054 -0.1152
   11SAPS   H5R 1375   5.337   3.509   6.628  2.1889 -0.5414  2.4069
   11SAPS   C26 1376   5.201   3.489   6.786  0.0131 -0.7198  0.1798
   11SAPS   H6R 1377   5.215   3.380   6.793 -1.2237 -0.8973  0.2271
   11SAPS   C27 1378   5.116   3.546   6.900 -0.2575 -0.3728  0.0078
   11SAPS   H7R 1379   5.009   3.529   6.874 -0.3303 -0.1463  0.1576
   11SAPS   H7S 1380   5.137   3.655   6.908  0.9005 -0.5247 -0.5869
   11SAPS   C28 1381   5.138   3.476   7.033 -0.9306 -0.2711  0.0699
   11SAPS   H8R 1382   5.151   3.368   7.017  0.0642 -0.0601 -0.6301
   11SAPS   C29 1383   5.135   3.530   7.159 -0.4127 -0.3747  0.6614
   11SAPS   H9R 1384   5.158   3.474   7.251  0.6792  1.0937  1.3253
   11SAPS  C210 1385   5.114   3.672   7.197  0.5419  0.3120  0.2417
   11SAPS  H10R 1386   5.148   3.741   7.117  3.7240 -0.4122  0.8240
   11SAPS  H10S 1387   5.188   3.697   7.276  0.1698  0.8867  0.4140
   11SAPS  C211 1388   4.974   3.694   7.245 -0.0902 -1.0517 -0.5923
   11SAPS  H11R 1389   4.906   3.714   7.161  0.8329 -0.7320 -1.2784
   11SAPS  C212 1390   4.915   3.681   7.367  0.0236 -0.4251 -0.2443
   11SAPS  H12R 1391   4.812   3.715   7.385 -0.6344 -1.7680 -1.2763
   11SAPS  C213 1392   4.994   3.644   7.490  0.7707  0.0143 -0.1521
   11SAPS  H13R 1393   5.093   3.604   7.461  0.8523  1.7782 -2.6066
   11SAPS  H13S 1394   4.936   3.565   7.542 -2.4532  2.6895  0.7021
   11SAPS  C214 1395   5.015   3.757   7.589  0.6746  0.0700 -0.1673
   11SAPS  H14R 1396   5.017   3.852   7.535 -0.9062 -0.0297 -0.4326
   11SAPS  C215 1397   5.043   3.744   7.716  0.1316 -0.0254 -1.0592
   11SAPS  H15R 1398   5.055   3.839   7.770 -0.0158  0.5997 -2.1003
   11SAPS  C216 1399   5.056   3.613   7.790 -0.1338  0.1695 -0.0937
   11SAPS  H16R 1400   5.012   3.529   7.734 -1.7489  0.2460  0.9861
   11SAPS  H16S 1401   4.990   3.614   7.879  1.3812  1.9369  1.0994
   11SAPS  C217 1402   5.193   3.592   7.850 -0.3739  0.5446 -0.0578
   11SAPS  H17R 1403   5.264   3.567   7.768 -1.1295 -1.9340 -0.0334
   11SAPS  H17S 1404   5.185   3.503   7.916  3.1358  0.4903  0.4946
   11SAPS  C218 1405   5.271   3.703   7.932  0.0618  0.3825  0.4778
   11SAPS  H18R 1406   5.315   3.770   7.856  0.7031 -1.0946 -0.5037
   11SAPS  H18S 1407   5.346   3.667   8.006 -1.0314  0.2487  1.5585
   11SAPS  C219 1408   5.171   3.778   8.025 -1.0762 -0.3072 -0.4232
   11SAPS  H19R 1409   5.105   3.705   8.076 -2.2475  0.3022 -1.0312
   11SAPS  H19S 1410   5.105   3.843   7.963 -1.4053 -1.1993 -1.0341
   11SAPS  C220 1411   5.230   3.851   8.142  1.1229 -0.8429 -0.4789
   11SAPS  H20R 1412   5.300   3.781   8.192  1.1918 -0.8325 -0.5611
   11SAPS  H20S 1413   5.150   3.886   8.211  1.8517 -1.9431  0.9688
   11SAPS  H20T 1414   5.295   3.938   8.119 -0.1065  0.5823  1.1816
   11SAPS   C33 1415   4.884   4.004   6.706  0.2311 -0.3330 -0.3286
   11SAPS   H3X 1416   4.960   4.045   6.637 -1.4986  0.0248 -2.0974
   11SAPS   H3Y 1417   4.878   3.894   6.686 -0.3283 -0.2513 -0.6308
   11SAPS   C34 1418   4.927   4.008   6.859 -0.2042  0.3127  0.0546
   11SAPS   H4X 1419   5.014   3.942   6.879  0.4622  1.4779  1.1738
   11SAPS   H4Y 1420   4.849   3.962   6.922 -0.3208  1.9640  1.1741
   11SAPS   C35 1421   4.952   4.154   6.906  0.2939 -0.3580 -0.3909
   11SAPS   H5X 1422   4.857   4.213   6.904  0.0420 -0.7091  0.6270
   11SAPS   H5Y 1423   5.018   4.200   6.830 -0.2167 -0.4767 -0.9155
   11SAPS   C36 1424   5.013   4.168   7.042 -0.3962 -0.0791  0.2375
   11SAPS   H6X 1425   5.069   4.263   7.031 -2.7109  1.3279 -0.1466
   11SAPS   H6Y 1426   5.078   4.079   7.059  0.7388  0.6885 -0.0019
   11SAPS   C37 1427   4.913   4.184   7.148  0.1515  0.0669  0.2316
   11SAPS   H7X 1428   4.838   4.102   7.146 -0.4854  0.6119  1.0246
   11SAPS   H7Y 1429   4.867   4.282   7.124 -1.9373 -0.7674  0.6312
   11SAPS   C38 1430   4.969   4.184   7.289  0.6306  0.2296 -0.2267
   11SAPS   H8X 1431   4.985   4.287   7.329 -1.7145  0.5322  0.0460
   11SAPS   H8Y 1432   5.067   4.131   7.288  1.0829  0.9536 -2.6901
   11SAPS   C39 1433   4.860   4.118   7.379 -0.5010 -0.8403  0.0805
   11SAPS   H9X 1434   4.867   4.008   7.365 -0.3669 -0.6574 -1.5166
   11SAPS   H9Y 1435   4.763   4.165   7.352  0.0482 -0.6126 -1.6587
   11SAPS  C310 1436   4.881   4.130   7.532  0.4900  0.0809 -0.1953
   11SAPS  H10X 1437   4.876   4.239   7.554  2.1897  0.6405 -2.2790
   11SAPS  H10Y 1438   4.980   4.091   7.566  0.1112 -0.6407  0.1039
   11SAPS  C311 1439   4.766   4.066   7.611 -0.6152 -0.1208  0.1623
   11SAPS  H11X 1440   4.775   3.955   7.617 -0.6874 -0.4993 -3.6900
   11SAPS  H11Y 1441   4.677   4.090   7.549  0.8051  0.6816 -1.6613
   11SAPS  C312 1442   4.742   4.130   7.746  0.3346 -0.3840 -0.0530
   11SAPS  H12X 1443   4.658   4.083   7.802 -0.5077  2.7271  1.5475
   11SAPS  H12Y 1444   4.719   4.236   7.723 -1.0581 -1.3253 -3.6466
   11SAPS  C313 1445   4.860   4.119   7.846 -0.0749 -0.8632  0.4140
   11SAPS  H13X 1446   4.947   4.157   7.787 -0.9765 -0.6976 -0.8581
   11SAPS  H13Y 1447   4.874   4.010   7.863  0.2013 -1.0260 -0.7260
   11SAPS  C314 1448   4.845   4.197   7.975 -0.0121  0.1879 -0.4120
   11SAPS  H14X 1449   4.845   4.308   7.968  1.8411  0.2895  0.6203
   11SAPS  H14Y 1450   4.925   4.163   8.044 -1.6678  0.6095  1.8767
   11SAPS  C315 1451   4.718   4.167   8.055  0.2644  0.3513 -0.1929
   11SAPS  H15X 1452   4.716   4.058   8.080 -2.1883 -0.1845 -2.2189
   11SAPS  H15Y 1453   4.623   4.181   7.998  1.4167  1.2794 -1.9709
   11SAPS  C316 1454   4.714   4.239   8.187  0.0394 -0.6536 -0.3447
   11SAPS  H16X 1455   4.710   4.350   8.178  0.5069 -0.8067 -3.6957
   11SAPS  H16Y 1456   4.797   4.198   8.247 -1.5892 -2.2477  0.9292
   11SAPS  C317 1457   4.583   4.206   8.272 -1.3748  0.8051  0.4235
   11SAPS  H17X 1458   4.609   4.225   8.378 -0.4539 -0.9054  0.5264
   11SAPS  H17Y 1459   4.575   4.095   8.271  0.4966  0.6536 -0.0205
   11SAPS  C318 1460   4.448   4.257   8.221  0.3903 -0.6856 -0.2090
   11SAPS  H18X 1461   4.440   4.367   8.219  1.6682 -0.5991 -1.4310
   11SAPS  H18Y 1462   4.358   4.214   8.271  0.9674  0.9165  2.4012
   11SAPS  H18Z 1463   4.449   4.218   8.117 -1.3806 -0.3098 -0.4103
   12SAPS     N 1464   1.929   3.995   6.257 -0.5977  0.0714 -0.1360
   12SAPS   HN1 1465   1.929   4.097   6.280 -0.9020  0.4281 -1.6133
   12SAPS   HN2 1466   1.843   3.988   6.199 -0.2786  2.4422 -1.0209
   12SAPS   HN3 1467   1.913   3.938   6.343 -0.9150 -0.6398 -0.6578
   12SAPS   C12 1468   2.050   3.962   6.175 -0.1200 -0.1397 -0.8351
   12SAPS  H12A 1469   2.135   3.969   6.241  0.4353  1.2786 -1.6660
   12SAPS   C13 1470   2.051   3.813   6.132  0.1394 -0.1938  0.2031
   12SAPS  O13A 1471   1.953   3.748   6.178 -0.4229  0.0542  0.0821
   12SAPS  O13B 1472   2.147   3.751   6.076  0.2046 -0.3739  0.3389
   12SAPS   C11 1473   2.065   4.066   6.057 -0.0358  0.3442  0.2018
   12SAPS  H11A 1474   1.972   4.062   5.995 -0.2817 -0.6110  0.6181
   12SAPS  H11B 1475   2.155   4.032   6.002 -0.1927  0.6701 -0.2668
   12SAPS     P 1476   1.970   4.313   6.137 -0.1516 -0.0054  0.2903
   12SAPS   O13 1477   1.946   4.407   6.023  0.1989  0.3540 -0.2954
   12SAPS   O14 1478   1.854   4.238   6.179  0.5518  0.6843 -0.2692
   12SAPS   O12 1479   2.081   4.201   6.108  0.1217  0.2685 -0.0134
   12SAPS   O11 1480   2.030   4.391   6.257  0.5631 -0.5673  1.1426
   12SAPS    C1 1481   2.164   4.386   6.292 -0.2095 -0.2012  0.1508
   12SAPS    HA 1482   2.232   4.376   6.205 -2.5280 -1.2874 -1.6351
   12SAPS    HB 1483   2.194   4.478   6.347  0.5550 -1.6292  2.2461
   12SAPS    C2 1484   2.207   4.286   6.399  0.5277  0.3014  0.6819
   12SAPS    HS 1485   2.169   4.187   6.365 -1.5622  1.2457  0.1228
   12SAPS   O21 1486   2.138   4.323   6.521  0.0746 -0.1610  0.5085
   12SAPS   C21 1487   2.114   4.224   6.609  0.1799 -0.0810  0.1621
   12SAPS   O22 1488   2.131   4.106   6.588  0.2236 -0.0879  0.2828
   12SAPS   C22 1489   2.069   4.280   6.746  0.7178 -0.9297  0.0666
   12SAPS   H2R 1490   2.055   4.390   6.737  1.0168 -0.9091 -0.1699
   12SAPS   H2S 1491   1.965   4.242   6.750  1.1055 -1.9798  0.2672
   12SAPS    C3 1492   2.357   4.271   6.425 -0.2275  0.7634  0.0214
   12SAPS    HX 1493   2.404   4.271   6.324 -0.5587 -2.1687 -0.2263
   12SAPS    HY 1494   2.360   4.171   6.473  0.9615  0.7139 -0.1215
   12SAPS   O31 1495   2.421   4.367   6.513 -0.1769  0.1807  0.2295
   12SAPS   C31 1496   2.476   4.476   6.453 -0.6557 -0.0536 -0.1621
   12SAPS   O32 1497   2.486   4.491   6.331  0.4110  0.4170  0.5446
   12SAPS   C32 1498   2.528   4.573   6.555 -0.3716  0.5995  1.0370
   12SAPS   H2X 1499   2.584   4.503   6.620  0.3853 -0.0449 -0.2608
   12SAPS   H2Y 1500   2.441   4.616   6.608  0.3443  0.9776  1.9373
   12SAPS   C23 1501   2.161   4.243   6.863  0.0847  0.5419  0.5902
   12SAPS   H3R 1502   2.251   4.307   6.853  0.1472  0.2781 -0.7658
   12SAPS   H3S 1503   2.190   4.137   6.849  0.2672  0.6934 -0.2449
   12SAPS   C24 1504   2.086   4.269   6.994  0.8329  0.4009  0.8413
   12SAPS   H4R 1505   2.152   4.221   7.070  0.9699 -0.0068  0.4691
   12SAPS   H4S 1506   1.994   4.208   7.005  1.0502 -0.1974 -0.4687
   12SAPS   C25 1507   2.047   4.407   7.026 -0.0987  0.3724 -0.2529
   12SAPS   H5R 1508   1.999   4.463   6.945  2.4168  0.9087 -1.4746
   12SAPS   C26 1509   2.060   4.458   7.154 -0.2423 -0.7175 -0.3158
   12SAPS   H6R 1510   2.022   4.560   7.172  1.1720 -0.5450  2.1071
   12SAPS   C27 1511   2.117   4.396   7.280  0.7327  0.1748  1.4182
   12SAPS   H7R 1512   2.129   4.286   7.268 -2.0903 -0.1355  0.7297
   12SAPS   H7S 1513   2.053   4.405   7.370  1.3832 -0.8148  2.0115
   12SAPS   C28 1514   2.261   4.450   7.291  0.2322  0.9535  0.6390
   12SAPS   H8R 1515   2.301   4.515   7.213  4.2658 -0.2259  1.4675
   12SAPS   C29 1516   2.349   4.412   7.387 -0.0140 -0.1585 -0.3674
   12SAPS   H9R 1517   2.454   4.445   7.384 -0.1178  0.6086  2.0748
   12SAPS  C210 1518   2.315   4.320   7.505 -0.6469 -0.4839 -0.2891
   12SAPS  H10R 1519   2.231   4.251   7.485 -2.0302  0.3728  2.1163
   12SAPS  H10S 1520   2.280   4.389   7.585 -1.6706 -0.2080 -0.9608
   12SAPS  C211 1521   2.444   4.250   7.546 -0.0835  0.2386 -0.4755
   12SAPS  H11R 1522   2.488   4.195   7.461  0.4732 -0.0613 -0.0076
   12SAPS  C212 1523   2.501   4.262   7.662  0.3544 -0.0825  0.0799
   12SAPS  H12R 1524   2.574   4.181   7.681 -0.6606 -0.7370  1.3122
   12SAPS  C213 1525   2.459   4.335   7.785  0.7051  0.5496  0.3939
   12SAPS  H13R 1526   2.357   4.306   7.819  1.3607 -0.5952  1.5054
   12SAPS  H13S 1527   2.458   4.443   7.760 -0.1503  0.6007  0.6295
   12SAPS  C214 1528   2.567   4.316   7.883  0.6623 -0.2501 -0.5431
   12SAPS  H14R 1529   2.668   4.301   7.840  0.2757 -1.4454 -1.0857
   12SAPS  C215 1530   2.550   4.315   8.016 -0.4875  0.3925 -0.8599
   12SAPS  H15R 1531   2.633   4.295   8.085 -2.6308 -1.3012  1.4005
   12SAPS  C216 1532   2.421   4.349   8.089 -0.3397 -0.1292  0.2599
   12SAPS  H16R 1533   2.370   4.428   8.030  0.7047 -0.4616 -1.1241
   12SAPS  H16S 1534   2.431   4.410   8.181  1.6136 -0.9822  0.6577
   12SAPS  C217 1535   2.341   4.219   8.103 -0.0239 -0.6203 -0.5243
   12SAPS  H17R 1536   2.319   4.167   8.008  1.0252 -1.1085 -0.5084
   12SAPS  H17S 1537   2.246   4.257   8.147  0.0825 -0.8858 -0.0521
   12SAPS  C218 1538   2.381   4.135   8.221 -0.5756  0.1984 -0.0303
   12SAPS  H18R 1539   2.417   4.198   8.305  1.8694 -1.4011  0.2274
   12SAPS  H18S 1540   2.470   4.071   8.202 -1.5841 -0.9030 -1.2453
   12SAPS  C219 1541   2.272   4.029   8.259  0.5350  0.1140 -0.2445
   12SAPS  H19R 1542   2.242   3.981   8.164  1.0563  0.1722 -0.4456
   12SAPS  H19S 1543   2.183   4.083   8.298  0.5317  0.3042 -0.5131
   12SAPS  C220 1544   2.323   3.918   8.349  0.3463 -0.5663  0.6107
   12SAPS  H20R 1545   2.228   3.872   8.385  0.6509 -0.9224  0.9728
   12SAPS  H20S 1546   2.382   3.954   8.436  2.1655  0.5944 -1.0145
   12SAPS  H20T 1547   2.382   3.847   8.286  0.3736  1.6634 -2.0870
   12SAPS   C33 1548   2.620   4.669   6.478 -0.0836 -0.2910  0.6435
   12SAPS   H3X 1549   2.572   4.730   6.399  2.5932  2.5059  0.9855
   12SAPS   H3Y 1550   2.693   4.604   6.427 -1.7015 -3.1835  1.7713
   12SAPS   C34 1551   2.682   4.769   6.576 -0.1915 -0.6063  0.6754
   12SAPS   H4X 1552   2.609   4.851   6.596  1.3194  0.7828  0.7195
   12SAPS   H4Y 1553   2.770   4.812   6.524  1.8003 -1.3924  3.1708
   12SAPS   C35 1554   2.728   4.706   6.711 -0.4516 -0.3894  0.5464
   12SAPS   H5X 1555   2.801   4.623   6.696 -1.2399 -1.1643  0.9172
   12SAPS   H5Y 1556   2.636   4.666   6.758  0.3269 -0.5158  2.0437
   12SAPS   C36 1557   2.786   4.803   6.818  0.7366  0.3268 -0.1002
   12SAPS   H6X 1558   2.720   4.888   6.844 -0.5273 -0.5789 -0.2568
   12SAPS   H6Y 1559   2.873   4.842   6.761  0.0212 -0.7897 -2.0262
   12SAPS   C37 1560   2.811   4.730   6.953 -0.7617  0.0345  0.1903
   12SAPS   H7X 1561   2.861   4.807   7.015 -1.1491  0.4778 -0.0409
   12SAPS   H7Y 1562   2.871   4.638   6.938 -0.3382  0.2536  0.5233
   12SAPS   C38 1563   2.679   4.678   7.021  0.3352 -0.5248  0.1971
   12SAPS   H8X 1564   2.631   4.602   6.957 -1.4534 -0.2492  1.1616
   12SAPS   H8Y 1565   2.602   4.757   7.027 -1.7407 -2.3440 -1.0656
   12SAPS   C39 1566   2.703   4.627   7.165 -0.1041 -0.2893  0.0264
   12SAPS   H9X 1567   2.792   4.564   7.143  1.0877  0.9881  1.0335
   12SAPS   H9Y 1568   2.615   4.567   7.195 -1.9794  2.1745 -0.2683
   12SAPS  C310 1569   2.742   4.725   7.276  0.2709  0.2330 -0.8413
   12SAPS  H10X 1570   2.826   4.784   7.234  1.1088 -1.1983 -1.2360
   12SAPS  H10Y 1571   2.785   4.667   7.360 -0.1080 -1.6644 -1.9011
   12SAPS  C311 1572   2.617   4.800   7.331 -0.1530  0.5613  0.0720
   12SAPS  H11X 1573   2.534   4.732   7.364  2.1202 -2.4566  0.0013
   12SAPS  H11Y 1574   2.581   4.862   7.246  1.6157  1.4093 -0.0839
   12SAPS  C312 1575   2.648   4.894   7.446 -0.3185  0.0352  0.2535
   12SAPS  H12X 1576   2.556   4.957   7.458  0.0724  0.3639  1.7287
   12SAPS  H12Y 1577   2.731   4.964   7.423  0.5349 -1.4476 -1.3931
   12SAPS  C313 1578   2.693   4.822   7.577  0.4455 -0.0339 -0.4293
   12SAPS  H13X 1579   2.782   4.755   7.575  0.6092  0.1358  0.6874
   12SAPS  H13Y 1580   2.602   4.765   7.606  1.6246 -2.2144 -0.8194
   12SAPS  C314 1581   2.726   4.930   7.681 -0.0821  0.1924 -0.4665
   12SAPS  H14X 1582   2.626   4.950   7.725 -1.0987 -3.4977 -0.7057
   12SAPS  H14Y 1583   2.775   5.026   7.654 -1.4647  1.6018  1.6700
   12SAPS  C315 1584   2.807   4.861   7.795 -0.3241 -0.3618 -0.1840
   12SAPS  H15X 1585   2.913   4.845   7.765 -0.1913 -1.7891  0.9555
   12SAPS  H15Y 1586   2.759   4.762   7.811  0.1176 -0.2020  2.5733
   12SAPS  C316 1587   2.802   4.938   7.933  0.2288  0.9204  0.4865
   12SAPS  H16X 1588   2.705   4.992   7.943 -0.1265  0.5495 -0.8260
   12SAPS  H16Y 1589   2.887   5.010   7.933  2.0518 -1.1023  2.0494
   12SAPS  C317 1590   2.835   4.855   8.052 -0.9272  0.4252 -0.6758
   12SAPS  H17X 1591   2.944   4.842   8.040 -1.1579 -0.9027 -1.4706
   12SAPS  H17Y 1592   2.811   4.747   8.043  1.4298 -0.3939  1.6998
   12SAPS  C318 1593   2.789   4.892   8.189 -0.2797 -0.2379  0.5942
   12SAPS  H18X 1594   2.828   4.990   8.224 -0.1218  0.0700 -0.4138
   12SAPS  H18Y 1595   2.822   4.823   8.269  0.7266  0.3207  0.6751
   12SAPS  H18Z 1596   2.678   4.885   8.191 -0.2442 -0.7882  0.9445
   13SAPS     N 1597   3.950   2.904   6.078 -0.0753 -0.2540 -0.2459
   13SAPS   HN1 1598   3.851   2.871   6.078  0.7680 -3.2631  2.3899
   13SAPS   HN2 1599   3.995   2.825   6.128 -2.3133 -0.3708  1.7699
   13SAPS   HN3 1600   3.976   2.987   6.135 -0.6039 -1.8632  2.5145
   13SAPS   C12 1601   3.999   2.932   5.937  0.2558  0.0325  0.8853
   13SAPS  H12A 1602   3.994   2.837   5.887 -0.7080  0.6118 -0.1715
   13SAPS   C13 1603   3.928   3.040   5.850 -0.9802 -0.0053 -0.4462
   13SAPS  O13A 1604   3.873   3.136   5.911 -0.7617  0.2726 -0.1542
   13SAPS  O13B 1605   3.934   3.026   5.729 -0.1792 -0.6092  0.1646
   13SAPS   C11 1606   4.149   2.966   5.952 -0.3913  0.2346  0.1185
   13SAPS  H11A 1607   4.162   3.067   5.996 -4.4834  1.1760 -0.4506
   13SAPS  H11B 1608   4.182   2.959   5.846  1.0799  0.4764  0.5337
   13SAPS     P 1609   4.365   2.827   6.024  0.3264  0.3195 -0.1761
   13SAPS   O13 1610   4.383   2.690   5.978  0.4318  0.2383  0.6859
   13SAPS   O14 1611   4.445   2.937   5.962  0.0191 -0.1677 -0.1975
   13SAPS   O12 1612   4.212   2.859   6.030  0.1064  0.2596  0.5532
   13SAPS   O11 1613   4.398   2.815   6.178  0.1577 -0.2469 -0.1099
   13SAPS    C1 1614   4.378   2.926   6.266  1.2842  0.5032  0.1913
   13SAPS    HA 1615   4.417   3.021   6.224  1.4336  0.0828 -0.6366
   13SAPS    HB 1616   4.269   2.927   6.290  0.8565  0.6101 -1.6390
   13SAPS    C2 1617   4.452   2.905   6.396 -0.3322 -0.0511 -0.8428
   13SAPS    HS 1618   4.560   2.893   6.376  0.0155  1.5050 -0.0172
   13SAPS   O21 1619   4.405   2.785   6.461  1.0215  0.5674 -0.3690
   13SAPS   C21 1620   4.483   2.719   6.547  0.6502 -0.2915  0.5457
   13SAPS   O22 1621   4.602   2.745   6.565  0.5599 -0.2469  0.4749
   13SAPS   C22 1622   4.406   2.606   6.613 -0.6328  0.5645 -0.0323
   13SAPS   H2R 1623   4.323   2.652   6.670 -2.9336 -1.2590 -1.6820
   13SAPS   H2S 1624   4.355   2.551   6.531 -1.2550  0.8340  0.1694
   13SAPS    C3 1625   4.440   3.033   6.485  0.0115  0.0183 -0.4204
   13SAPS    HX 1626   4.333   3.029   6.518 -0.7303  0.3010 -2.6358
   13SAPS    HY 1627   4.447   3.123   6.421 -0.7639 -0.8789 -1.8387
   13SAPS   O31 1628   4.520   3.034   6.598  0.4302  0.2798  0.0542
   13SAPS   C31 1629   4.651   3.042   6.593  0.4127 -0.5549  0.1169
   13SAPS   O32 1630   4.716   3.058   6.493  0.0284  0.6633 -0.7475
   13SAPS   C32 1631   4.707   3.018   6.731 -0.7068 -0.5173 -0.4202
   13SAPS   H2X 1632   4.786   2.943   6.713  0.7882  0.9035 -0.0277
   13SAPS   H2Y 1633   4.636   2.977   6.806 -0.6823 -1.4990 -0.9214
   13SAPS   C23 1634   4.488   2.521   6.718 -0.1645  0.0635 -0.2995
   13SAPS   H3R 1635   4.546   2.593   6.780 -0.2375 -1.3754  1.5224
   13SAPS   H3S 1636   4.557   2.456   6.660 -0.2503 -0.1765 -0.1349
   13SAPS   C24 1637   4.387   2.434   6.801  0.0755  0.3835  0.8633
   13SAPS   H4R 1638   4.326   2.380   6.725  0.6887  0.0771  0.5801
   13SAPS   H4S 1639   4.323   2.496   6.866 -2.9726 -2.6157  1.0192
   13SAPS   C25 1640   4.466   2.346   6.887  0.1368 -0.6916  0.2473
   13SAPS   H5R 1641   4.565   2.320   6.847  1.1465  2.8184  0.1977
   13SAPS   C26 1642   4.422   2.311   7.010  0.2842 -0.0407 -0.0497
   13SAPS   H6R 1643   4.477   2.233   7.064  3.0559  2.1783  0.5900
   13SAPS   C27 1644   4.299   2.353   7.083  0.5939 -0.6726 -1.0174
   13SAPS   H7R 1645   4.273   2.278   7.161  0.9182 -0.9716 -1.1965
   13SAPS   H7S 1646   4.209   2.338   7.020 -0.6072 -0.1943  0.5261
   13SAPS   C28 1647   4.311   2.490   7.156 -0.6772  0.4518 -0.0956
   13SAPS   H8R 1648   4.375   2.566   7.109  2.1532 -0.3706  2.1102
   13SAPS   C29 1649   4.253   2.513   7.282 -0.0922 -0.1637  0.8210
   13SAPS   H9R 1650   4.258   2.619   7.309  1.2013 -0.1255  0.5095
   13SAPS  C210 1651   4.158   2.424   7.363 -0.2134  0.0315 -0.2573
   13SAPS  H10R 1652   4.190   2.390   7.464 -2.9681 -1.6199  0.1517
   13SAPS  H10S 1653   4.150   2.324   7.316  0.8699  0.4682 -1.3990
   13SAPS  C211 1654   4.018   2.477   7.355 -0.3527  0.0764 -0.4861
   13SAPS  H11R 1655   3.982   2.479   7.251  2.1687  0.0095 -1.4219
   13SAPS  C212 1656   3.934   2.507   7.446 -0.0717 -0.5690  0.4422
   13SAPS  H12R 1657   3.841   2.555   7.415  1.1041  0.5760 -1.5435
   13SAPS  C213 1658   3.962   2.501   7.600  0.5048 -0.1468  1.1866
   13SAPS  H13R 1659   4.030   2.415   7.619 -0.2280 -0.9763  0.2310
   13SAPS  H13S 1660   3.868   2.466   7.647  0.0629 -4.2913 -2.1563
   13SAPS  C214 1661   3.998   2.632   7.662  0.0554  0.4253  0.3496
   13SAPS  H14R 1662   3.914   2.695   7.693 -0.7740 -0.8851  0.8382
   13SAPS  C215 1663   4.116   2.668   7.708  0.4996 -0.8644  0.4119
   13SAPS  H15R 1664   4.128   2.767   7.754 -1.2568  0.1172 -1.0797
   13SAPS  C216 1665   4.249   2.600   7.711 -0.9844  0.6329  1.2940
   13SAPS  H16R 1666   4.318   2.651   7.641 -1.5418 -0.7783 -0.3610
   13SAPS  H16S 1667   4.248   2.499   7.663  2.3247  0.7793  0.6585
   13SAPS  C217 1668   4.301   2.590   7.860  0.2743 -0.4502  0.4659
   13SAPS  H17R 1669   4.239   2.521   7.921  1.1551  0.1582  2.1079
   13SAPS  H17S 1670   4.297   2.686   7.915 -0.3266 -1.3461  2.0396
   13SAPS  C218 1671   4.447   2.554   7.873 -0.0185 -0.2468 -0.0150
   13SAPS  H18R 1672   4.509   2.640   7.842 -1.9369  1.4097  0.5616
   13SAPS  H18S 1673   4.479   2.466   7.813  1.5231 -0.4183  0.9931
   13SAPS  C219 1674   4.484   2.514   8.022  0.0838  0.5483  0.7026
   13SAPS  H19R 1675   4.583   2.465   8.030 -0.1702 -0.3318 -1.0151
   13SAPS  H19S 1676   4.411   2.434   8.048 -0.4709  1.4214  1.9255
   13SAPS  C220 1677   4.480   2.617   8.125 -0.2623 -0.0248  0.1650
   13SAPS  H20R 1678   4.377   2.657   8.138 -0.7845 -1.8058  2.1284
   13SAPS  H20S 1679   4.557   2.691   8.095  1.2130 -2.1456 -1.6563
   13SAPS  H20T 1680   4.506   2.572   8.224 -4.8046  0.4146  1.8167
   13SAPS   C33 1681   4.795   3.133   6.782 -0.5723 -0.2563 -0.1112
   13SAPS   H3X 1682   4.822   3.202   6.699 -0.3274  1.5856  1.4391
   13SAPS   H3Y 1683   4.895   3.094   6.814 -1.3190  0.1049  2.9571
   13SAPS   C34 1684   4.727   3.190   6.909 -0.0620 -0.6680  0.1030
   13SAPS   H4X 1685   4.702   3.115   6.987 -2.4240  2.2862  2.4413
   13SAPS   H4Y 1686   4.640   3.249   6.874  0.1567  0.4341  1.3687
   13SAPS   C35 1687   4.818   3.286   6.981  0.5868  0.2594 -0.6656
   13SAPS   H5X 1688   4.885   3.341   6.911  1.6575  2.0993  1.6358
   13SAPS   H5Y 1689   4.880   3.225   7.050 -1.0117  0.4165  0.9885
   13SAPS   C36 1690   4.750   3.383   7.082  0.8391  0.4469 -0.0575
   13SAPS   H6X 1691   4.675   3.434   7.017 -0.8064 -0.1295  1.2948
   13SAPS   H6Y 1692   4.832   3.449   7.114  1.7839 -2.4156  4.3002
   13SAPS   C37 1693   4.675   3.324   7.202 -0.1520  0.0295 -0.3861
   13SAPS   H7X 1694   4.710   3.221   7.226 -1.3851 -0.3992 -0.3443
   13SAPS   H7Y 1695   4.565   3.326   7.186 -0.2858 -0.0533  0.4474
   13SAPS   C38 1696   4.699   3.410   7.331  0.2991 -0.1157  0.8283
   13SAPS   H8X 1697   4.659   3.512   7.312  2.4078  0.9159  1.6122
   13SAPS   H8Y 1698   4.810   3.412   7.337  0.2433  0.9710  2.0146
   13SAPS   C39 1699   4.643   3.364   7.474  0.0159  0.4994 -0.4730
   13SAPS   H9X 1700   4.664   3.255   7.479 -0.8760  0.3062 -0.6411
   13SAPS   H9Y 1701   4.534   3.360   7.453 -0.1048 -0.9743  0.3118
   13SAPS  C310 1702   4.687   3.448   7.597 -0.0716  0.1916  0.1496
   13SAPS  H10X 1703   4.668   3.554   7.570  1.5873  0.8425  1.3839
   13SAPS  H10Y 1704   4.794   3.439   7.626 -0.4580 -0.6374  1.4056
   13SAPS  C311 1705   4.618   3.422   7.726  1.0672  0.3089 -0.2224
   13SAPS  H11X 1706   4.648   3.324   7.769  0.0055 -0.4236 -1.0717
   13SAPS  H11Y 1707   4.508   3.433   7.710  1.2773  2.3023 -0.5258
   13SAPS  C312 1708   4.673   3.519   7.831 -0.2140  0.7273  0.9940
   13SAPS  H12X 1709   4.665   3.627   7.804 -1.9740  0.2342 -0.6990
   13SAPS  H12Y 1710   4.783   3.507   7.845 -0.3881  0.1452  1.9260
   13SAPS  C313 1711   4.609   3.506   7.971  1.2308 -0.3361 -0.2376
   13SAPS  H13X 1712   4.631   3.406   8.013 -2.5951 -1.3165 -0.1835
   13SAPS  H13Y 1713   4.498   3.509   7.968  1.0642  1.5636  2.8671
   13SAPS  C314 1714   4.664   3.606   8.071 -0.2238  0.2603  0.1695
   13SAPS  H14X 1715   4.624   3.705   8.039 -3.3340  0.4888  4.0689
   13SAPS  H14Y 1716   4.775   3.617   8.070 -0.3671  2.0996  1.0499
   13SAPS  C315 1717   4.596   3.605   8.215 -0.3877  0.7605  0.7223
   13SAPS  H15X 1718   4.569   3.499   8.234 -1.1415  1.1632  2.0004
   13SAPS  H15Y 1719   4.503   3.665   8.210  0.5277  2.2545  0.9852
   13SAPS  C316 1720   4.688   3.661   8.318 -0.1699  0.6641 -0.3042
   13SAPS  H16X 1721   4.777   3.594   8.311  0.4989  1.4568  0.3083
   13SAPS  H16Y 1722   4.639   3.656   8.418 -0.2653  1.1709 -0.3246
   13SAPS  C317 1723   4.721   3.810   8.296 -0.5727 -0.2212  0.0057
   13SAPS  H17X 1724   4.626   3.852   8.258 -0.7050 -1.7864 -1.5388
   13SAPS  H17Y 1725   4.798   3.828   8.218 -0.8741 -2.1115 -0.7896
   13SAPS  C318 1726   4.766   3.884   8.424  0.0188 -0.6155 -0.3815
   13SAPS  H18X 1727   4.788   3.992   8.409  2.4691 -0.9689  0.2133
   13SAPS  H18Y 1728   4.861   3.837   8.457  0.8645  0.1170 -1.6804
   13SAPS  H18Z 1729   4.699   3.891   8.512  2.1544  1.4462  1.1895
   14SAPS     N 1730   4.177   5.200   5.907  0.1317 -0.2284 -0.1053
   14SAPS   HN1 1731   4.187   5.293   5.951 -0.3098 -0.6506  0.9287
   14SAPS   HN2 1732   4.179   5.117   5.970 -0.4977 -0.4054 -0.3100
   14SAPS   HN3 1733   4.260   5.186   5.846 -0.0966 -2.8500  0.0646
   14SAPS   C12 1734   4.054   5.187   5.819  0.1683  0.5722  0.7597
   14SAPS  H12A 1735   4.031   5.293   5.815  0.6214  0.6380 -1.2937
   14SAPS   C13 1736   4.083   5.144   5.681  0.1317 -0.9128 -0.0894
   14SAPS  O13A 1737   4.206   5.127   5.647  0.7542 -0.2379  0.2908
   14SAPS  O13B 1738   3.992   5.136   5.597  0.4585 -0.0937 -0.1364
   14SAPS   C11 1739   3.945   5.087   5.880  0.1962 -0.1327  0.5221
   14SAPS  H11A 1740   3.996   4.989   5.885  0.0599 -0.1315  2.3823
   14SAPS  H11B 1741   3.862   5.073   5.808 -1.1047  0.0842  1.9291
   14SAPS     P 1742   3.756   5.188   6.033  0.2532  0.3081 -0.0857
   14SAPS   O13 1743   3.763   5.332   5.998  0.1980 -0.3692 -0.2251
   14SAPS   O14 1744   3.662   5.109   5.955  0.3328  0.0281  0.1390
   14SAPS   O12 1745   3.908   5.124   6.012  0.1169 -0.4522  0.0816
   14SAPS   O11 1746   3.739   5.171   6.185 -0.0024 -0.1109 -0.4114
   14SAPS    C1 1747   3.859   5.154   6.267  0.2965 -0.5676  0.6172
   14SAPS    HA 1748   3.904   5.054   6.252 -0.8517 -1.2111  1.3710
   14SAPS    HB 1749   3.927   5.239   6.244  0.6037 -0.9312  0.1650
   14SAPS    C2 1750   3.832   5.184   6.419  0.4990  0.0596 -0.4581
   14SAPS    HS 1751   3.928   5.196   6.474 -0.5639  2.6085  0.9908
   14SAPS   O21 1752   3.739   5.090   6.478 -0.0584  0.3610  0.3707
   14SAPS   C21 1753   3.797   4.979   6.523  1.0041  0.8844  0.3404
   14SAPS   O22 1754   3.918   4.957   6.535  0.6800 -0.3966  0.1731
   14SAPS   C22 1755   3.681   4.875   6.551 -0.1388 -0.1130 -0.2074
   14SAPS   H2R 1756   3.583   4.924   6.573 -1.3704 -2.4026 -0.2758
   14SAPS   H2S 1757   3.658   4.814   6.461  0.6102 -2.4130  1.0803
   14SAPS    C3 1758   3.778   5.331   6.422  0.6720  0.4189 -0.2011
   14SAPS    HX 1759   3.679   5.355   6.379  0.3106  0.7387  0.7662
   14SAPS    HY 1760   3.850   5.386   6.358 -1.0487  0.5863 -2.0519
   14SAPS   O31 1761   3.774   5.366   6.560  0.1266 -0.2529 -0.4729
   14SAPS   C31 1762   3.869   5.457   6.597 -0.2985 -0.1839  0.1059
   14SAPS   O32 1763   3.932   5.530   6.519 -0.2269 -0.3584  0.2226
   14SAPS   C32 1764   3.870   5.456   6.751 -0.1907  0.3819  0.4220
   14SAPS   H2X 1765   3.850   5.353   6.789 -0.7343 -0.5821 -2.2464
   14SAPS   H2Y 1766   3.783   5.518   6.780 -0.2474  0.8090 -0.6274
   14SAPS   C23 1767   3.731   4.776   6.666 -0.4494  0.8481  0.5062
   14SAPS   H3R 1768   3.824   4.732   6.625  0.1534  1.7713  0.8644
   14SAPS   H3S 1769   3.661   4.692   6.682 -0.9477  0.9398 -0.9872
   14SAPS   C24 1770   3.760   4.843   6.805 -0.3088 -0.6686 -0.1946
   14SAPS   H4R 1771   3.799   4.943   6.775  0.5318 -1.0043 -0.2422
   14SAPS   H4S 1772   3.841   4.788   6.857  0.1446  0.5792  0.4471
   14SAPS   C25 1773   3.637   4.843   6.897  0.4408 -0.1163 -0.2706
   14SAPS   H5R 1774   3.553   4.776   6.875  0.1149 -0.6583  2.3196
   14SAPS   C26 1775   3.612   4.938   6.990  0.5412 -0.8003  0.8158
   14SAPS   H6R 1776   3.510   4.949   7.032  0.6283  1.4337  0.5891
   14SAPS   C27 1777   3.714   5.039   7.023 -0.1976 -0.4331 -0.2108
   14SAPS   H7R 1778   3.818   5.012   6.995 -0.4472  0.4220 -2.1484
   14SAPS   H7S 1779   3.702   5.056   7.132  2.5306 -2.8397  0.5886
   14SAPS   C28 1780   3.690   5.164   6.950 -0.5730  0.1182  0.1031
   14SAPS   H8R 1781   3.735   5.158   6.850  1.0931 -2.5583  0.9004
   14SAPS   C29 1782   3.624   5.274   6.984  0.4231 -0.5357  0.0969
   14SAPS   H9R 1783   3.634   5.363   6.920 -0.6420 -1.3853 -1.3145
   14SAPS  C210 1784   3.551   5.292   7.113  0.0162 -0.1582 -0.0810
   14SAPS  H10R 1785   3.623   5.333   7.187  0.1664  0.2265 -0.4335
   14SAPS  H10S 1786   3.516   5.193   7.147 -0.8136 -0.1651 -0.9175
   14SAPS  C211 1787   3.435   5.394   7.115 -0.2995  0.3356  0.5882
   14SAPS  H11R 1788   3.450   5.477   7.044  1.5502  0.2201  0.8114
   14SAPS  C212 1789   3.320   5.376   7.191 -0.0622  0.2856 -1.0863
   14SAPS  H12R 1790   3.241   5.453   7.184 -1.2298 -0.8405 -0.7591
   14SAPS  C213 1791   3.274   5.260   7.281 -0.6237 -0.0881  1.1602
   14SAPS  H13R 1792   3.175   5.277   7.328 -1.0669 -0.7619  0.4962
   14SAPS  H13S 1793   3.346   5.250   7.366  2.6457  2.1890 -1.1113
   14SAPS  C214 1794   3.273   5.140   7.186 -0.3382 -0.8270 -0.7340
   14SAPS  H14R 1795   3.243   5.173   7.086 -0.7234  2.0309  0.2131
   14SAPS  C215 1796   3.293   5.012   7.221 -0.1081 -0.4844  0.2364
   14SAPS  H15R 1797   3.313   4.952   7.132 -1.2750 -0.3718 -0.1210
   14SAPS  C216 1798   3.325   4.964   7.356 -0.7231  0.0434 -0.1437
   14SAPS  H16R 1799   3.339   5.033   7.441  2.5602  1.2574 -1.5057
   14SAPS  H16S 1800   3.421   4.908   7.357 -0.3691  0.6358  1.6209
   14SAPS  C217 1801   3.223   4.854   7.392 -0.0189  0.4912 -0.4846
   14SAPS  H17R 1802   3.125   4.907   7.394  0.3610  1.2308  2.1549
   14SAPS  H17S 1803   3.260   4.824   7.492  1.9387  1.6038 -0.8251
   14SAPS  C218 1804   3.238   4.731   7.296 -0.2376 -0.3311 -0.4032
   14SAPS  H18R 1805   3.338   4.684   7.304  0.8929  2.2585  1.8790
   14SAPS  H18S 1806   3.228   4.762   7.189  2.3649 -0.8189 -0.8595
   14SAPS  C219 1807   3.130   4.628   7.337 -0.7987 -0.5708  0.4080
   14SAPS  H19R 1808   3.036   4.685   7.354 -0.3180  0.6649 -0.9058
   14SAPS  H19S 1809   3.145   4.599   7.443 -1.5635  1.2210  1.0465
   14SAPS  C220 1810   3.108   4.504   7.248  0.2765 -0.1091 -0.2664
   14SAPS  H20R 1811   3.025   4.440   7.287 -0.6047 -0.9265 -3.2216
   14SAPS  H20S 1812   3.196   4.438   7.229 -0.0557 -0.3769 -0.8937
   14SAPS  H20T 1813   3.077   4.528   7.144  1.2727 -1.5548 -0.9355
   14SAPS   C33 1814   3.995   5.518   6.821 -0.1762  0.6262  1.1232
   14SAPS   H3X 1815   3.998   5.624   6.788  2.7271 -0.4790 -3.0612
   14SAPS   H3Y 1816   4.094   5.475   6.797 -0.9286 -0.9454  0.6572
   14SAPS   C34 1817   3.964   5.522   6.967 -0.3826  0.0258 -0.3229
   14SAPS   H4X 1818   3.855   5.531   6.989  0.0516  1.3663  1.6261
   14SAPS   H4Y 1819   4.009   5.611   7.016 -0.5014 -1.5045  2.8143
   14SAPS   C35 1820   4.030   5.406   7.041 -0.0555 -0.1694 -0.1000
   14SAPS   H5X 1821   4.138   5.398   7.016 -0.0304  0.2275 -0.1248
   14SAPS   H5Y 1822   3.977   5.317   7.001 -0.2958 -1.3394  2.6044
   14SAPS   C36 1823   4.040   5.415   7.192  0.2909 -0.1683  0.0291
   14SAPS   H6X 1824   4.093   5.509   7.220 -0.9102  1.6942 -3.3068
   14SAPS   H6Y 1825   4.098   5.332   7.238  1.1440  1.8174  2.8071
   14SAPS   C37 1826   3.902   5.404   7.265 -0.3863  0.2907 -0.1429
   14SAPS   H7X 1827   3.845   5.318   7.225  0.8000 -0.5777 -0.0247
   14SAPS   H7Y 1828   3.843   5.497   7.254 -0.6713  0.6543  3.4084
   14SAPS   C38 1829   3.926   5.378   7.413  0.2012  0.2715  0.1044
   14SAPS   H8X 1830   3.994   5.459   7.447 -0.7275  1.1064  0.0149
   14SAPS   H8Y 1831   3.982   5.283   7.422 -0.4011 -0.1784 -0.7537
   14SAPS   C39 1832   3.798   5.395   7.499 -0.4683 -0.6353  0.1537
   14SAPS   H9X 1833   3.740   5.302   7.484  0.4669 -1.2551  0.2621
   14SAPS   H9Y 1834   3.747   5.487   7.465 -0.8409  0.1109  2.5195
   14SAPS  C310 1835   3.804   5.419   7.648  0.3792 -0.3262 -0.4451
   14SAPS  H10X 1836   3.871   5.507   7.658 -0.7688  0.5404 -0.1766
   14SAPS  H10Y 1837   3.841   5.332   7.707  0.2422 -1.0033 -1.3188
   14SAPS  C311 1838   3.669   5.451   7.701 -0.4582  0.3845 -0.0071
   14SAPS  H11X 1839   3.600   5.364   7.703 -3.1691  2.4563  0.5882
   14SAPS  H11Y 1840   3.620   5.522   7.632 -0.8506  0.4650  0.3517
   14SAPS  C312 1841   3.657   5.513   7.842 -0.2238 -0.7179  0.1391
   14SAPS  H12X 1842   3.555   5.556   7.846  0.5785  1.5984 -1.9650
   14SAPS  H12Y 1843   3.737   5.590   7.849  0.5036 -1.5401  1.5329
   14SAPS  C313 1844   3.664   5.417   7.961  0.0537 -0.4241 -0.0759
   14SAPS  H13X 1845   3.753   5.351   7.956  0.8165  0.4537  1.3625
   14SAPS  H13Y 1846   3.575   5.351   7.975  0.5933 -0.5579  3.7836
   14SAPS  C314 1847   3.668   5.490   8.093 -1.0313  0.3144 -0.0434
   14SAPS  H14X 1848   3.577   5.554   8.098 -0.7992  0.6712 -0.4011
   14SAPS  H14Y 1849   3.747   5.567   8.089 -2.0148  1.3830  0.3412
   14SAPS  C315 1850   3.670   5.389   8.209  0.2151  0.0481 -0.4063
   14SAPS  H15X 1851   3.587   5.320   8.180 -1.4376  0.1624  3.4738
   14SAPS  H15Y 1852   3.656   5.435   8.309  0.4134 -0.1764 -0.2752
   14SAPS  C316 1853   3.799   5.295   8.223 -0.4006 -0.4766  0.7364
   14SAPS  H16X 1854   3.876   5.364   8.264 -0.5686  1.1056 -1.4615
   14SAPS  H16Y 1855   3.830   5.258   8.123  0.5217  0.2484  0.7454
   14SAPS  C317 1856   3.786   5.186   8.334 -0.2974 -0.2997  0.2844
   14SAPS  H17X 1857   3.702   5.114   8.320 -0.0997 -0.6748  0.9917
   14SAPS  H17Y 1858   3.763   5.237   8.430 -2.9600 -1.1746  0.1944
   14SAPS  C318 1859   3.912   5.109   8.352 -0.5529  0.1475 -0.1350
   14SAPS  H18X 1860   3.908   5.060   8.452 -3.1649 -0.7508 -0.6082
   14SAPS  H18Y 1861   4.001   5.176   8.349 -0.1202 -0.4514 -1.3775
   14SAPS  H18Z 1862   3.931   5.029   8.278  1.5476 -0.4500  0.9635
   15SAPS     N 1863   3.707   3.613   5.961  0.5281  0.0158 -0.0461
   15SAPS   HN1 1864   3.625   3.621   5.898  0.2971 -0.3900  0.2036
   15SAPS   HN2 1865   3.757   3.523   5.944  2.9328  0.8156  2.0914
   15SAPS   HN3 1866   3.661   3.597   6.053  0.8821 -2.8774 -0.3056
   15SAPS   C12 1867   3.799   3.722   5.954 -0.0166 -0.7206 -0.6867
   15SAPS  H12A 1868   3.884   3.695   6.015 -1.0182 -0.3690  0.9391
   15SAPS   C13 1869   3.863   3.753   5.816  0.1539  0.6421  0.3995
   15SAPS  O13A 1870   3.838   3.686   5.713  0.5560  0.0227  0.3960
   15SAPS  O13B 1871   3.937   3.854   5.808  0.0844 -0.0296 -1.0792
   15SAPS   C11 1872   3.718   3.855   6.004 -0.2192  0.2104  0.2576
   15SAPS  H11A 1873   3.787   3.943   5.997 -0.0658  0.4667  3.3724
   15SAPS  H11B 1874   3.694   3.827   6.109  0.6484  0.5584  0.5650
   15SAPS     P 1875   3.546   4.029   5.918 -0.0764 -0.3945 -0.1568
   15SAPS   O13 1876   3.636   4.119   5.838  0.3292  0.2376  0.5819
   15SAPS   O14 1877   3.404   4.017   5.880  0.4529  0.1632  0.6646
   15SAPS   O12 1878   3.607   3.882   5.918  0.3148 -0.4266  0.0115
   15SAPS   O11 1879   3.554   4.071   6.074 -0.0358  0.2025  0.1429
   15SAPS    C1 1880   3.469   3.984   6.159 -0.0836  0.8814  0.0525
   15SAPS    HA 1881   3.438   3.886   6.115  1.1132  0.6699 -0.3492
   15SAPS    HB 1882   3.533   3.972   6.248  0.8909 -0.9897 -0.8413
   15SAPS    C2 1883   3.342   4.061   6.200 -0.0319 -0.0265 -0.3552
   15SAPS    HS 1884   3.272   4.079   6.116 -0.9887  0.6280  0.5460
   15SAPS   O21 1885   3.382   4.184   6.272 -0.2814  0.2819  0.0626
   15SAPS   C21 1886   3.301   4.293   6.269 -0.0615  0.8338  0.1315
   15SAPS   O22 1887   3.199   4.301   6.207  0.2025 -0.3985  0.4228
   15SAPS   C22 1888   3.372   4.402   6.347  0.3240  0.2593  0.0860
   15SAPS   H2R 1889   3.481   4.385   6.363  0.1107 -2.0414 -0.6486
   15SAPS   H2S 1890   3.352   4.497   6.293 -0.6537 -0.1721 -0.3288
   15SAPS    C3 1891   3.273   3.973   6.315 -0.5114 -0.7077 -0.0609
   15SAPS    HX 1892   3.360   3.932   6.370 -0.2610 -2.5545 -1.7133
   15SAPS    HY 1893   3.224   3.885   6.268 -0.8957 -1.0990  1.0487
   15SAPS   O31 1894   3.183   4.044   6.397 -0.6088  0.3878 -0.0236
   15SAPS   C31 1895   3.057   4.043   6.364 -0.0475  0.2813 -0.9250
   15SAPS   O32 1896   2.999   3.977   6.282  0.6788 -0.5638  0.1545
   15SAPS   C32 1897   2.986   4.160   6.435 -0.2214 -0.9467  0.0407
   15SAPS   H2X 1898   2.931   4.211   6.353  0.2972  1.1610  0.9434
   15SAPS   H2Y 1899   3.056   4.232   6.482  0.9216 -1.8091 -0.3026
   15SAPS   C23 1900   3.299   4.441   6.479 -0.1793  0.0082 -0.5731
   15SAPS   H3R 1901   3.198   4.479   6.452  0.4747  2.7212  0.3974
   15SAPS   H3S 1902   3.361   4.530   6.504 -0.3274 -0.3138  1.0889
   15SAPS   C24 1903   3.302   4.349   6.602 -0.0154 -0.7135 -0.9219
   15SAPS   H4R 1904   3.403   4.373   6.641 -0.8608  2.6446 -0.4984
   15SAPS   H4S 1905   3.296   4.248   6.557 -2.6930 -1.8109  1.6245
   15SAPS   C25 1906   3.189   4.373   6.708 -0.6598  0.1651  0.4097
   15SAPS   H5R 1907   3.093   4.323   6.692 -1.0276  1.4651 -1.7700
   15SAPS   C26 1908   3.187   4.469   6.796 -0.7243  0.3186  0.2151
   15SAPS   H6R 1909   3.101   4.468   6.864 -0.8617  0.2655  0.0431
   15SAPS   C27 1910   3.291   4.568   6.831 -0.6231 -0.3036 -0.6907
   15SAPS   H7R 1911   3.372   4.562   6.755 -0.4353 -1.4136 -0.4199
   15SAPS   H7S 1912   3.326   4.531   6.929 -2.1098  0.1422  0.0367
   15SAPS   C28 1913   3.248   4.704   6.858  0.5724 -0.4573  0.0921
   15SAPS   H8R 1914   3.213   4.728   6.959  0.4792  0.4131 -0.1373
   15SAPS   C29 1915   3.247   4.810   6.772 -1.0084  0.4458 -0.4941
   15SAPS   H9R 1916   3.216   4.908   6.809 -1.7515  0.0804 -0.1213
   15SAPS  C210 1917   3.304   4.796   6.634  0.0346  0.0504  0.4518
   15SAPS  H10R 1918   3.247   4.712   6.589  1.3239 -0.6363  0.0431
   15SAPS  H10S 1919   3.410   4.763   6.643  0.5406  1.5565  0.1986
   15SAPS  C211 1920   3.279   4.916   6.541 -0.2528  0.9791  0.4948
   15SAPS  H11R 1921   3.243   4.877   6.444  1.9621 -2.1901  0.8069
   15SAPS  C212 1922   3.323   5.040   6.551 -0.1085  0.2061 -0.3900
   15SAPS  H12R 1923   3.301   5.108   6.468 -0.6048  1.1210  0.4821
   15SAPS  C213 1924   3.393   5.099   6.664 -1.1272 -0.7289 -0.1578
   15SAPS  H13R 1925   3.481   5.150   6.619 -2.5380  1.5583 -0.4595
   15SAPS  H13S 1926   3.443   5.025   6.731 -0.7748  0.8753  1.4211
   15SAPS  C214 1927   3.318   5.203   6.743 -0.3657  0.0240  0.5428
   15SAPS  H14R 1928   3.253   5.165   6.823  0.4306 -0.3740  1.0159
   15SAPS  C215 1929   3.328   5.339   6.744 -0.6722  0.0218  0.0677
   15SAPS  H15R 1930   3.264   5.400   6.809 -1.5139 -0.2354 -0.4954
   15SAPS  C216 1931   3.426   5.419   6.662  0.1345  0.0927 -0.4436
   15SAPS  H16R 1932   3.490   5.350   6.604 -1.8833 -2.8903  0.6277
   15SAPS  H16S 1933   3.497   5.479   6.723  2.2291 -0.0148 -2.6392
   15SAPS  C217 1934   3.366   5.515   6.560 -0.8005 -0.5363 -0.3314
   15SAPS  H17R 1935   3.447   5.565   6.503  0.7977 -2.4594  0.1509
   15SAPS  H17S 1936   3.298   5.581   6.618  1.5387  1.4340  0.3059
   15SAPS  C218 1937   3.281   5.450   6.443 -0.3479 -0.1080 -0.0527
   15SAPS  H18R 1938   3.240   5.533   6.382 -0.4584  0.3442  0.6177
   15SAPS  H18S 1939   3.189   5.404   6.485  0.1175 -0.3398  0.7320
   15SAPS  C219 1940   3.363   5.368   6.345 -0.1973 -0.0784 -0.8867
   15SAPS  H19R 1941   3.418   5.289   6.402 -0.7198  1.0291  1.2500
   15SAPS  H19S 1942   3.448   5.432   6.311  0.0094 -0.0409 -0.3188
   15SAPS  C220 1943   3.298   5.300   6.227  0.2132 -0.5127  0.2354
   15SAPS  H20R 1944   3.373   5.240   6.172  1.4552  0.8241  0.4097
   15SAPS  H20S 1945   3.254   5.371   6.154 -1.0297 -1.9590 -0.4682
   15SAPS  H20T 1946   3.223   5.230   6.269  0.6149  0.2774  2.4013
   15SAPS   C33 1947   2.887   4.111   6.541 -0.4384  0.4467 -0.3938
   15SAPS   H3X 1948   2.943   4.062   6.624 -0.4874  3.0033  1.2870
   15SAPS   H3Y 1949   2.830   4.030   6.492  1.9826 -0.2423 -2.2969
   15SAPS   C34 1950   2.804   4.220   6.605  0.2617  1.0947 -0.8273
   15SAPS   H4X 1951   2.743   4.266   6.525 -2.0828 -1.0546 -0.4299
   15SAPS   H4Y 1952   2.874   4.297   6.642 -1.6377  1.2001  3.0457
   15SAPS   C35 1953   2.732   4.156   6.721  0.0614 -1.1824 -1.0165
   15SAPS   H5X 1954   2.813   4.140   6.795  1.4461  0.9694 -1.9548
   15SAPS   H5Y 1955   2.680   4.063   6.688 -0.5657 -1.1612 -0.1324
   15SAPS   C36 1956   2.643   4.261   6.796 -0.1212  0.3907  0.8346
   15SAPS   H6X 1957   2.555   4.272   6.729 -0.7493 -1.2019  1.3316
   15SAPS   H6Y 1958   2.689   4.362   6.801 -0.2225  0.6627 -1.9700
   15SAPS   C37 1959   2.588   4.224   6.935  0.3957  0.3890 -0.0562
   15SAPS   H7X 1960   2.535   4.128   6.920  1.3391 -0.2360  0.5829
   15SAPS   H7Y 1961   2.514   4.301   6.965 -1.0331 -0.8563 -0.3028
   15SAPS   C38 1962   2.694   4.223   7.041 -0.0731  0.4615 -0.1804
   15SAPS   H8X 1963   2.751   4.317   7.052  1.5349 -0.3800 -0.9134
   15SAPS   H8Y 1964   2.759   4.135   7.021 -0.2670 -0.7574  3.6650
   15SAPS   C39 1965   2.627   4.184   7.176 -0.8711 -0.2723 -0.2793
   15SAPS   H9X 1966   2.541   4.115   7.158  1.0263 -2.3486 -1.9033
   15SAPS   H9Y 1967   2.601   4.277   7.231  0.9882  0.9490 -1.3913
   15SAPS  C310 1968   2.722   4.120   7.271 -0.2740 -0.7178  0.3172
   15SAPS  H10X 1969   2.775   4.041   7.215 -0.2441 -0.6382  0.2324
   15SAPS  H10Y 1970   2.657   4.083   7.353  0.3437  1.6174  1.9803
   15SAPS  C311 1971   2.826   4.216   7.336  0.9798 -0.5283  0.3470
   15SAPS  H11X 1972   2.771   4.307   7.371  0.4246  0.0732 -1.9179
   15SAPS  H11Y 1973   2.892   4.241   7.250  0.9762 -1.1348  0.1614
   15SAPS  C312 1974   2.910   4.158   7.452  0.0994 -0.2164 -0.6324
   15SAPS  H12X 1975   2.972   4.078   7.408  1.1617  1.0303 -1.4879
   15SAPS  H12Y 1976   2.833   4.123   7.524  1.0648 -0.4324  0.3032
   15SAPS  C313 1977   2.994   4.259   7.536  0.4127 -0.5543 -0.2465
   15SAPS  H13X 1978   3.069   4.314   7.475  0.5603  1.0841  1.3331
   15SAPS  H13Y 1979   3.052   4.207   7.614 -0.7342  0.1543  1.1140
   15SAPS  C314 1980   2.906   4.353   7.619 -0.0737 -0.3371 -0.3024
   15SAPS  H14X 1981   2.840   4.296   7.688 -1.4547  2.6029  0.9687
   15SAPS  H14Y 1982   2.838   4.405   7.548  0.8120  0.7231 -0.3950
   15SAPS  C315 1983   2.980   4.463   7.693  0.7963 -0.9556 -0.1295
   15SAPS  H15X 1984   2.893   4.532   7.701 -0.0309 -2.0476  0.4890
   15SAPS  H15Y 1985   3.058   4.515   7.634  0.0371 -0.1742 -0.4743
   15SAPS  C316 1986   3.024   4.430   7.830 -0.0694  0.7484  0.2714
   15SAPS  H16X 1987   3.107   4.358   7.812  0.6710  1.6165  0.1202
   15SAPS  H16Y 1988   2.944   4.373   7.883  0.0686 -0.1854 -0.4917
   15SAPS  C317 1989   3.090   4.532   7.919  0.0161 -0.0935  0.4937
   15SAPS  H17X 1990   3.150   4.481   7.997  1.3950  0.5284 -0.1354
   15SAPS  H17Y 1991   3.009   4.581   7.977  1.1203  1.2097  0.9844
   15SAPS  C318 1992   3.185   4.628   7.851 -0.1505 -0.0363 -0.0700
   15SAPS  H18X 1993   3.130   4.713   7.804  1.8574  1.0841 -0.4948
   15SAPS  H18Y 1994   3.250   4.588   7.770  0.8470  1.4599 -0.0454
   15SAPS  H18Z 1995   3.257   4.674   7.922  0.8378 -0.1076 -0.9952
   16SAPS     N 1996   4.314   5.718   6.084 -0.7565 -0.5580  0.5763
   16SAPS   HN1 1997   4.358   5.724   5.990 -0.1527 -0.5982  0.8501
   16SAPS   HN2 1998   4.213   5.730   6.065 -0.4092 -1.8800 -2.5801
   16SAPS   HN3 1999   4.349   5.796   6.144 -0.8098 -0.6190  0.6872
   16SAPS   C12 2000   4.346   5.598   6.153  0.8428  0.0256 -0.5008
   16SAPS  H12A 2001   4.283   5.606   6.240  1.2623  3.3533 -0.3522
   16SAPS   C13 2002   4.297   5.463   6.080  0.3498 -0.3805 -0.2963
   16SAPS  O13A 2003   4.241   5.470   5.971  0.2427  0.1755 -0.3162
   16SAPS  O13B 2004   4.339   5.355   6.127 -0.0621 -0.0458 -0.2070
   16SAPS   C11 2005   4.492   5.589   6.204 -0.6268 -0.6064  0.4226
   16SAPS  H11A 2006   4.568   5.573   6.125 -0.9174  0.9680 -0.2148
   16SAPS  H11B 2007   4.492   5.500   6.271  1.6755 -0.1443  1.1238
   16SAPS     P 2008   4.684   5.751   6.299 -0.0368 -0.2293  0.3277
   16SAPS   O13 2009   4.768   5.629   6.298 -0.0332 -0.0985  0.0913
   16SAPS   O14 2010   4.719   5.857   6.204 -0.0596 -0.1152  0.2468
   16SAPS   O12 2011   4.533   5.710   6.278  0.0224  0.7066 -0.3013
   16SAPS   O11 2012   4.680   5.813   6.441  0.0986 -0.3993  0.2618
   16SAPS    C1 2013   4.575   5.898   6.485  0.1532 -0.0885 -0.5473
   16SAPS    HA 2014   4.595   6.004   6.458 -1.0383 -0.0435 -1.3235
   16SAPS    HB 2015   4.479   5.869   6.438  0.2848  0.5492 -1.2374
   16SAPS    C2 2016   4.565   5.887   6.645 -0.0802 -0.5784  0.7046
   16SAPS    HS 2017   4.666   5.915   6.681  0.4476 -0.4669 -0.7638
   16SAPS   O21 2018   4.530   5.758   6.680 -0.9684  0.9096 -0.1559
   16SAPS   C21 2019   4.562   5.714   6.805 -0.4884 -0.6944  0.1335
   16SAPS   O22 2020   4.614   5.786   6.889 -0.3271  0.3109  0.2875
   16SAPS   C22 2021   4.538   5.565   6.826  0.3840  0.3050  0.2072
   16SAPS   H2R 2022   4.524   5.536   6.720 -2.4858  2.0093  0.0256
   16SAPS   H2S 2023   4.637   5.524   6.855 -0.4026 -2.9701 -1.2327
   16SAPS    C3 2024   4.462   6.000   6.695 -0.2943  0.6400  0.5264
   16SAPS    HX 2025   4.362   5.990   6.649 -0.1236 -0.7535  0.4298
   16SAPS    HY 2026   4.505   6.095   6.655 -1.4045  0.7141 -0.5441
   16SAPS   O31 2027   4.449   6.009   6.837  0.0552 -0.5924 -0.3417
   16SAPS   C31 2028   4.346   5.947   6.892 -0.7312  0.3219  0.9942
   16SAPS   O32 2029   4.272   5.875   6.824  0.2127 -0.1628  0.0192
   16SAPS   C32 2030   4.370   5.937   7.039  0.2799  0.4982 -0.2305
   16SAPS   H2X 2031   4.394   6.037   7.082 -0.7700  0.4218  0.5635
   16SAPS   H2Y 2032   4.456   5.877   7.076  0.1139  1.2640  1.5133
   16SAPS   C23 2033   4.411   5.539   6.920  0.1889 -0.0616  0.4481
   16SAPS   H3R 2034   4.364   5.439   6.903 -0.1498 -0.0734  1.3887
   16SAPS   H3S 2035   4.329   5.599   6.874  1.7062  0.6089 -1.4862
   16SAPS   C24 2036   4.432   5.554   7.069 -0.1512 -0.2476  0.0686
   16SAPS   H4R 2037   4.328   5.544   7.105 -0.6807  0.1815 -1.2871
   16SAPS   H4S 2038   4.470   5.659   7.077 -2.0049  0.4133  0.6503
   16SAPS   C25 2039   4.536   5.459   7.117 -0.6604  0.1353 -0.8985
   16SAPS   H5R 2040   4.590   5.416   7.032  1.1000 -0.0649  0.2768
   16SAPS   C26 2041   4.551   5.415   7.247 -0.0126 -0.5674  1.0500
   16SAPS   H6R 2042   4.631   5.345   7.272 -0.2130 -1.0133  0.4645
   16SAPS   C27 2043   4.469   5.470   7.366  0.6311  0.6866 -0.1764
   16SAPS   H7R 2044   4.413   5.564   7.348  1.3100  0.9082 -1.3023
   16SAPS   H7S 2045   4.534   5.490   7.453 -2.1815  0.9820  1.9840
   16SAPS   C28 2046   4.369   5.363   7.407 -0.2268 -0.6266  0.3874
   16SAPS   H8R 2047   4.337   5.288   7.334 -0.6347  0.2349 -0.3331
   16SAPS   C29 2048   4.308   5.361   7.524  0.3211  0.3497 -0.2501
   16SAPS   H9R 2049   4.230   5.285   7.538  0.8282 -0.9823 -3.6688
   16SAPS  C210 2050   4.330   5.452   7.642 -0.7140 -0.1983  0.5320
   16SAPS  H10R 2051   4.367   5.548   7.600 -0.5023  0.2297  1.6878
   16SAPS  H10S 2052   4.401   5.410   7.715  1.0134  2.5871  0.6134
   16SAPS  C211 2053   4.205   5.487   7.720 -0.8644  0.6037  0.5449
   16SAPS  H11R 2054   4.123   5.514   7.651 -1.3215 -2.2558 -0.1570
   16SAPS  C212 2055   4.206   5.507   7.855  0.0093  0.0883 -0.6794
   16SAPS  H12R 2056   4.115   5.543   7.905 -0.5191 -0.2559 -1.3733
   16SAPS  C213 2057   4.323   5.479   7.950  0.2551 -0.4951  0.2808
   16SAPS  H13R 2058   4.418   5.526   7.917 -0.5973  0.9386 -0.2152
   16SAPS  H13S 2059   4.346   5.371   7.964 -0.0150 -0.3568  2.0666
   16SAPS  C214 2060   4.306   5.544   8.087 -0.5994 -0.0095 -0.2792
   16SAPS  H14R 2061   4.340   5.648   8.102 -0.6466 -0.0691  0.2528
   16SAPS  C215 2062   4.243   5.469   8.185  0.3018 -0.4629  0.2995
   16SAPS  H15R 2063   4.246   5.507   8.288  0.2602  2.4764 -0.6932
   16SAPS  C216 2064   4.194   5.325   8.164 -0.1817 -0.5111 -0.3130
   16SAPS  H16R 2065   4.165   5.309   8.058 -0.7446 -0.9341 -0.1054
   16SAPS  H16S 2066   4.107   5.301   8.229 -1.5034  2.1233 -0.9483
   16SAPS  C217 2067   4.309   5.222   8.184 -0.5613 -0.4839  0.6752
   16SAPS  H17R 2068   4.400   5.264   8.135  1.1526 -2.8688  1.6498
   16SAPS  H17S 2069   4.286   5.131   8.126 -0.1280 -0.6883  0.8211
   16SAPS  C218 2070   4.349   5.181   8.325 -0.0630  0.4190  0.4847
   16SAPS  H18R 2071   4.261   5.161   8.390 -0.0055 -2.8556 -0.2482
   16SAPS  H18S 2072   4.408   5.258   8.378 -1.3490  3.7340 -2.4912
   16SAPS  C219 2073   4.449   5.060   8.326 -0.0500 -0.3228  0.2905
   16SAPS  H19R 2074   4.533   5.079   8.256 -0.5002 -1.5436 -0.6179
   16SAPS  H19S 2075   4.384   4.978   8.287 -0.1789  0.4225 -1.1553
   16SAPS  C220 2076   4.495   5.039   8.472  0.5353  1.1042  0.5257
   16SAPS  H20R 2077   4.558   4.949   8.481 -0.3433  0.2811 -1.0365
   16SAPS  H20S 2078   4.402   5.025   8.532 -0.1152 -2.2264 -1.0249
   16SAPS  H20T 2079   4.554   5.129   8.500  2.1029  0.7454 -1.4467
   16SAPS   C33 2080   4.254   5.868   7.109  0.9953 -0.3306 -0.8860
   16SAPS   H3X 2081   4.254   5.760   7.086 -0.8155 -0.0976 -2.2234
   16SAPS   H3Y 2082   4.151   5.901   7.082  0.9644  0.0280 -0.3584
   16SAPS   C34 2083   4.269   5.887   7.263  0.0023  0.5223 -0.2807
   16SAPS   H4X 2084   4.285   5.997   7.274 -0.2942  0.5746 -0.3521
   16SAPS   H4Y 2085   4.364   5.840   7.295 -1.1208 -1.0758  0.8995
   16SAPS   C35 2086   4.146   5.857   7.348  0.5172  0.5845 -0.2277
   16SAPS   H5X 2087   4.094   5.765   7.314  0.1330  0.4948  0.6052
   16SAPS   H5Y 2088   4.065   5.933   7.343 -0.0158 -0.0152 -0.8365
   16SAPS   C36 2089   4.176   5.843   7.503  0.1320  0.9724  0.0529
   16SAPS   H6X 2090   4.241   5.928   7.533  1.1278  0.2617 -0.0461
   16SAPS   H6Y 2091   4.244   5.758   7.519 -0.6493  0.3590  0.1695
   16SAPS   C37 2092   4.049   5.837   7.593  0.3534 -0.0683  0.1185
   16SAPS   H7X 2093   3.988   5.747   7.571 -0.3581  0.5293 -0.4052
   16SAPS   H7Y 2094   3.989   5.925   7.562  1.9312  0.9643 -0.1046
   16SAPS   C38 2095   4.079   5.850   7.745 -0.0814  0.2896  0.9219
   16SAPS   H8X 2096   4.155   5.931   7.750  1.1324 -0.5671 -1.6073
   16SAPS   H8Y 2097   4.130   5.763   7.791  0.6256 -1.0384 -2.0817
   16SAPS   C39 2098   3.953   5.903   7.815  0.1572  0.4168 -0.5883
   16SAPS   H9X 2099   3.868   5.832   7.807  0.2559  0.1213  0.7761
   16SAPS   H9Y 2100   3.941   6.002   7.766  1.8002  0.0734 -1.7694
   16SAPS  C310 2101   3.978   5.922   7.967 -0.3895 -0.7351  0.0529
   16SAPS  H10X 2102   3.901   5.988   8.011 -0.0760  0.5595 -1.2657
   16SAPS  H10Y 2103   4.067   5.984   7.990 -1.0081  0.5009 -0.7683
   16SAPS  C311 2104   3.978   5.790   8.051 -0.1350  0.3677  0.6673
   16SAPS  H11X 2105   4.054   5.715   8.022 -0.7492 -0.1908  0.4591
   16SAPS  H11Y 2106   3.885   5.734   8.026  1.9087 -2.0515 -2.1286
   16SAPS  C312 2107   3.974   5.823   8.195  0.2963 -0.3305  0.1430
   16SAPS  H12X 2108   3.903   5.908   8.198  0.1948 -0.4389  1.1420
   16SAPS  H12Y 2109   4.066   5.872   8.232 -0.6879  1.0436  0.8651
   16SAPS  C313 2110   3.934   5.706   8.290  0.4767 -0.3953  0.1906
   16SAPS  H13X 2111   3.991   5.611   8.276  1.6222  0.0694  1.4212
   16SAPS  H13Y 2112   3.831   5.681   8.258  1.0645 -0.6396 -1.6327
   16SAPS  C314 2113   3.927   5.747   8.439 -0.2244 -0.2700  0.6860
   16SAPS  H14X 2114   3.860   5.835   8.444  1.7747  1.2866  1.5918
   16SAPS  H14Y 2115   4.021   5.792   8.478 -1.3818  1.0148  2.0970
   16SAPS  C315 2116   3.872   5.640   8.534 -0.2202  0.0862  0.2369
   16SAPS  H15X 2117   3.777   5.599   8.494  0.0515 -1.5935  1.1840
   16SAPS  H15Y 2118   3.861   5.679   8.637 -0.6819  0.1818  0.1526
   16SAPS  C316 2119   3.962   5.513   8.544  0.6755 -0.1366  0.6848
   16SAPS  H16X 2120   3.960   5.453   8.450 -0.6813 -1.6015  1.5901
   16SAPS  H16Y 2121   3.901   5.447   8.609  0.4843 -2.0105 -1.2441
   16SAPS  C317 2122   4.094   5.546   8.615 -0.3027  0.5853  0.1094
   16SAPS  H17X 2123   4.071   5.612   8.702 -1.3867  1.8275 -1.0720
   16SAPS  H17Y 2124   4.166   5.605   8.556  1.4816 -0.4127  1.2086
   16SAPS  C318 2125   4.174   5.421   8.649  0.0137  0.3164  0.1826
   16SAPS  H18X 2126   4.120   5.376   8.735  1.3454 -1.4084  0.1787
   16SAPS  H18Y 2127   4.281   5.443   8.670  1.0068 -4.0222  0.5308
   16SAPS  H18Z 2128   4.171   5.349   8.565  1.2710  0.8847 -0.3786
   17SAPC     N 2129   5.997   1.775  10.752  0.6010 -0.3985  1.1354
   17SAPC   C12 2130   6.040   1.740  10.613 -0.1965 -0.5442  0.1370
   17SAPC  H12A 2131   6.126   1.676  10.608  0.8480  0.8864 -1.0204
   17SAPC  H12B 2132   6.069   1.833  10.567  1.1735 -0.9875  0.0863
   17SAPC   C13 2133   6.096   1.875  10.814 -0.0143  0.2130 -0.0727
   17SAPC  H13A 2134   6.053   1.918  10.903  0.3385 -2.5177  1.5172
   17SAPC  H13B 2135   6.188   1.819  10.827  0.1825  0.5286 -0.0829
   17SAPC  H13C 2136   6.130   1.961  10.756  0.6142  1.1096  1.5509
   17SAPC   C14 2137   5.857   1.834  10.742  0.0495 -0.4903  0.2662
   17SAPC  H14A 2138   5.803   1.762  10.683  3.1579 -0.2728 -3.2241
   17SAPC  H14B 2139   5.804   1.846  10.835  0.9654 -3.5394  1.3054
   17SAPC  H14C 2140   5.848   1.923  10.682  1.3981  0.2491  1.0956
   17SAPC   C15 2141   5.982   1.651  10.832  0.3737 -0.0448 -0.5888
   17SAPC  H15A 2142   6.078   1.603  10.837  0.0509 -1.0511 -2.7761
   17SAPC  H15B 2143   5.943   1.662  10.932  0.3053 -1.1869 -0.4759
   17SAPC  H15C 2144   5.913   1.579  10.790  0.8235 -0.7502 -0.1391
   17SAPC   C11 2145   5.931   1.679  10.521 -0.0512 -0.0920  0.3767
   17SAPC  H11A 2146   5.905   1.583  10.571  1.8437 -0.8629 -0.0494
   17SAPC  H11B 2147   5.978   1.643  10.428  0.1941  0.7824  0.1511
   17SAPC     P 2148   5.799   1.842  10.344 -0.2694 -0.4869  0.2152
   17SAPC   O13 2149   5.658   1.856  10.300  0.0575  0.1261 -0.1029
   17SAPC   O14 2150   5.876   1.962  10.361  0.0973  0.0653  0.5759
   17SAPC   O12 2151   5.817   1.756  10.473  0.1213  0.5099 -0.5053
   17SAPC   O11 2152   5.866   1.746  10.242 -0.7871 -0.1725 -0.4246
   17SAPC    C1 2153   5.811   1.640  10.169 -0.5322  0.0454  0.3383
   17SAPC    HA 2154   5.895   1.569  10.148  1.4691  2.1058  0.9562
   17SAPC    HB 2155   5.743   1.582  10.235 -0.1742  0.4546  1.0848
   17SAPC    C2 2156   5.764   1.687  10.032 -0.1853  0.0512 -0.2283
   17SAPC    HS 2157   5.663   1.731  10.040  0.4755  1.7736 -0.9387
   17SAPC   O21 2158   5.763   1.571   9.952  0.4387  0.2292  0.0382
   17SAPC   C21 2159   5.666   1.479   9.967  0.6109  0.1171  0.9234
   17SAPC   O22 2160   5.571   1.487  10.041 -0.1330  0.2115  0.6737
   17SAPC   C22 2161   5.694   1.371   9.861 -0.3048  0.5188  1.0665
   17SAPC   H2R 2162   5.801   1.347   9.843 -0.5348  0.4323 -0.3089
   17SAPC   H2S 2163   5.654   1.281   9.912  0.8680 -0.3622  0.4822
   17SAPC    C3 2164   5.858   1.792   9.974  0.2086 -0.5280 -1.0030
   17SAPC    HX 2165   5.954   1.736   9.978  0.5046 -0.0081 -0.7931
   17SAPC    HY 2166   5.870   1.878  10.043  0.0925 -2.3549  1.4133
   17SAPC   O31 2167   5.829   1.827   9.839  1.1552 -0.0956  0.1607
   17SAPC   C31 2168   5.721   1.906   9.841 -0.5852  0.4586  0.4879
   17SAPC   O32 2169   5.660   1.941   9.938 -0.0846  0.4854 -0.0142
   17SAPC   C32 2170   5.675   1.943   9.696 -0.2980  0.5398  0.2339
   17SAPC   H2X 2171   5.717   2.044   9.674  1.4355 -0.1138  0.4188
   17SAPC   H2Y 2172   5.565   1.951   9.704 -0.5372  1.9911 -2.7722
   17SAPC   C23 2173   5.618   1.397   9.729 -0.0231  0.4086 -0.4501
   17SAPC   H3R 2174   5.667   1.338   9.649 -2.0096 -0.7455 -0.8822
   17SAPC   H3S 2175   5.641   1.502   9.702  1.4838  0.7552  1.8390
   17SAPC   C24 2176   5.466   1.350   9.711  0.2820 -0.2302 -0.3543
   17SAPC   H4R 2177   5.435   1.365   9.606 -1.9624  2.5135  0.5678
   17SAPC   H4S 2178   5.405   1.411   9.780  0.9515 -1.3862  1.3343
   17SAPC   C25 2179   5.459   1.201   9.747  0.0199  0.1539 -0.1510
   17SAPC   H5R 2180   5.471   1.185   9.855  0.1454 -2.3800 -0.4934
   17SAPC   C26 2181   5.421   1.092   9.671  0.2122  0.4665 -0.3542
   17SAPC   H6R 2182   5.435   0.991   9.712  1.1497  0.2584 -1.1714
   17SAPC   C27 2183   5.380   1.098   9.522  0.1543  0.1223 -0.3899
   17SAPC   H7R 2184   5.343   1.200   9.500  0.5555  0.2531 -0.4627
   17SAPC   H7S 2185   5.297   1.025   9.511  0.7481 -1.1806  2.7771
   17SAPC   C28 2186   5.487   1.066   9.427  0.1520  1.0003 -0.5429
   17SAPC   H8R 2187   5.533   0.969   9.452  0.3960  1.4315  0.7713
   17SAPC   C29 2188   5.540   1.139   9.329 -0.6479 -0.7741 -0.0950
   17SAPC   H9R 2189   5.623   1.099   9.269  0.7151 -0.4154  1.4722
   17SAPC  C210 2190   5.488   1.280   9.286 -0.5003 -0.0253  0.5793
   17SAPC  H10R 2191   5.523   1.355   9.360  1.5000 -0.4439  0.1073
   17SAPC  H10S 2192   5.378   1.269   9.276 -0.6981  0.8995  1.6227
   17SAPC  C211 2193   5.528   1.313   9.147 -0.4684  0.4181  0.0308
   17SAPC  H11R 2194   5.625   1.366   9.146 -0.7733  1.1432  2.5642
   17SAPC  C212 2195   5.453   1.297   9.033 -0.0442 -0.4492  0.0171
   17SAPC  H12R 2196   5.497   1.333   8.939 -0.0465 -0.0286  0.1755
   17SAPC  C213 2197   5.312   1.238   9.007 -0.1475 -0.0982 -0.1108
   17SAPC  H13R 2198   5.250   1.286   8.929  0.2279  0.4742 -0.0646
   17SAPC  H13S 2199   5.257   1.261   9.100  0.1037  0.8531 -0.1891
   17SAPC  C214 2200   5.330   1.092   9.012  0.1444 -0.4008  0.1128
   17SAPC  H14R 2201   5.377   1.051   9.103 -0.9608 -0.9031  0.4657
   17SAPC  C215 2202   5.271   1.013   8.923  0.4276 -0.4653 -0.0734
   17SAPC  H15R 2203   5.284   0.906   8.944  1.3736 -0.7450 -1.9076
   17SAPC  C216 2204   5.185   1.057   8.807 -0.3450  0.6929  0.4565
   17SAPC  H16R 2205   5.241   1.133   8.749 -1.6027  1.1972 -0.1362
   17SAPC  H16S 2206   5.096   1.111   8.846  0.1968  1.4610  0.6438
   17SAPC  C217 2207   5.135   0.938   8.725 -0.1549  0.1147 -0.0083
   17SAPC  H17R 2208   5.079   0.868   8.790  0.9089 -1.3117 -0.5635
   17SAPC  H17S 2209   5.228   0.887   8.689 -1.0820 -1.9324  0.3202
   17SAPC  C218 2210   5.042   0.978   8.608 -0.5086 -0.0728 -0.0710
   17SAPC  H18R 2211   5.053   0.899   8.530 -1.8035  1.3164 -1.7480
   17SAPC  H18S 2212   5.073   1.076   8.566 -2.3721  1.2763  1.5914
   17SAPC  C219 2213   4.900   0.981   8.656  0.3570 -0.5112 -0.8027
   17SAPC  H19R 2214   4.894   1.036   8.752  0.1064 -0.1493 -1.0215
   17SAPC  H19S 2215   4.877   0.875   8.681  1.5276 -0.3803  1.0560
   17SAPC  C220 2216   4.795   1.030   8.552  0.6088 -0.1057 -0.2585
   17SAPC  H20R 2217   4.795   1.141   8.553 -0.4930  0.0004 -2.7065
   17SAPC  H20S 2218   4.697   0.987   8.583  0.0732  1.4369  0.2463
   17SAPC  H20T 2219   4.823   0.999   8.449 -0.8913 -0.0799 -0.7101
   17SAPC   C33 2220   5.727   1.835   9.592 -0.0370  0.2557  0.4188
   17SAPC   H3X 2221   5.702   1.733   9.629  1.1937  0.3441  1.5656
   17SAPC   H3Y 2222   5.834   1.852   9.570  0.5444 -1.7645  1.4329
   17SAPC   C34 2223   5.656   1.854   9.462 -0.0316 -0.5940 -0.0581
   17SAPC   H4X 2224   5.658   1.965   9.452  1.6177 -0.6570 -0.7942
   17SAPC   H4Y 2225   5.551   1.820   9.463 -0.1775 -0.2421 -1.4646
   17SAPC   C35 2226   5.731   1.774   9.353  0.5566  0.0991  0.0624
   17SAPC   H5X 2227   5.753   1.671   9.389 -0.8499  0.5629  2.4432
   17SAPC   H5Y 2228   5.829   1.827   9.350  0.1212  1.0879  1.8671
   17SAPC   C36 2229   5.663   1.774   9.217 -0.0708 -0.1259 -0.0712
   17SAPC   H6X 2230   5.648   1.876   9.175 -1.6512 -0.7158 -1.0323
   17SAPC   H6Y 2231   5.564   1.723   9.225 -0.6866  0.6014 -2.3285
   17SAPC   C37 2232   5.723   1.680   9.116  0.9674  0.2388  0.2958
   17SAPC   H7X 2233   5.713   1.570   9.126  0.7458  0.1668 -0.6735
   17SAPC   H7Y 2234   5.832   1.705   9.116  0.5335  2.4754  1.7265
   17SAPC   C38 2235   5.662   1.697   8.967  0.3109 -0.8965  0.1691
   17SAPC   H8X 2236   5.678   1.805   8.948  0.1385 -0.8437  0.3170
   17SAPC   H8Y 2237   5.554   1.678   8.988  0.8194 -2.4841  1.5606
   17SAPC   C39 2238   5.718   1.603   8.863 -0.0793 -0.1734  0.6906
   17SAPC   H9X 2239   5.686   1.499   8.886 -0.5992  0.0493  1.0011
   17SAPC   H9Y 2240   5.829   1.601   8.862 -0.0634 -2.0453 -1.4483
   17SAPC  C310 2241   5.674   1.629   8.720 -0.2466 -0.0009  0.2524
   17SAPC  H10X 2242   5.733   1.572   8.646 -1.2207 -0.7219  0.0221
   17SAPC  H10Y 2243   5.706   1.735   8.705 -0.3131  0.1420  1.0590
   17SAPC  C311 2244   5.522   1.616   8.691  0.4914  0.7124 -0.3130
   17SAPC  H11X 2245   5.498   1.682   8.604  0.3710  0.2593 -0.6261
   17SAPC  H11Y 2246   5.469   1.658   8.779 -0.4831 -1.9184  0.4479
   17SAPC  C312 2247   5.478   1.478   8.659  0.5950  0.4706 -0.6577
   17SAPC  H12X 2248   5.466   1.419   8.753 -1.0788  2.2862  0.3527
   17SAPC  H12Y 2249   5.553   1.426   8.596 -0.0895  0.9110 -1.8475
   17SAPC  C313 2250   5.347   1.482   8.583 -0.3766 -0.6751 -0.1138
   17SAPC  H13X 2251   5.371   1.504   8.477 -0.6457  1.3476  0.2052
   17SAPC  H13Y 2252   5.297   1.578   8.607  1.9458  0.5703  0.0076
   17SAPC  C314 2253   5.249   1.369   8.599 -0.9701  0.5954  0.2229
   17SAPC  H14X 2254   5.211   1.373   8.703 -0.0172  1.1102  0.5671
   17SAPC  H14Y 2255   5.308   1.275   8.602 -1.6124  0.2044  2.3859
   17SAPC  C315 2256   5.130   1.375   8.501  0.0842  0.6582 -0.3971
   17SAPC  H15X 2257   5.074   1.279   8.500  0.9642  0.1005  0.9007
   17SAPC  H15Y 2258   5.169   1.394   8.398  1.2165 -2.1870 -0.5848
   17SAPC  C316 2259   5.032   1.482   8.546  0.7530 -0.9302 -0.0225
   17SAPC  H16X 2260   5.075   1.584   8.554  0.3654 -0.7362 -0.4212
   17SAPC  H16Y 2261   4.987   1.456   8.644  1.3820 -0.1862  0.4755
   17SAPC  C317 2262   4.901   1.492   8.459  0.3691  0.2190  0.0026
   17SAPC  H17X 2263   4.844   1.580   8.495 -1.7678 -1.7875  1.8794
   17SAPC  H17Y 2264   4.842   1.399   8.475  0.5096  0.5592  2.9922
   17SAPC  C318 2265   4.928   1.512   8.309 -0.7655  0.0260 -0.1558
   17SAPC  H18X 2266   5.013   1.581   8.294  0.0017 -0.5574  1.2940
   17SAPC  H18Y 2267   4.964   1.416   8.265 -3.3318 -1.1511  0.0844
   17SAPC  H18Z 2268   4.833   1.532   8.255 -1.2853  0.4249  0.8857
   18SAPC     N 2269   6.001   0.842  10.793 -0.4328  0.0847  0.1063
   18SAPC   C12 2270   6.083   0.898  10.678  0.2592 -0.4756 -0.2516
   18SAPC  H12A 2271   6.170   0.947  10.719  0.4881  0.0508 -1.3221
   18SAPC  H12B 2272   6.023   0.971  10.626 -0.1443 -1.7683 -1.6836
   18SAPC   C13 2273   6.083   0.744  10.876 -0.3212 -1.4678  0.1642
   18SAPC  H13A 2274   6.155   0.795  10.939 -1.1128 -1.3558  0.9995
   18SAPC  H13B 2275   6.012   0.697  10.943  0.3546 -1.5002  0.8670
   18SAPC  H13C 2276   6.128   0.677  10.805 -1.4913 -0.0029 -2.1060
   18SAPC   C14 2277   5.958   0.951  10.884 -0.2860  0.3261 -0.6815
   18SAPC  H14A 2278   5.894   0.920  10.965 -0.5135 -0.8798 -1.3025
   18SAPC  H14B 2279   6.043   0.995  10.935 -0.2605  1.9413 -2.0166
   18SAPC  H14C 2280   5.904   1.027  10.829 -2.5111 -0.8307 -0.2138
   18SAPC   C15 2281   5.875   0.774  10.747 -0.5510 -0.2073  0.6672
   18SAPC  H15A 2282   5.896   0.674  10.712  1.7861  0.9810 -1.7403
   18SAPC  H15B 2283   5.801   0.781  10.824  0.5583  1.0805  1.6602
   18SAPC  H15C 2284   5.825   0.831  10.670  0.1245  0.5677  0.7846
   18SAPC   C11 2285   6.127   0.815  10.553  0.1165  0.0021  0.4912
   18SAPC  H11A 2286   6.183   0.726  10.587  0.5348  0.1537  0.2144
   18SAPC  H11B 2287   6.206   0.871  10.498  1.3874  1.5744  3.6623
   18SAPC     P 2288   5.972   0.630  10.447 -0.1354 -0.2760 -0.1778
   18SAPC   O13 2289   6.065   0.544  10.520  0.3965  0.1908  0.8046
   18SAPC   O14 2290   5.828   0.612  10.483 -0.0207 -0.9362 -0.4304
   18SAPC   O12 2291   6.011   0.790  10.471 -0.1033  0.1168  0.6085
   18SAPC   O11 2292   5.989   0.604  10.290 -0.1416 -0.4085  0.0441
   18SAPC    C1 2293   6.089   0.639  10.202  0.6726  0.4474  0.6701
   18SAPC    HA 2294   6.169   0.704  10.243  0.6512 -1.0205  3.2592
   18SAPC    HB 2295   6.132   0.552  10.148 -0.0882 -0.2095  1.1033
   18SAPC    C2 2296   6.038   0.731  10.089  0.3361 -0.0018  0.2003
   18SAPC    HS 2297   5.982   0.812  10.140 -1.0849 -0.0237 -1.2505
   18SAPC   O21 2298   5.964   0.655   9.993 -0.4715 -0.0284 -0.1879
   18SAPC   C21 2299   5.876   0.726   9.929  0.1379 -0.3351 -0.0482
   18SAPC   O22 2300   5.853   0.845   9.946 -0.3288  0.0895 -0.0235
   18SAPC   C22 2301   5.798   0.632   9.847  0.1888  0.2441 -0.5408
   18SAPC   H2R 2302   5.860   0.556   9.794 -1.7947 -1.9618  0.1102
   18SAPC   H2S 2303   5.734   0.582   9.923 -0.2057  1.7304  0.1331
   18SAPC    C3 2304   6.160   0.796  10.017 -0.4353  0.9016 -0.2372
   18SAPC    HX 2305   6.219   0.707   9.985 -0.6923 -0.1506  1.9794
   18SAPC    HY 2306   6.215   0.841  10.102  0.9991 -1.0336 -0.0599
   18SAPC   O31 2307   6.137   0.881   9.905  0.6493 -0.8146 -0.0295
   18SAPC   C31 2308   6.108   1.006   9.928 -0.1061 -0.8769  0.0360
   18SAPC   O32 2309   6.111   1.063  10.039 -0.1557  0.3842  0.0718
   18SAPC   C32 2310   6.085   1.079   9.795 -0.2930 -0.4712  0.3319
   18SAPC   H2X 2311   6.180   1.131   9.773 -0.6688 -0.5015 -1.4739
   18SAPC   H2Y 2312   6.008   1.157   9.811  1.0221  0.8916  0.2668
   18SAPC   C23 2313   5.719   0.701   9.746  0.8500 -0.3740  0.2599
   18SAPC   H3R 2314   5.785   0.754   9.674 -1.1686  1.0254 -0.6685
   18SAPC   H3S 2315   5.667   0.786   9.795  2.7388  0.7796  0.3855
   18SAPC   C24 2316   5.617   0.604   9.681 -0.3150  0.8424 -0.0077
   18SAPC   H4R 2317   5.538   0.662   9.630 -1.9611 -0.0107  1.4768
   18SAPC   H4S 2318   5.559   0.544   9.754  0.0462  0.8875  0.3242
   18SAPC   C25 2319   5.685   0.514   9.584 -0.4582  0.0053  0.1770
   18SAPC   H5R 2320   5.772   0.460   9.625  0.2433 -0.6261 -1.9858
   18SAPC   C26 2321   5.657   0.478   9.463  0.1147 -0.2050  1.2161
   18SAPC   H6R 2322   5.722   0.415   9.400  1.0645  1.3314  0.5982
   18SAPC   C27 2323   5.539   0.524   9.382 -0.1113 -0.7806 -0.6391
   18SAPC   H7R 2324   5.454   0.557   9.446 -0.3699  1.3130 -1.9655
   18SAPC   H7S 2325   5.497   0.433   9.334 -0.4348 -1.3374  0.6584
   18SAPC   C28 2326   5.587   0.634   9.289  0.2657 -0.3837 -0.2117
   18SAPC   H8R 2327   5.644   0.712   9.341  1.4167 -1.0211 -0.4763
   18SAPC   C29 2328   5.563   0.652   9.158 -0.1433 -0.5804 -0.1233
   18SAPC   H9R 2329   5.604   0.741   9.108 -0.6118 -0.1236  0.2952
   18SAPC  C210 2330   5.486   0.558   9.070 -0.2869  0.7424  0.6516
   18SAPC  H10R 2331   5.426   0.616   8.997 -0.2566  0.1683  0.1608
   18SAPC  H10S 2332   5.404   0.504   9.124  1.3346 -2.0139  0.5529
   18SAPC  C211 2333   5.588   0.472   8.990  0.1897  0.3807 -0.5623
   18SAPC  H11R 2334   5.644   0.398   9.049  0.1423  0.7838  0.0029
   18SAPC  C212 2335   5.608   0.479   8.860  0.0851 -0.4669  0.7077
   18SAPC  H12R 2336   5.687   0.421   8.809 -1.3371 -0.8118 -1.2100
   18SAPC  C213 2337   5.540   0.575   8.766  1.1245  0.0354 -0.7483
   18SAPC  H13R 2338   5.539   0.680   8.803  1.1896 -0.5714  1.0764
   18SAPC  H13S 2339   5.431   0.559   8.757  0.9883  1.0209 -0.9984
   18SAPC  C214 2340   5.598   0.581   8.629  0.0071  0.2961 -0.1805
   18SAPC  H14R 2341   5.703   0.549   8.624  0.2742  1.3319 -3.0752
   18SAPC  C215 2342   5.532   0.622   8.520 -0.4891  0.2143  1.2117
   18SAPC  H15R 2343   5.585   0.616   8.424 -1.4571 -1.9830  0.7594
   18SAPC  C216 2344   5.390   0.662   8.518  0.7887  0.2918 -0.4800
   18SAPC  H16R 2345   5.373   0.748   8.450 -1.9469 -0.5385 -0.9669
   18SAPC  H16S 2346   5.368   0.702   8.619  0.4166 -0.9237 -0.0608
   18SAPC  C217 2347   5.287   0.544   8.481  0.0457  0.2110 -0.6421
   18SAPC  H17R 2348   5.285   0.475   8.568 -0.7288  0.5297 -0.3982
   18SAPC  H17S 2349   5.331   0.495   8.392 -1.4067 -1.1740 -0.6370
   18SAPC  C218 2350   5.146   0.604   8.466 -0.0511  0.3639  0.4690
   18SAPC  H18R 2351   5.141   0.687   8.391  0.2616  0.4162  0.5056
   18SAPC  H18S 2352   5.113   0.659   8.557  0.5981  1.2572  0.1795
   18SAPC  C219 2353   5.042   0.505   8.403  0.6532  0.0714  0.0444
   18SAPC  H19R 2354   5.062   0.489   8.295  1.2695 -0.3951  0.2196
   18SAPC  H19S 2355   4.945   0.559   8.408  0.0502 -0.9744 -0.3018
   18SAPC  C220 2356   5.023   0.366   8.473  0.0913 -0.6612  0.6274
   18SAPC  H20R 2357   5.113   0.303   8.459  1.2170  1.4586 -2.6119
   18SAPC  H20S 2358   4.941   0.309   8.423 -0.3971 -1.5432  2.3501
   18SAPC  H20T 2359   5.007   0.376   8.582  0.2720 -0.9117  0.6793
   18SAPC   C33 2360   6.046   0.991   9.675  0.0114 -0.2274 -0.7483
   18SAPC   H3X 2361   5.955   0.936   9.706  0.4287 -1.0957 -1.0072
   18SAPC   H3Y 2362   6.125   0.919   9.644  1.4745  0.2952  1.5012
   18SAPC   C34 2363   5.991   1.069   9.553  0.5106  0.6294 -0.1964
   18SAPC   H4X 2364   6.073   1.132   9.512  0.0580  0.9991 -0.5320
   18SAPC   H4Y 2365   5.909   1.140   9.578  0.3573 -0.7659  4.2756
   18SAPC   C35 2366   5.941   0.975   9.439  0.8934  0.1883 -0.1391
   18SAPC   H5X 2367   5.851   0.924   9.480  0.8706 -0.0515 -0.4873
   18SAPC   H5Y 2368   6.000   0.889   9.402 -0.0533 -0.6157  0.1990
   18SAPC   C36 2369   5.884   1.050   9.318 -0.4971 -0.0664 -0.1627
   18SAPC   H6X 2370   5.964   1.094   9.255 -1.0975  0.1593 -0.7780
   18SAPC   H6Y 2371   5.808   1.126   9.346  2.4887  2.5095  1.5517
   18SAPC   C37 2372   5.813   0.956   9.214 -0.4861 -0.2062 -0.5941
   18SAPC   H7X 2373   5.716   0.918   9.250  0.0066  1.7869  3.3630
   18SAPC   H7Y 2374   5.871   0.863   9.194 -1.0698 -0.6316 -0.3308
   18SAPC   C38 2375   5.796   1.038   9.081 -0.0538 -0.4823 -0.5893
   18SAPC   H8X 2376   5.899   1.046   9.041  0.0520 -3.5290 -1.1721
   18SAPC   H8Y 2377   5.756   1.138   9.109  0.8956 -0.3200  0.2526
   18SAPC   C39 2378   5.721   0.965   8.971  0.2140 -0.8899 -0.3134
   18SAPC   H9X 2379   5.616   0.942   8.996  0.4643 -0.4441  1.2330
   18SAPC   H9Y 2380   5.778   0.871   8.954 -1.1474 -1.3974 -2.5053
   18SAPC  C310 2381   5.720   1.044   8.837  0.5800 -0.6933 -0.1741
   18SAPC  H10X 2382   5.823   1.049   8.794  0.5577  1.3312 -0.1058
   18SAPC  H10Y 2383   5.697   1.151   8.854 -1.5992 -1.6330  4.3881
   18SAPC  C311 2384   5.613   1.002   8.728  0.2176  0.1697  0.1813
   18SAPC  H11X 2385   5.522   1.030   8.785  1.4961  1.1620  1.8521
   18SAPC  H11Y 2386   5.627   0.894   8.709  1.3096  0.3657 -0.1995
   18SAPC  C312 2387   5.615   1.089   8.601  0.9532 -0.4390 -0.5007
   18SAPC  H12X 2388   5.714   1.089   8.552  1.4394  0.7644  0.4320
   18SAPC  H12Y 2389   5.593   1.195   8.628 -1.6273 -0.6810 -1.3177
   18SAPC  C313 2390   5.508   1.044   8.502  0.2621  0.3600 -0.0663
   18SAPC  H13X 2391   5.409   1.045   8.552 -0.0484 -0.5182 -0.6290
   18SAPC  H13Y 2392   5.514   0.936   8.475 -0.0055 -0.1117  1.6561
   18SAPC  C314 2393   5.500   1.134   8.374 -0.1593 -0.0355  0.2985
   18SAPC  H14X 2394   5.604   1.151   8.337 -0.7620  0.3687 -1.2865
   18SAPC  H14Y 2395   5.450   1.228   8.404  0.2512 -0.2435  1.7066
   18SAPC  C315 2396   5.412   1.076   8.262  0.0346  0.0507 -0.4394
   18SAPC  H15X 2397   5.442   0.974   8.228  0.7462  0.7266 -1.8965
   18SAPC  H15Y 2398   5.425   1.142   8.174 -1.6419 -0.1289 -0.8576
   18SAPC  C316 2399   5.265   1.082   8.298  0.4677  0.1666  0.3285
   18SAPC  H16X 2400   5.245   1.158   8.377 -1.4106  0.9568 -0.8144
   18SAPC  H16Y 2401   5.241   0.987   8.350 -1.6938  0.4366 -0.0695
   18SAPC  C317 2402   5.174   1.090   8.180 -0.1651 -0.0687  0.7048
   18SAPC  H17X 2403   5.183   1.002   8.114 -1.0234 -0.3581  0.9694
   18SAPC  H17Y 2404   5.210   1.171   8.113 -0.8201  0.5279  1.0596
   18SAPC  C318 2405   5.025   1.093   8.214  0.5719 -0.0415 -0.1942
   18SAPC  H18X 2406   4.950   1.043   8.148 -0.1020  1.2739 -0.4450
   18SAPC  H18Y 2407   4.994   1.198   8.230  0.8677  0.2755 -1.5239
   18SAPC  H18Z 2408   5.018   1.049   8.316 -0.7871  0.3077 -0.1168
   19SAPC     N 2409   3.920   3.477  10.489 -0.7649  0.1407  0.2120
   19SAPC   C12 2410   3.903   3.332  10.466 -0.0239  0.1923 -0.2260
   19SAPC  H12A 2411   3.798   3.312  10.448  0.6465 -1.2917 -3.0649
   19SAPC  H12B 2412   3.908   3.288  10.564 -0.5324 -0.7974 -0.6318
   19SAPC   C13 2413   3.845   3.530  10.604 -0.1069  0.0448 -0.0236
   19SAPC  H13A 2414   3.894   3.504  10.696  1.7828  0.9808 -0.7044
   19SAPC  H13B 2415   3.843   3.636  10.582  2.1073 -0.5666 -4.1331
   19SAPC  H13C 2416   3.742   3.496  10.600 -0.9123  2.3695 -0.6354
   19SAPC   C14 2417   4.062   3.528  10.494 -0.0333  0.0681  0.0604
   19SAPC  H14A 2418   4.133   3.460  10.538  1.8266  0.7005 -1.8254
   19SAPC  H14B 2419   4.088   3.547  10.391 -1.0628  0.1784 -0.1932
   19SAPC  H14C 2420   4.072   3.625  10.540  1.3438  0.6694 -1.4148
   19SAPC   C15 2421   3.852   3.541  10.372 -0.2792  0.5349  0.4604
   19SAPC  H15A 2422   3.749   3.511  10.368 -1.0950  2.8799  1.6951
   19SAPC  H15B 2423   3.841   3.647  10.389  0.0163  0.1776  3.4100
   19SAPC  H15C 2424   3.899   3.519  10.277 -0.7540 -1.0912  0.5724
   19SAPC   C11 2425   3.992   3.260  10.362 -0.4563 -0.1098  0.0177
   19SAPC  H11A 2426   3.951   3.299  10.267 -0.4904  1.6528  0.7118
   19SAPC  H11B 2427   3.965   3.152  10.361 -0.7077 -0.0564  0.5538
   19SAPC     P 2428   4.211   3.202  10.486  0.1352 -0.3755  0.3989
   19SAPC   O13 2429   4.218   3.281  10.606 -0.1415 -0.1235 -0.6424
   19SAPC   O14 2430   4.149   3.069  10.497  0.3185  0.2944 -0.1101
   19SAPC   O12 2431   4.135   3.281  10.370 -0.1239  0.1092 -0.0463
   19SAPC   O11 2432   4.358   3.193  10.428  0.0844  0.1305  0.3781
   19SAPC    C1 2433   4.414   3.295  10.355  0.4882  0.0256 -0.2790
   19SAPC    HA 2434   4.344   3.369  10.310  0.4928 -1.4209 -2.8998
   19SAPC    HB 2435   4.473   3.348  10.432  0.1818  1.4635 -0.9917
   19SAPC    C2 2436   4.503   3.243  10.240  0.4080  0.1620 -0.0815
   19SAPC    HS 2437   4.537   3.334  10.185  2.3363 -0.0059  0.7608
   19SAPC   O21 2438   4.422   3.158  10.150 -0.4613 -0.2822  0.1311
   19SAPC   C21 2439   4.345   3.225  10.066 -0.0450 -1.2614 -0.2658
   19SAPC   O22 2440   4.357   3.344  10.038 -0.2524 -0.2550 -0.4229
   19SAPC   C22 2441   4.257   3.131   9.985  0.0382 -0.2643  0.5407
   19SAPC   H2R 2442   4.282   3.163   9.882 -2.0741 -2.9073 -0.9262
   19SAPC   H2S 2443   4.275   3.023  10.006 -0.2641 -0.5557 -0.6097
   19SAPC    C3 2444   4.633   3.171  10.280 -0.0851 -0.1530 -1.3072
   19SAPC    HX 2445   4.602   3.090  10.350  1.3187 -1.3727 -2.0660
   19SAPC    HY 2446   4.700   3.246  10.328 -2.0299 -0.7366  2.7848
   19SAPC   O31 2447   4.701   3.109  10.170 -0.0767  0.0778 -0.3846
   19SAPC   C31 2448   4.765   3.190  10.087  0.9524 -0.1235 -0.5226
   19SAPC   O32 2449   4.778   3.310  10.111  0.2110 -0.2452 -0.6567
   19SAPC   C32 2450   4.828   3.120   9.966  0.3859  0.5714  0.5739
   19SAPC   H2X 2451   4.861   3.020  10.003 -1.9654 -0.9772 -1.1659
   19SAPC   H2Y 2452   4.916   3.171   9.921  1.3555 -1.8458 -0.4334
   19SAPC   C23 2453   4.110   3.162  10.006  0.0737 -0.2030 -0.3691
   19SAPC   H3R 2454   4.081   3.269  10.002 -3.7749 -1.1143 -1.5370
   19SAPC   H3S 2455   4.085   3.131  10.110 -0.9625 -0.2220 -0.6056
   19SAPC   C24 2456   4.018   3.099   9.909  0.6644 -0.8830  0.3195
   19SAPC   H4R 2457   4.007   2.995   9.946 -0.9513 -1.4310 -1.5060
   19SAPC   H4S 2458   4.048   3.095   9.802  1.1565 -1.2374  0.4714
   19SAPC   C25 2459   3.887   3.167   9.908  0.6546 -0.2601  0.1577
   19SAPC   H5R 2460   3.804   3.131   9.971 -1.1488  1.4112 -1.1577
   19SAPC   C26 2461   3.854   3.269   9.828  0.8676 -0.3152 -0.2505
   19SAPC   H6R 2462   3.757   3.318   9.848  1.6632  1.3302 -0.2165
   19SAPC   C27 2463   3.947   3.330   9.724  0.0890 -0.1615  0.2749
   19SAPC   H7R 2464   3.951   3.254   9.643 -0.6226  0.5014 -0.3911
   19SAPC   H7S 2465   4.051   3.327   9.763  0.2889  2.7285  0.1528
   19SAPC   C28 2466   3.888   3.465   9.677  1.1311  0.4188 -0.1832
   19SAPC   H8R 2467   3.841   3.527   9.754 -1.7036 -0.5723 -0.9702
   19SAPC   C29 2468   3.869   3.499   9.543 -0.0265  0.2432 -0.9706
   19SAPC   H9R 2469   3.825   3.597   9.521 -0.8343 -0.3687 -2.1640
   19SAPC  C210 2470   3.899   3.414   9.424  0.5752  0.1993 -0.6435
   19SAPC  H10R 2471   3.812   3.346   9.413  0.1618  0.4281  1.0136
   19SAPC  H10S 2472   3.986   3.346   9.429  0.9106  0.5788 -1.2016
   19SAPC  C211 2473   3.901   3.481   9.284  0.1356  0.7869  0.3024
   19SAPC  H11R 2474   3.892   3.591   9.284 -2.1334  0.6416  0.2347
   19SAPC  C212 2475   3.912   3.416   9.169  0.2133 -0.2333 -0.4568
   19SAPC  H12R 2476   3.939   3.468   9.076 -2.7994 -1.6157 -2.2820
   19SAPC  C213 2477   3.917   3.264   9.147 -0.8754  0.4978 -0.5418
   19SAPC  H13R 2478   3.923   3.212   9.245  1.3957  0.1759 -0.8136
   19SAPC  H13S 2479   4.020   3.249   9.108 -1.7033  0.7230 -3.0303
   19SAPC  C214 2480   3.817   3.197   9.054  0.1645 -0.4775 -0.1945
   19SAPC  H14R 2481   3.711   3.214   9.080 -0.1233 -0.3783 -1.3838
   19SAPC  C215 2482   3.836   3.133   8.936  0.4412 -0.6467 -0.7147
   19SAPC  H15R 2483   3.756   3.075   8.888  1.7619 -1.9379 -1.4367
   19SAPC  C216 2484   3.979   3.106   8.884  0.3681  0.1403  0.0997
   19SAPC  H16R 2485   4.035   3.062   8.970 -0.6405 -1.1475  0.1334
   19SAPC  H16S 2486   4.033   3.201   8.866 -1.1023  0.6758 -1.8321
   19SAPC  C217 2487   3.980   3.009   8.769  0.3441 -0.2213  0.4654
   19SAPC  H17R 2488   4.085   2.989   8.740  0.5697 -0.0790  1.1682
   19SAPC  H17S 2489   3.924   3.056   8.685 -0.9725  0.0028  1.4328
   19SAPC  C218 2490   3.918   2.870   8.811 -0.0782  0.5266  0.0837
   19SAPC  H18R 2491   3.808   2.882   8.809 -0.2112 -0.5557 -2.1335
   19SAPC  H18S 2492   3.948   2.845   8.915 -1.7825  0.1607  0.5130
   19SAPC  C219 2493   3.928   2.758   8.702  0.1440  0.3807 -0.4266
   19SAPC  H19R 2494   3.899   2.660   8.745 -2.0950  1.6149  1.0999
   19SAPC  H19S 2495   4.034   2.745   8.673  0.0229 -0.5062 -0.5016
   19SAPC  C220 2496   3.846   2.795   8.578  0.1850  0.7023 -0.3560
   19SAPC  H20R 2497   3.739   2.770   8.594  0.4318 -0.1732  0.0047
   19SAPC  H20S 2498   3.871   2.744   8.483  0.2247  1.4997 -0.7846
   19SAPC  H20T 2499   3.841   2.904   8.558 -0.0183  0.6652 -0.5196
   19SAPC   C33 2500   4.727   3.114   9.850 -0.9882 -0.2928  0.7627
   19SAPC   H3X 2501   4.692   3.215   9.820 -0.7932 -0.8522 -1.5497
   19SAPC   H3Y 2502   4.635   3.054   9.865 -0.7434 -0.5159  1.4459
   19SAPC   C34 2503   4.797   3.082   9.721  0.2184 -0.3221 -0.2011
   19SAPC   H4X 2504   4.876   3.006   9.737 -0.1756 -0.9338 -1.1297
   19SAPC   H4Y 2505   4.854   3.175   9.699 -0.9913  0.8522  1.3678
   19SAPC   C35 2506   4.701   3.054   9.610  0.2042  0.0342 -0.0076
   19SAPC   H5X 2507   4.629   3.139   9.615  2.0487  1.6513  0.4034
   19SAPC   H5Y 2508   4.656   2.956   9.634  0.4236 -0.1278 -0.2539
   19SAPC   C36 2509   4.762   3.041   9.472 -0.0335  0.1904  1.0069
   19SAPC   H6X 2510   4.815   2.943   9.460 -0.3926  0.2302 -1.4610
   19SAPC   H6Y 2511   4.834   3.126   9.465 -1.3619  1.2299 -0.4867
   19SAPC   C37 2512   4.654   3.051   9.360 -0.1689  0.8226 -1.1632
   19SAPC   H7X 2513   4.599   3.148   9.371 -1.6659 -0.0937 -0.0294
   19SAPC   H7Y 2514   4.587   2.964   9.380  2.4747 -1.0999 -0.1819
   19SAPC   C38 2515   4.688   3.037   9.214 -0.9676 -0.4814 -0.2190
   19SAPC   H8X 2516   4.593   3.056   9.160 -0.5369  0.6580 -0.6049
   19SAPC   H8Y 2517   4.729   2.938   9.185 -0.5562  0.4145 -3.0017
   19SAPC   C39 2518   4.792   3.140   9.173 -0.5370 -0.0966 -0.6096
   19SAPC   H9X 2519   4.888   3.105   9.216 -1.7009  1.1908  3.5497
   19SAPC   H9Y 2520   4.774   3.229   9.237  2.1860  0.2995 -0.3079
   19SAPC  C310 2521   4.789   3.158   9.024 -0.0034  0.4821  0.6231
   19SAPC  H10X 2522   4.866   3.232   8.995  1.5976 -0.9085  1.1295
   19SAPC  H10Y 2523   4.688   3.192   8.994 -0.8780 -2.0356  0.4211
   19SAPC  C311 2524   4.829   3.036   8.943  0.0746  0.8361  0.1324
   19SAPC  H11X 2525   4.754   2.958   8.965 -0.8481  1.7104  0.1696
   19SAPC  H11Y 2526   4.926   3.007   8.988 -1.1109 -0.0197  2.2738
   19SAPC  C312 2527   4.837   3.044   8.795 -0.5120 -0.9645  0.9636
   19SAPC  H12X 2528   4.899   3.131   8.765 -1.8694  0.0086  0.8696
   19SAPC  H12Y 2529   4.733   3.064   8.761 -0.1785 -0.6299  0.1002
   19SAPC  C313 2530   4.892   2.915   8.736  0.3668 -0.7946 -0.2561
   19SAPC  H13X 2531   4.822   2.842   8.784  0.3552 -0.3785  0.3642
   19SAPC  H13Y 2532   4.991   2.893   8.781  0.2380 -1.0745 -0.1026
   19SAPC  C314 2533   4.896   2.915   8.585  0.0629 -0.1682 -0.4628
   19SAPC  H14X 2534   4.936   2.814   8.566  0.3528  0.1116 -1.3970
   19SAPC  H14Y 2535   4.968   2.993   8.552  0.4815  0.2091  1.2105
   19SAPC  C315 2536   4.768   2.943   8.516 -0.1766 -0.3878  0.4293
   19SAPC  H15X 2537   4.738   3.045   8.546 -2.7063 -1.1168  0.6844
   19SAPC  H15Y 2538   4.682   2.877   8.543 -0.4030 -1.1650 -1.8903
   19SAPC  C316 2539   4.782   2.931   8.363 -1.1037 -0.0493  0.3706
   19SAPC  H16X 2540   4.682   2.924   8.317 -0.3652 -1.9163 -1.1111
   19SAPC  H16Y 2541   4.835   2.834   8.351 -2.4696 -0.9933  1.5936
   19SAPC  C317 2542   4.869   3.033   8.292  0.0654 -0.0174 -0.3569
   19SAPC  H17X 2543   4.970   3.020   8.337 -0.7236  3.0892  2.7175
   19SAPC  H17Y 2544   4.827   3.131   8.323 -2.4210 -0.2567 -2.5840
   19SAPC  C318 2545   4.871   3.017   8.145 -0.1373 -0.0616  0.4465
   19SAPC  H18X 2546   4.861   2.906   8.139  2.0359 -0.4766  2.7152
   19SAPC  H18Y 2547   4.974   3.048   8.122 -0.0328 -0.6361  0.1185
   19SAPC  H18Z 2548   4.792   3.077   8.094  0.7991  0.8897  0.0889
   20SAPC     N 2549   3.947   6.832  10.870  0.2466 -0.3518  0.2222
   20SAPC   C12 2550   3.944   6.902  10.735  0.7692  0.7145 -0.1598
   20SAPC  H12A 2551   3.843   6.905  10.697  1.7286  0.6106 -2.8850
   20SAPC  H12B 2552   4.009   6.849  10.667  0.0218  0.8960 -1.0327
   20SAPC   C13 2553   4.085   6.797  10.906 -0.4164  0.1830  0.2005
   20SAPC  H13A 2554   4.142   6.887  10.920  1.5633 -0.8345 -0.8808
   20SAPC  H13B 2555   4.088   6.743  11.000 -2.5911  0.5749  0.5627
   20SAPC  H13C 2556   4.147   6.749  10.833 -0.6154 -1.3838  1.0059
   20SAPC   C14 2557   3.869   6.911  10.976  0.1603  0.7515 -0.3641
   20SAPC  H14A 2558   3.891   6.856  11.066  0.4764 -0.3867 -1.1117
   20SAPC  H14B 2559   3.916   7.007  10.985  0.1465  0.7982 -0.7701
   20SAPC  H14C 2560   3.766   6.928  10.947 -0.4205 -1.0200  0.5005
   20SAPC   C15 2561   3.871   6.699  10.843  0.5603 -0.0431 -0.5162
   20SAPC  H15A 2562   3.776   6.721  10.798  0.3707  1.9326  0.7467
   20SAPC  H15B 2563   3.930   6.633  10.780  0.0073 -1.7748  0.7125
   20SAPC  H15C 2564   3.850   6.656  10.939 -0.9258  0.7470 -0.4681
   20SAPC   C11 2565   3.990   7.051  10.728 -0.1592 -0.8914  0.2341
   20SAPC  H11A 2566   3.934   7.124  10.790  0.3630 -0.8485  0.6636
   20SAPC  H11B 2567   3.964   7.083  10.625 -0.4477  0.4624  0.7059
   20SAPC     P 2568   4.194   7.165  10.858 -0.0770 -0.1026  0.5991
   20SAPC   O13 2569   4.102   7.176  10.972 -0.2703  0.3734  0.1600
   20SAPC   O14 2570   4.331   7.139  10.889 -0.2201 -0.0169  0.7344
   20SAPC   O12 2571   4.134   7.062  10.750 -0.7624 -0.6754  0.3334
   20SAPC   O11 2572   4.191   7.308  10.779  1.0456  0.0612 -0.2187
   20SAPC    C1 2573   4.297   7.333  10.687  0.4071 -0.4547  0.3362
   20SAPC    HA 2574   4.357   7.415  10.732  0.6413 -1.0656  1.1549
   20SAPC    HB 2575   4.371   7.251  10.684  1.8108  0.7953 -1.0863
   20SAPC    C2 2576   4.246   7.376  10.548 -0.0036 -0.3711  0.0614
   20SAPC    HS 2577   4.146   7.424  10.561  0.0356  0.1209 -1.3364
   20SAPC   O21 2578   4.225   7.255  10.481 -0.9603  0.3825  0.3032
   20SAPC   C21 2579   4.128   7.255  10.388  0.7515 -0.0074 -0.2324
   20SAPC   O22 2580   4.050   7.342  10.364 -0.0867  0.0617  0.1096
   20SAPC   C22 2581   4.126   7.116  10.321  0.7455  0.1816  0.4467
   20SAPC   H2R 2582   4.221   7.089  10.271  0.3242  2.1022 -1.5372
   20SAPC   H2S 2583   4.094   7.047  10.402 -2.9722  0.8383 -0.2937
   20SAPC    C3 2584   4.341   7.468  10.471 -0.4910  0.7188  0.0188
   20SAPC    HX 2585   4.430   7.410  10.439 -0.8015 -0.2657  0.9110
   20SAPC    HY 2586   4.378   7.544  10.543  0.6714  0.3013 -0.1121
   20SAPC   O31 2587   4.276   7.550  10.371 -0.3752  0.5694  0.0144
   20SAPC   C31 2588   4.322   7.546  10.248  0.8077 -0.2489  0.6376
   20SAPC   O32 2589   4.413   7.477  10.214 -0.0942  0.1540  0.3112
   20SAPC   C32 2590   4.235   7.634  10.157  0.8127 -0.6162 -0.0296
   20SAPC   H2X 2591   4.248   7.742  10.180 -0.0318 -0.5016 -0.0609
   20SAPC   H2Y 2592   4.129   7.626  10.189  0.5555  0.2639 -0.6462
   20SAPC   C23 2593   4.012   7.107  10.217 -0.0494  0.2648  0.5490
   20SAPC   H3R 2594   4.041   7.171  10.131  0.1488 -0.3757  0.1370
   20SAPC   H3S 2595   3.915   7.136  10.262  0.0127 -0.1590  0.9695
   20SAPC   C24 2596   3.997   6.967  10.153 -0.7680 -0.0845  0.3339
   20SAPC   H4R 2597   3.999   6.890  10.233 -0.3374 -1.4069 -0.9024
   20SAPC   H4S 2598   4.085   6.946  10.089  0.6928  1.4386  1.7808
   20SAPC   C25 2599   3.865   6.940  10.083  0.3786  0.6406  0.5413
   20SAPC   H5R 2600   3.778   6.923  10.148 -1.5956  1.1706 -1.8167
   20SAPC   C26 2601   3.852   6.922   9.952  0.1933 -0.0056  0.8076
   20SAPC   H6R 2602   3.756   6.885   9.912  0.6277 -1.8159  1.3735
   20SAPC   C27 2603   3.959   6.938   9.847 -0.0055 -0.6150  0.0878
   20SAPC   H7R 2604   3.995   6.839   9.814  0.4806  0.1355 -1.7704
   20SAPC   H7S 2605   4.049   6.988   9.888 -0.6410  0.2223  0.4905
   20SAPC   C28 2606   3.930   7.015   9.728 -0.3553 -0.2444 -0.0207
   20SAPC   H8R 2607   3.911   7.121   9.750  1.3851 -0.0363  0.6067
   20SAPC   C29 2608   3.900   6.963   9.606  1.2338 -0.0403 -0.1781
   20SAPC   H9R 2609   3.870   7.026   9.521  0.1871  0.6943  0.7170
   20SAPC  C210 2610   3.905   6.818   9.572  0.4267  0.1602  0.2005
   20SAPC  H10R 2611   3.892   6.757   9.665  0.2585  1.7312  1.2539
   20SAPC  H10S 2612   4.012   6.797   9.550  1.3679  0.9072  3.4214
   20SAPC  C211 2613   3.805   6.785   9.471 -0.3428 -0.8307 -0.0094
   20SAPC  H11R 2614   3.705   6.762   9.511  0.3580 -0.7937  1.8598
   20SAPC  C212 2615   3.819   6.751   9.338 -0.1217  0.1498  0.0108
   20SAPC  H12R 2616   3.728   6.738   9.277  0.4668  0.8860 -1.0584
   20SAPC  C213 2617   3.944   6.736   9.261 -0.1544 -0.3814 -0.1204
   20SAPC  H13R 2618   3.922   6.639   9.212 -1.0510  0.5474 -1.6487
   20SAPC  H13S 2619   4.027   6.733   9.334  1.3747 -1.5656 -1.8415
   20SAPC  C214 2620   3.969   6.838   9.155  0.7696 -0.2363  0.4286
   20SAPC  H14R 2621   3.935   6.941   9.176  0.3307  0.4298 -2.9923
   20SAPC  C215 2622   3.992   6.809   9.029 -0.5860 -0.0969 -0.3043
   20SAPC  H15R 2623   3.992   6.887   8.951 -0.4589 -0.3055 -0.5164
   20SAPC  C216 2624   4.014   6.677   8.968 -0.6777  0.3551 -0.7725
   20SAPC  H16R 2625   4.014   6.584   9.029 -0.9154  0.2372 -0.9472
   20SAPC  H16S 2626   4.113   6.665   8.919  0.4620 -0.2041  1.5383
   20SAPC  C217 2627   3.914   6.654   8.853 -0.2318 -0.4219  0.1175
   20SAPC  H17R 2628   3.961   6.585   8.779  2.3245  1.7567 -0.4767
   20SAPC  H17S 2629   3.894   6.740   8.786 -1.1860 -1.3758 -0.8608
   20SAPC  C218 2630   3.777   6.595   8.895 -0.7542  0.0100  0.5588
   20SAPC  H18R 2631   3.710   6.679   8.922  1.8334  2.1477  0.7740
   20SAPC  H18S 2632   3.783   6.513   8.969 -1.3300 -0.2802  0.2893
   20SAPC  C219 2633   3.712   6.529   8.770  0.8051 -0.4739  0.2062
   20SAPC  H19R 2634   3.608   6.506   8.803  0.8041 -0.0104  0.5304
   20SAPC  H19S 2635   3.769   6.436   8.747 -0.6325 -0.5918 -3.6882
   20SAPC  C220 2636   3.689   6.607   8.641  0.6035  0.0261  0.4057
   20SAPC  H20R 2637   3.785   6.605   8.587  0.2954 -1.8427 -0.1306
   20SAPC  H20S 2638   3.661   6.714   8.655  0.4280 -0.0929  1.0191
   20SAPC  H20T 2639   3.614   6.552   8.580 -0.6464  0.4197  1.5098
   20SAPC   C33 2640   4.240   7.588  10.004 -0.6330 -0.4205  0.2345
   20SAPC   H3X 2641   4.263   7.479  10.005 -0.6121 -0.4153  0.3034
   20SAPC   H3Y 2642   4.327   7.632   9.951 -2.5003  0.4890 -2.3058
   20SAPC   C34 2643   4.111   7.619   9.929  0.2639  0.7932  0.1507
   20SAPC   H4X 2644   4.097   7.729   9.923  2.1283  1.0135 -0.5226
   20SAPC   H4Y 2645   4.037   7.567   9.994  1.2112 -2.5973 -1.2672
   20SAPC   C35 2646   4.102   7.553   9.789 -0.4935  0.3255  0.3829
   20SAPC   H5X 2647   4.012   7.579   9.729 -1.5416 -0.2444  1.6607
   20SAPC   H5Y 2648   4.104   7.446   9.817  0.8788  0.1239 -0.4019
   20SAPC   C36 2649   4.227   7.576   9.704  0.2489 -0.0769  0.2796
   20SAPC   H6X 2650   4.308   7.516   9.751 -1.5614 -1.6102  1.5923
   20SAPC   H6Y 2651   4.261   7.681   9.714  2.0694 -0.5208 -0.7400
   20SAPC   C37 2652   4.206   7.536   9.553  0.1787 -0.5028 -0.1079
   20SAPC   H7X 2653   4.304   7.557   9.505  1.7490 -4.4996  0.9674
   20SAPC   H7Y 2654   4.128   7.603   9.510 -0.9185 -1.1722  0.7874
   20SAPC   C38 2655   4.159   7.398   9.515  0.4629  0.7521 -0.6997
   20SAPC   H8X 2656   4.058   7.369   9.552  1.2182 -1.6370 -0.2898
   20SAPC   H8Y 2657   4.235   7.324   9.550  0.2399  0.1299 -1.4911
   20SAPC   C39 2658   4.171   7.374   9.363  0.2866 -0.2093  0.1466
   20SAPC   H9X 2659   4.137   7.269   9.357 -0.4422  0.0448 -0.1932
   20SAPC   H9Y 2660   4.280   7.381   9.339  0.4106  0.5461  0.8855
   20SAPC  C310 2661   4.079   7.465   9.283 -0.0461 -0.4282  0.0858
   20SAPC  H10X 2662   4.114   7.570   9.280  1.2119 -0.8518 -1.0628
   20SAPC  H10Y 2663   3.982   7.470   9.338  0.6422  2.5950  1.2257
   20SAPC  C311 2664   4.059   7.412   9.139  0.3498  0.1475  0.5870
   20SAPC  H11X 2665   4.010   7.497   9.086  0.2600  1.0061  1.9918
   20SAPC  H11Y 2666   3.988   7.327   9.134  0.1060  0.4059 -0.7400
   20SAPC  C312 2667   4.185   7.375   9.065  0.0852  0.2445 -0.1051
   20SAPC  H12X 2668   4.222   7.284   9.116  0.0310 -0.5492 -1.4291
   20SAPC  H12Y 2669   4.263   7.454   9.069 -0.4363  0.8259 -1.0755
   20SAPC  C313 2670   4.158   7.339   8.914  0.3583 -0.6933 -0.3622
   20SAPC  H13X 2671   4.103   7.422   8.865 -1.2553 -0.5976  1.4878
   20SAPC  H13Y 2672   4.094   7.248   8.922  0.1847 -0.6728 -1.3886
   20SAPC  C314 2673   4.286   7.305   8.834 -0.0439 -0.2488 -0.9202
   20SAPC  H14X 2674   4.248   7.265   8.737 -0.0268  0.8944 -1.4081
   20SAPC  H14Y 2675   4.337   7.221   8.887 -1.5924 -0.8931 -0.3856
   20SAPC  C315 2676   4.378   7.430   8.802  0.0564  0.1683  0.0062
   20SAPC  H15X 2677   4.465   7.403   8.739  1.3450  1.4860  1.1280
   20SAPC  H15Y 2678   4.423   7.473   8.894 -2.2744 -0.9262  1.7917
   20SAPC  C316 2679   4.301   7.538   8.727 -0.9036 -0.8618 -0.9629
   20SAPC  H16X 2680   4.225   7.572   8.800  0.9826  0.4347  0.5287
   20SAPC  H16Y 2681   4.262   7.516   8.625 -0.1711 -1.0804 -1.2048
   20SAPC  C317 2682   4.390   7.666   8.705  0.2303  0.1152  0.3549
   20SAPC  H17X 2683   4.337   7.730   8.632  0.2346  2.1815  2.0815
   20SAPC  H17Y 2684   4.488   7.625   8.671  0.0499 -3.2432  3.2697
   20SAPC  C318 2685   4.424   7.748   8.830  0.2050  0.0308  0.8306
   20SAPC  H18X 2686   4.453   7.688   8.919  2.9593  2.5206  1.7774
   20SAPC  H18Y 2687   4.339   7.816   8.851  1.2100  0.9300  2.1538
   20SAPC  H18Z 2688   4.510   7.815   8.808  0.5160 -1.0538 -1.7202
   21SAPC     N 2689   3.377   5.307  11.032  0.3045  0.2624 -0.2311
   21SAPC   C12 2690   3.438   5.416  10.950 -0.7256 -0.0534  0.4533
   21SAPC  H12A 2691   3.544   5.428  10.969 -1.4396  4.2992  2.9657
   21SAPC  H12B 2692   3.397   5.513  10.975 -0.2995  0.0784  0.6549
   21SAPC   C13 2693   3.235   5.288  10.999 -1.0881  0.0557 -0.0358
   21SAPC  H13A 2694   3.162   5.361  11.033 -1.1613 -0.2010  0.3648
   21SAPC  H13B 2695   3.227   5.288  10.892  2.8901 -2.5708 -0.5366
   21SAPC  H13C 2696   3.209   5.185  11.020  1.6771 -0.6489  0.2646
   21SAPC   C14 2697   3.451   5.182  10.999 -0.7388  0.4083 -0.3919
   21SAPC  H14A 2698   3.464   5.156  10.895  2.7754  0.0679  0.0079
   21SAPC  H14B 2699   3.549   5.181  11.045 -1.6687  1.0748  1.7128
   21SAPC  H14C 2700   3.397   5.103  11.050  0.6616 -0.0526  0.4428
   21SAPC   C15 2701   3.403   5.343  11.171 -0.2715  0.2490 -0.3369
   21SAPC  H15A 2702   3.507   5.353  11.198  0.5522  1.4185 -3.5821
   21SAPC  H15B 2703   3.356   5.438  11.193 -1.0736  0.3437 -2.2658
   21SAPC  H15C 2704   3.362   5.262  11.231  0.2198 -0.0263 -0.3716
   21SAPC   C11 2705   3.435   5.408  10.787  0.1858 -0.7953  0.8898
   21SAPC  H11A 2706   3.476   5.311  10.754 -1.8154 -1.6472  0.8121
   21SAPC  H11B 2707   3.511   5.484  10.755  0.4460 -0.1185  2.9616
   21SAPC     P 2708   3.270   5.604  10.735 -0.1149  0.1836  0.2634
   21SAPC   O13 2709   3.119   5.599  10.743 -0.1127  0.2865 -0.3308
   21SAPC   O14 2710   3.351   5.679  10.838  0.9297  0.3611 -0.1297
   21SAPC   O12 2711   3.310   5.445  10.727 -0.7989 -0.2253 -0.1198
   21SAPC   O11 2712   3.315   5.651  10.588  0.3778  0.3010 -0.0813
   21SAPC    C1 2713   3.263   5.598  10.463  0.0620 -0.0022 -0.1553
   21SAPC    HA 2714   3.347   5.558  10.403  0.3687  0.2504  0.1050
   21SAPC    HB 2715   3.196   5.512  10.486  1.1668 -0.6608  0.6880
   21SAPC    C2 2716   3.191   5.703  10.371 -0.2555  0.0164 -0.7440
   21SAPC    HS 2717   3.108   5.749  10.430  0.9272  1.7184 -0.3312
   21SAPC   O21 2718   3.142   5.615  10.261  0.3956  0.6790  0.4989
   21SAPC   C21 2719   3.024   5.654  10.209 -0.6743  0.8437  0.6213
   21SAPC   O22 2720   2.959   5.753  10.241 -0.0695 -0.0941 -0.1927
   21SAPC   C22 2721   2.984   5.562  10.096 -0.3343  1.2336 -0.0340
   21SAPC   H2R 2722   2.948   5.624  10.011 -2.0198  1.2766  0.6635
   21SAPC   H2S 2723   3.072   5.510  10.054 -1.4095 -0.7278  0.0045
   21SAPC    C3 2724   3.283   5.819  10.319  0.0400 -1.0520 -0.3281
   21SAPC    HX 2725   3.374   5.775  10.274  0.1172 -1.3106  0.0821
   21SAPC    HY 2726   3.323   5.864  10.412 -2.3826  0.6655  0.0149
   21SAPC   O31 2727   3.231   5.915  10.225  0.2796 -0.3369 -0.1831
   21SAPC   C31 2728   3.202   6.039  10.264  0.3350 -0.0484 -0.2216
   21SAPC   O32 2729   3.233   6.089  10.373  0.3210 -0.2743 -0.2809
   21SAPC   C32 2730   3.141   6.126  10.153 -0.3374  0.4338 -0.1187
   21SAPC   H2X 2731   3.209   6.210  10.124  0.0220 -0.0157 -0.6109
   21SAPC   H2Y 2732   3.050   6.173  10.197  0.0447 -0.2437  1.4805
   21SAPC   C23 2733   2.875   5.452  10.128  0.2054 -1.0246  0.6974
   21SAPC   H3R 2734   2.774   5.497  10.140 -0.1911 -1.6924 -0.0407
   21SAPC   H3S 2735   2.907   5.408  10.225  2.1434 -2.1246 -0.3807
   21SAPC   C24 2736   2.856   5.332  10.031  0.1155 -0.4751  1.0840
   21SAPC   H4R 2737   2.775   5.271  10.076 -0.1864  0.4031  1.7645
   21SAPC   H4S 2738   2.952   5.277  10.022 -0.1135 -0.4842 -2.3685
   21SAPC   C25 2739   2.813   5.367   9.889 -0.9031  0.1470 -0.4434
   21SAPC   H5R 2740   2.723   5.430   9.876 -1.1920 -0.2223 -0.2646
   21SAPC   C26 2741   2.874   5.327   9.778  0.1749 -0.0201  0.3012
   21SAPC   H6R 2742   2.832   5.370   9.686 -1.8052  2.4276  2.2000
   21SAPC   C27 2743   2.999   5.243   9.760 -0.4934  0.8060 -0.0490
   21SAPC   H7R 2744   3.013   5.177   9.848 -3.9488 -0.4077 -0.2348
   21SAPC   H7S 2745   3.091   5.304   9.746 -0.2845  0.1021 -2.0905
   21SAPC   C28 2746   2.961   5.154   9.640 -1.2751 -0.1392 -0.5811
   21SAPC   H8R 2747   2.893   5.068   9.653 -1.3949  0.0205 -0.1399
   21SAPC   C29 2748   3.018   5.176   9.519  0.7374  0.0725  0.6295
   21SAPC   H9R 2749   2.984   5.112   9.437 -1.6143  1.9986  0.0159
   21SAPC  C210 2750   3.123   5.280   9.492 -0.7070  0.0465  0.4993
   21SAPC  H10R 2751   3.209   5.280   9.563  0.6042  4.0795 -0.7905
   21SAPC  H10S 2752   3.074   5.380   9.491  0.3687  0.5925  0.6097
   21SAPC  C211 2753   3.188   5.256   9.362  0.4272 -1.0698  1.0509
   21SAPC  H11R 2754   3.239   5.158   9.365  0.9633 -0.7762  1.8002
   21SAPC  C212 2755   3.176   5.334   9.250 -1.4293  0.3934 -0.4494
   21SAPC  H12R 2756   3.212   5.291   9.155 -1.3608 -0.0438 -0.2242
   21SAPC  C213 2757   3.092   5.458   9.234 -0.5613  0.0896  0.1361
   21SAPC  H13R 2758   3.086   5.523   9.324 -0.1604  1.1143 -0.5566
   21SAPC  H13S 2759   2.987   5.424   9.222 -0.9025  0.6381  1.4494
   21SAPC  C214 2760   3.135   5.557   9.125 -0.7069  0.2062  0.1434
   21SAPC  H14R 2761   3.186   5.646   9.165 -1.1844 -0.3770  2.1558
   21SAPC  C215 2762   3.120   5.540   8.996 -0.1106  0.0413  0.2015
   21SAPC  H15R 2763   3.167   5.616   8.931 -0.8526 -1.4916 -2.2778
   21SAPC  C216 2764   3.060   5.424   8.919  0.3440  0.5323  0.5898
   21SAPC  H16R 2765   3.056   5.333   8.983  0.6645 -0.7442 -1.1305
   21SAPC  H16S 2766   3.125   5.402   8.832 -0.1587 -0.4929  0.4491
   21SAPC  C217 2767   2.919   5.456   8.862 -0.7535  0.2983 -0.8152
   21SAPC  H17R 2768   2.897   5.555   8.817  1.0859  1.1879  0.1073
   21SAPC  H17S 2769   2.852   5.462   8.951  2.3087  2.0754  1.5769
   21SAPC  C218 2770   2.882   5.349   8.762  0.4902 -0.5214 -1.1497
   21SAPC  H18R 2771   2.931   5.253   8.791  0.3514 -0.3580 -0.3590
   21SAPC  H18S 2772   2.920   5.396   8.669  1.2163  1.7776  0.2339
   21SAPC  C219 2773   2.732   5.321   8.744 -0.4355  0.8228  0.2619
   21SAPC  H19R 2774   2.698   5.254   8.826 -1.3702 -0.5924 -1.2017
   21SAPC  H19S 2775   2.723   5.256   8.654  1.9347  0.8147 -0.0259
   21SAPC  C220 2776   2.632   5.431   8.733  0.0641 -0.2185  0.6796
   21SAPC  H20R 2777   2.683   5.529   8.722 -1.0746  0.2612 -0.6955
   21SAPC  H20S 2778   2.576   5.437   8.829  0.3507  2.5430  0.7699
   21SAPC  H20T 2779   2.560   5.411   8.651  0.4649 -1.1010  0.5329
   21SAPC   C33 2780   3.102   6.042  10.025  0.5624 -0.3937 -0.8957
   21SAPC   H3X 2781   3.018   5.977  10.057 -0.0367  0.9775  0.4369
   21SAPC   H3Y 2782   3.191   5.984   9.995  1.2874 -0.5914  1.4651
   21SAPC   C34 2783   3.051   6.142   9.920  0.0418 -0.1837  0.2397
   21SAPC   H4X 2784   3.134   6.207   9.885 -0.2231  1.0298  1.7744
   21SAPC   H4Y 2785   2.971   6.202   9.967  0.2514 -1.5128  2.4069
   21SAPC   C35 2786   2.993   6.074   9.797  0.2622  0.1462  1.0444
   21SAPC   H5X 2787   2.909   6.007   9.825 -0.1665  0.3701  0.3234
   21SAPC   H5Y 2788   3.074   6.006   9.765 -0.4512  0.1118 -0.8362
   21SAPC   C36 2789   2.969   6.176   9.684  0.1285 -0.4826 -0.1729
   21SAPC   H6X 2790   3.058   6.242   9.679 -1.7949  2.2524 -0.6371
   21SAPC   H6Y 2791   2.881   6.240   9.707 -0.1185 -0.9424  0.2098
   21SAPC   C37 2792   2.953   6.104   9.549 -0.0175  0.2360  0.7572
   21SAPC   H7X 2793   2.872   6.029   9.556  1.6923 -2.0490 -1.9014
   21SAPC   H7Y 2794   3.042   6.042   9.524 -1.2120 -0.5153 -1.9095
   21SAPC   C38 2795   2.913   6.207   9.440  0.0620  0.1449  0.1544
   21SAPC   H8X 2796   3.008   6.262   9.426  0.2176 -0.8573 -4.0410
   21SAPC   H8Y 2797   2.844   6.279   9.489 -1.2580  0.1678 -1.6020
   21SAPC   C39 2798   2.875   6.142   9.311  0.2702  0.2791 -0.0034
   21SAPC   H9X 2799   2.837   6.215   9.237 -2.7783 -0.3933  0.7681
   21SAPC   H9Y 2800   2.797   6.066   9.332  1.4094 -0.6002  1.2942
   21SAPC  C310 2801   2.991   6.068   9.250 -0.1360  0.2480  0.0366
   21SAPC  H10X 2802   2.998   5.974   9.308  2.0158  1.2406  1.5034
   21SAPC  H10Y 2803   3.087   6.119   9.269 -0.6580 -0.0710  4.4459
   21SAPC  C311 2804   2.966   6.042   9.105 -0.0673  0.1427 -0.0354
   21SAPC  H11X 2805   3.006   6.126   9.044 -0.9828  0.3079 -0.4339
   21SAPC  H11Y 2806   2.856   6.035   9.087  0.3732 -3.3175 -2.3113
   21SAPC  C312 2807   3.025   5.909   9.054 -0.4306 -0.2911 -0.0814
   21SAPC  H12X 2808   2.976   5.839   9.124  0.6760 -0.0864  0.9304
   21SAPC  H12Y 2809   3.134   5.907   9.079 -0.1748  0.8742 -1.0176
   21SAPC  C313 2810   3.025   5.893   8.896  0.6174 -0.2422 -0.2045
   21SAPC  H13X 2811   3.073   5.795   8.879 -0.6186 -0.6665 -1.4426
   21SAPC  H13Y 2812   3.077   5.981   8.852  0.5660  1.4266  2.8282
   21SAPC  C314 2813   2.880   5.893   8.846  0.4497 -0.0993 -1.0316
   21SAPC  H14X 2814   2.838   5.996   8.853 -0.4275 -0.3395 -2.3314
   21SAPC  H14Y 2815   2.835   5.824   8.919  1.2780  0.0190 -0.4010
   21SAPC  C315 2816   2.867   5.841   8.702 -0.0610  0.1594  0.5165
   21SAPC  H15X 2817   2.886   5.732   8.702  0.2616  0.1886 -1.2376
   21SAPC  H15Y 2818   2.943   5.891   8.639 -0.9654  0.6362 -0.2100
   21SAPC  C316 2819   2.733   5.873   8.642  0.2025  0.1518  0.1493
   21SAPC  H16X 2820   2.725   5.982   8.626 -1.7491 -0.2769 -2.3674
   21SAPC  H16Y 2821   2.649   5.843   8.708 -0.7073  3.2513  0.5199
   21SAPC  C317 2822   2.721   5.812   8.504 -0.2378  0.4547 -0.3981
   21SAPC  H17X 2823   2.773   5.714   8.497 -0.4047  0.2287  1.1646
   21SAPC  H17Y 2824   2.777   5.881   8.436  1.2514 -1.0397 -0.7616
   21SAPC  C318 2825   2.582   5.800   8.455  0.1751 -0.2385  0.2028
   21SAPC  H18X 2826   2.536   5.900   8.464 -0.6809 -0.6585  0.5549
   21SAPC  H18Y 2827   2.535   5.735   8.531  0.1433  1.4032  1.6463
   21SAPC  H18Z 2828   2.557   5.765   8.352 -0.0733  3.5171 -1.1916
   22SAPC     N 2829   3.976   4.729  10.947 -0.3619  0.2482 -1.0570
   22SAPC   C12 2830   4.032   4.711  10.810  0.2342 -0.5141  0.4027
   22SAPC  H12A 2831   4.045   4.806  10.760 -2.5973 -0.1299  0.2049
   22SAPC  H12B 2832   3.952   4.666  10.753 -0.2055  1.1311 -0.3311
   22SAPC   C13 2833   3.919   4.600  10.983  0.1964  0.3317 -0.7331
   22SAPC  H13A 2834   3.819   4.583  10.946 -0.9135 -0.6245  2.3750
   22SAPC  H13B 2835   3.985   4.519  10.957  0.7176  0.9359 -1.3229
   22SAPC  H13C 2836   3.920   4.590  11.091  1.1843  2.1359 -0.5367
   22SAPC   C14 2837   4.090   4.760  11.041  0.1953  0.1727 -0.4001
   22SAPC  H14A 2838   4.141   4.847  11.005  0.8784 -1.1727 -2.9213
   22SAPC  H14B 2839   4.061   4.765  11.145  0.1774  0.7114 -0.4324
   22SAPC  H14C 2840   4.161   4.681  11.022  0.7543  0.9673 -1.7064
   22SAPC   C15 2841   3.863   4.819  10.959 -0.5357 -0.0954 -0.7025
   22SAPC  H15A 2842   3.784   4.807  10.887 -1.1235 -0.0368 -0.0728
   22SAPC  H15B 2843   3.815   4.793  11.052 -0.4554 -3.8322 -1.5714
   22SAPC  H15C 2844   3.893   4.923  10.971 -0.5025 -0.1112 -0.6454
   22SAPC   C11 2845   4.160   4.635  10.775 -0.8901 -0.1686 -0.1639
   22SAPC  H11A 2846   4.251   4.690  10.808  0.0140 -1.4265 -0.5089
   22SAPC  H11B 2847   4.193   4.641  10.669  1.5841 -1.0796  0.4943
   22SAPC     P 2848   4.082   4.389  10.748 -0.3753  0.1367  0.2159
   22SAPC   O13 2849   4.185   4.321  10.669  0.0865  0.0776 -0.0861
   22SAPC   O14 2850   4.011   4.319  10.855 -0.4238  0.3575 -0.3261
   22SAPC   O12 2851   4.160   4.501  10.824  0.4673 -0.5474  0.4981
   22SAPC   O11 2852   3.981   4.463  10.655 -0.4737  0.0641 -1.0270
   22SAPC    C1 2853   4.001   4.492  10.518 -0.1360  0.0837  0.4037
   22SAPC    HA 2854   4.005   4.602  10.499 -0.3096  0.1823  0.8982
   22SAPC    HB 2855   4.104   4.461  10.490  1.1620  2.3724  2.2455
   22SAPC    C2 2856   3.902   4.428  10.423  0.2352  0.3313  0.1736
   22SAPC    HS 2857   3.948   4.446  10.324 -0.4520  0.3178 -0.1549
   22SAPC   O21 2858   3.771   4.500  10.416  0.6275 -0.0438 -0.4852
   22SAPC   C21 2859   3.780   4.611  10.353 -0.0204  0.2251 -0.1604
   22SAPC   O22 2860   3.880   4.668  10.309 -0.2590 -0.0234 -0.1833
   22SAPC   C22 2861   3.639   4.671  10.346 -0.2672  0.5476  0.3586
   22SAPC   H2R 2862   3.594   4.666  10.447 -3.0664  1.2241 -0.7752
   22SAPC   H2S 2863   3.658   4.775  10.313  0.2985  1.2008  2.5515
   22SAPC    C3 2864   3.885   4.276  10.444  0.1369  0.4207  0.2326
   22SAPC    HX 2865   3.826   4.270  10.538 -1.6999  4.5132 -0.4612
   22SAPC    HY 2866   3.983   4.225  10.456  0.4856  1.1615  0.5731
   22SAPC   O31 2867   3.814   4.205  10.339 -0.3163 -0.2983  0.1413
   22SAPC   C31 2868   3.870   4.190  10.221  0.3816  0.0965  0.1321
   22SAPC   O32 2869   3.986   4.211  10.196 -0.4018 -0.3783  0.6585
   22SAPC   C32 2870   3.758   4.152  10.131  0.1159 -0.0755 -0.0080
   22SAPC   H2X 2871   3.684   4.234  10.126  0.8560  0.4986 -2.2224
   22SAPC   H2Y 2872   3.706   4.064  10.175  0.2515 -1.9526 -3.2829
   22SAPC   C23 2873   3.546   4.607  10.238 -0.1482 -0.2907 -0.3605
   22SAPC   H3R 2874   3.504   4.518  10.289  0.7600  0.2143  1.3672
   22SAPC   H3S 2875   3.599   4.583  10.143  0.3790  1.7278 -0.6123
   22SAPC   C24 2876   3.451   4.725  10.200  0.6910 -0.2928 -0.6276
   22SAPC   H4R 2877   3.495   4.778  10.113  0.4697  1.1904  0.1346
   22SAPC   H4S 2878   3.450   4.803  10.279  0.9879  0.2592 -1.1550
   22SAPC   C25 2879   3.313   4.672  10.166  0.0598 -0.1569  0.7451
   22SAPC   H5R 2880   3.239   4.710  10.238 -0.8876  2.7753 -1.5597
   22SAPC   C26 2881   3.282   4.590  10.059 -0.0620 -0.7981  0.7131
   22SAPC   H6R 2882   3.184   4.541  10.068  0.3988 -1.6295  1.3893
   22SAPC   C27 2883   3.387   4.551   9.954 -0.8161 -0.1184  0.3245
   22SAPC   H7R 2884   3.425   4.455   9.996 -0.2845  1.1366  2.9033
   22SAPC   H7S 2885   3.473   4.621   9.951 -1.3913  0.5786 -0.7716
   22SAPC   C28 2886   3.343   4.546   9.812  0.8971 -0.4505  0.0902
   22SAPC   H8R 2887   3.255   4.609   9.794  1.6836  0.4257 -0.8453
   22SAPC   C29 2888   3.385   4.472   9.711  0.2623  0.4119  0.1642
   22SAPC   H9R 2889   3.344   4.481   9.609  1.8946  1.9539 -0.4170
   22SAPC  C210 2890   3.495   4.375   9.722 -0.1531 -0.1600  0.0410
   22SAPC  H10R 2891   3.484   4.331   9.823 -1.4472 -0.6991 -0.3182
   22SAPC  H10S 2892   3.586   4.439   9.726 -1.2216  1.3665  1.7786
   22SAPC  C211 2893   3.507   4.256   9.626 -0.0591  0.3661  0.1512
   22SAPC  H11R 2894   3.481   4.158   9.667 -0.2078  0.3130 -0.0689
   22SAPC  C212 2895   3.540   4.272   9.494 -0.7665 -0.2244  0.1708
   22SAPC  H12R 2896   3.549   4.181   9.433  1.5473  1.5314 -2.3692
   22SAPC  C213 2897   3.574   4.399   9.422  0.9181 -0.6842  0.0645
   22SAPC  H13R 2898   3.603   4.484   9.487 -0.9161 -0.9394  1.2818
   22SAPC  H13S 2899   3.486   4.443   9.370  1.4817 -1.4220 -1.6178
   22SAPC  C214 2900   3.683   4.371   9.316 -0.4250  0.1687 -0.3308
   22SAPC  H14R 2901   3.787   4.401   9.337 -1.0086  2.0776 -0.0549
   22SAPC  C215 2902   3.662   4.339   9.185 -0.1136 -0.1372  0.3641
   22SAPC  H15R 2903   3.752   4.337   9.122 -0.3438  0.3043  0.0142
   22SAPC  C216 2904   3.529   4.298   9.133  0.0881  0.4188 -0.3059
   22SAPC  H16R 2905   3.460   4.257   9.210 -0.1963  2.7124  0.7303
   22SAPC  H16S 2906   3.539   4.219   9.056  0.6342 -0.1283  0.3139
   22SAPC  C217 2907   3.452   4.415   9.049 -0.6328 -0.5206  0.2061
   22SAPC  H17R 2908   3.525   4.468   8.985 -2.3059  0.5164 -0.9229
   22SAPC  H17S 2909   3.418   4.478   9.134  0.0638 -0.8411  0.7344
   22SAPC  C218 2910   3.338   4.368   8.962 -0.0784 -0.7908 -0.1929
   22SAPC  H18R 2911   3.377   4.295   8.888 -1.3690 -1.5341 -0.1717
   22SAPC  H18S 2912   3.294   4.454   8.908  0.5755 -0.4832 -0.2441
   22SAPC  C219 2913   3.223   4.297   9.031  0.5051  0.7583  0.2134
   22SAPC  H19R 2914   3.168   4.365   9.100  1.1823  0.6205  0.8978
   22SAPC  H19S 2915   3.239   4.202   9.086 -2.2175  0.7019  1.0610
   22SAPC  C220 2916   3.125   4.251   8.920  0.0889 -0.6571 -0.2254
   22SAPC  H20R 2917   3.183   4.200   8.840 -1.0803 -0.5934 -1.1350
   22SAPC  H20S 2918   3.083   4.342   8.874 -0.6671 -0.5043  0.7449
   22SAPC  H20T 2919   3.046   4.182   8.958 -0.0612 -1.1408 -1.3814
   22SAPC   C33 2920   3.793   4.110   9.987 -0.3097  0.3889  0.3827
   22SAPC   H3X 2921   3.889   4.054   9.992 -2.2998 -3.4025 -0.3476
   22SAPC   H3Y 2922   3.793   4.195   9.916 -1.1699 -0.1908 -0.3162
   22SAPC   C34 2923   3.699   4.000   9.937  0.4067  0.3424  0.4134
   22SAPC   H4X 2924   3.595   4.040   9.943  0.2504  0.1571 -0.7249
   22SAPC   H4Y 2925   3.704   3.908   9.999  1.2032 -1.8578 -2.6774
   22SAPC   C35 2926   3.730   3.957   9.791  0.1729 -0.7210  0.4856
   22SAPC   H5X 2927   3.828   3.906   9.805  0.2268 -1.2107 -1.4191
   22SAPC   H5Y 2928   3.734   4.044   9.723 -0.2046 -1.0654  0.0160
   22SAPC   C36 2929   3.623   3.865   9.736  0.0535 -0.3118  0.6619
   22SAPC   H6X 2930   3.525   3.918   9.731 -0.0787 -0.6801 -1.3856
   22SAPC   H6Y 2931   3.601   3.790   9.815  0.8979  1.6201  2.8692
   22SAPC   C37 2932   3.654   3.801   9.597 -0.3419  0.2128  0.5147
   22SAPC   H7X 2933   3.593   3.708   9.593 -2.9981  1.8872  0.0566
   22SAPC   H7Y 2934   3.761   3.769   9.602 -1.1023 -2.8806 -0.5355
   22SAPC   C38 2935   3.627   3.895   9.484 -0.1893 -0.2151  0.2905
   22SAPC   H8X 2936   3.694   3.982   9.499 -0.6250 -0.1362  1.9722
   22SAPC   H8Y 2937   3.520   3.926   9.489 -0.0600  0.1747  0.7777
   22SAPC   C39 2938   3.650   3.831   9.343  0.0543 -0.0765 -0.3834
   22SAPC   H9X 2939   3.594   3.735   9.341 -1.8611  0.8613  2.4728
   22SAPC   H9Y 2940   3.759   3.812   9.335  0.1868  0.4561  0.1116
   22SAPC  C310 2941   3.602   3.927   9.236  0.0195 -0.2359  0.2914
   22SAPC  H10X 2942   3.652   4.024   9.256 -0.2084  0.1629 -1.0159
   22SAPC  H10Y 2943   3.496   3.956   9.255  0.4876  0.9722  1.2139
   22SAPC  C311 2944   3.618   3.878   9.085  0.6698  0.2954  0.1215
   22SAPC  H11X 2945   3.561   3.783   9.079  0.0589  0.6427  0.4091
   22SAPC  H11Y 2946   3.724   3.851   9.064  0.5415 -0.5684  0.5217
   22SAPC  C312 2947   3.562   3.983   8.987 -0.4078 -0.1314  0.9754
   22SAPC  H12X 2948   3.632   4.064   8.960 -0.5167 -0.4428 -0.3301
   22SAPC  H12Y 2949   3.464   4.020   9.024 -1.5743 -0.5971 -1.4329
   22SAPC  C313 2950   3.541   3.921   8.846  0.6821  0.2568 -0.3419
   22SAPC  H13X 2951   3.470   3.839   8.868 -1.2935  1.5850 -1.5295
   22SAPC  H13Y 2952   3.627   3.873   8.795  1.0590 -0.3146  0.7801
   22SAPC  C314 2953   3.450   4.013   8.756 -0.0334 -0.0711  0.3704
   22SAPC  H14X 2954   3.360   4.044   8.813  1.1109  1.8933  1.1995
   22SAPC  H14Y 2955   3.420   3.960   8.663  0.4847  1.2823 -0.5986
   22SAPC  C315 2956   3.520   4.140   8.708  0.1480  0.4894  0.4279
   22SAPC  H15X 2957   3.615   4.112   8.657  1.4587  2.8334  1.4239
   22SAPC  H15Y 2958   3.546   4.205   8.794 -1.1625 -0.5226  1.6372
   22SAPC  C316 2959   3.440   4.227   8.606  0.1058  0.1644  0.1591
   22SAPC  H16X 2960   3.342   4.230   8.659  0.1602 -4.1094  0.8154
   22SAPC  H16Y 2961   3.417   4.179   8.509 -1.3166  2.1082 -0.5446
   22SAPC  C317 2962   3.505   4.356   8.563 -0.0891 -0.5528 -0.0596
   22SAPC  H17X 2963   3.449   4.374   8.468  0.3575  0.0690 -0.2131
   22SAPC  H17Y 2964   3.614   4.348   8.545 -0.1767 -0.3099 -0.7476
   22SAPC  C318 2965   3.477   4.475   8.650  0.7290  0.0100 -0.3166
   22SAPC  H18X 2966   3.490   4.564   8.585 -1.1390 -0.6954 -1.7430
   22SAPC  H18Y 2967   3.552   4.481   8.732  1.2642 -0.8619 -0.7190
   22SAPC  H18Z 2968   3.374   4.484   8.690  0.3258  3.8616 -1.8183
   23SAPC     N 2969   3.560   6.336  10.907 -0.4088 -0.4292 -0.3574
   23SAPC   C12 2970   3.586   6.197  10.961  0.3321 -0.1372  0.7783
   23SAPC  H12A 2971   3.530   6.196  11.054  0.4711  1.4767  0.9118
   23SAPC  H12B 2972   3.693   6.193  10.980  0.3847 -1.7098  0.2986
   23SAPC   C13 2973   3.409   6.360  10.874 -0.2341 -0.4372 -1.6304
   23SAPC  H13A 2974   3.382   6.462  10.898  0.5373 -0.5239 -0.3160
   23SAPC  H13B 2975   3.379   6.347  10.771 -0.5598 -1.8362 -1.3786
   23SAPC  H13C 2976   3.346   6.312  10.947 -2.6353  1.6060 -2.2325
   23SAPC   C14 2977   3.606   6.437  11.004  0.1143 -0.6777  0.7517
   23SAPC  H14A 2978   3.571   6.425  11.106  1.1450 -0.0459  1.1942
   23SAPC  H14B 2979   3.714   6.440  11.003  0.1366 -0.9900 -0.9232
   23SAPC  H14C 2980   3.570   6.535  10.977  1.6086 -0.3676 -0.2527
   23SAPC   C15 2981   3.634   6.371  10.779  0.7790 -0.4480  0.4724
   23SAPC  H15A 2982   3.738   6.343  10.786  0.2698 -2.3492  1.3618
   23SAPC  H15B 2983   3.598   6.304  10.702 -1.0124  1.3431 -0.3458
   23SAPC  H15C 2984   3.625   6.476  10.756  1.6788 -0.1245  1.5118
   23SAPC   C11 2985   3.538   6.090  10.877 -0.0330 -0.3773  0.3101
   23SAPC  H11A 2986   3.432   6.104  10.847  0.7855  1.6672 -1.9536
   23SAPC  H11B 2987   3.540   5.994  10.933  1.2055  1.5492  3.8920
   23SAPC     P 2988   3.750   6.012  10.751 -0.1164 -0.3606 -0.1218
   23SAPC   O13 2989   3.844   6.110  10.691 -0.2526  0.0510 -0.0984
   23SAPC   O14 2990   3.782   5.955  10.882 -0.2691  0.5625 -0.6713
   23SAPC   O12 2991   3.611   6.083  10.753  0.0960  0.2089  0.1592
   23SAPC   O11 2992   3.724   5.897  10.640 -0.0357  0.4665  0.0906
   23SAPC    C1 2993   3.705   5.936  10.502  0.1409 -0.3209 -0.0700
   23SAPC    HA 2994   3.636   5.860  10.459  0.6934 -0.6720 -0.3441
   23SAPC    HB 2995   3.654   6.032  10.482 -0.1718 -1.0185 -3.1810
   23SAPC    C2 2996   3.829   5.920  10.416 -0.6682 -0.4675 -0.0311
   23SAPC    HS 2997   3.897   6.000  10.451 -3.4504  1.9245  0.3018
   23SAPC   O21 2998   3.808   5.929  10.278  0.0909 -0.4008 -0.2849
   23SAPC   C21 2999   3.789   6.052  10.231  0.1693 -0.4498  0.1574
   23SAPC   O22 3000   3.792   6.156  10.290 -0.4281  0.2158 -0.4391
   23SAPC   C22 3001   3.766   6.052  10.081  0.2594  0.0002  0.0456
   23SAPC   H2R 3002   3.815   5.962  10.039 -0.1241 -0.7076  1.0560
   23SAPC   H2S 3003   3.658   6.046  10.057  0.8557 -0.7462 -2.7742
   23SAPC    C3 3004   3.891   5.781  10.454 -0.5647  0.5178 -0.2487
   23SAPC    HX 3005   3.817   5.704  10.426 -1.4060  0.0623  2.8538
   23SAPC    HY 3006   3.908   5.762  10.562  0.9415  0.3282 -0.4876
   23SAPC   O31 3007   4.016   5.756  10.385  0.2612  0.0900  0.3581
   23SAPC   C31 3008   4.116   5.825  10.423 -0.2241 -0.2453 -0.4272
   23SAPC   O32 3009   4.113   5.899  10.521 -0.6193 -0.3730  0.1496
   23SAPC   C32 3010   4.235   5.821  10.322  0.7775  0.2036 -0.0857
   23SAPC   H2X 3011   4.201   5.861  10.224  1.5522 -0.7654 -0.7771
   23SAPC   H2Y 3012   4.243   5.713  10.295  0.5559  0.4209 -1.0581
   23SAPC   C23 3013   3.807   6.185  10.010 -0.2189  0.8973  0.8074
   23SAPC   H3R 3014   3.893   6.233  10.060  0.4981  0.2089  0.2545
   23SAPC   H3S 3015   3.722   6.257  10.018 -0.4435  0.7601 -0.1946
   23SAPC   C24 3016   3.831   6.159   9.862  0.0360 -0.4698 -0.0012
   23SAPC   H4R 3017   3.910   6.082   9.844 -1.1680 -1.6303 -0.5511
   23SAPC   H4S 3018   3.876   6.248   9.814  1.3467 -1.0805  0.0387
   23SAPC   C25 3019   3.709   6.119   9.779 -0.1447 -0.6495 -0.2908
   23SAPC   H5R 3020   3.624   6.185   9.802  0.6556  0.9173 -1.5860
   23SAPC   C26 3021   3.695   6.026   9.682 -0.5088  0.1486  0.1572
   23SAPC   H6R 3022   3.590   6.001   9.659 -0.8675  1.4685  0.2974
   23SAPC   C27 3023   3.797   5.927   9.634  0.8140  0.0064 -0.3180
   23SAPC   H7R 3024   3.735   5.844   9.593  1.3965 -2.0234  2.5830
   23SAPC   H7S 3025   3.848   5.875   9.718  0.3809  1.3211  0.8097
   23SAPC   C28 3026   3.897   5.967   9.532  0.3882  0.3586  0.0711
   23SAPC   H8R 3027   3.915   6.074   9.551 -2.8267  1.3010 -1.6075
   23SAPC   C29 3028   3.936   5.909   9.425  0.1492  0.4742 -0.1304
   23SAPC   H9R 3029   4.013   5.956   9.362  0.6585  0.0456  0.1681
   23SAPC  C210 3030   3.880   5.776   9.370 -0.7407  0.0760 -0.2245
   23SAPC  H10R 3031   3.799   5.802   9.298 -0.5427 -1.9880 -1.2617
   23SAPC  H10S 3032   3.825   5.715   9.445  2.2095 -0.2650  1.8496
   23SAPC  C211 3033   3.994   5.702   9.299  0.2260  0.1234 -1.0758
   23SAPC  H11R 3034   4.046   5.634   9.367  0.3987  2.0720  0.8679
   23SAPC  C212 3035   4.037   5.721   9.171  0.5735 -0.7333 -0.2450
   23SAPC  H12R 3036   4.108   5.647   9.132  2.2849  1.5781 -1.7919
   23SAPC  C213 3037   3.986   5.816   9.068  0.0793 -0.0239  0.5972
   23SAPC  H13R 3038   3.957   5.913   9.114  0.4256 -0.0546  0.8840
   23SAPC  H13S 3039   3.890   5.772   9.032 -1.5648  4.8924 -1.9024
   23SAPC  C214 3040   4.085   5.838   8.952  0.1544 -0.1287  0.1804
   23SAPC  H14R 3041   4.188   5.803   8.963  0.1122 -1.4307 -2.7091
   23SAPC  C215 3042   4.062   5.895   8.835  0.8300 -0.5267 -0.0435
   23SAPC  H15R 3043   4.146   5.909   8.765 -0.4086 -1.5773 -1.8360
   23SAPC  C216 3044   3.923   5.942   8.778  0.4577 -0.1529 -0.2550
   23SAPC  H16R 3045   3.848   5.902   8.849 -1.4148  2.5786 -0.5302
   23SAPC  H16S 3046   3.886   5.902   8.681  1.1884  1.4360 -1.2245
   23SAPC  C217 3047   3.905   6.086   8.762  0.3835 -0.6719 -0.3797
   23SAPC  H17R 3048   3.930   6.139   8.857  1.7372 -2.8117  0.5288
   23SAPC  H17S 3049   3.799   6.106   8.734 -0.1492  0.6810  2.3251
   23SAPC  C218 3050   3.999   6.135   8.650  0.2354  0.7806 -0.1523
   23SAPC  H18R 3051   3.980   6.069   8.562  2.0995  1.0390 -0.7832
   23SAPC  H18S 3052   4.100   6.103   8.682 -0.1449 -2.1766 -1.5535
   23SAPC  C219 3053   3.984   6.281   8.611  0.1223 -0.5294  0.4819
   23SAPC  H19R 3054   3.996   6.343   8.703  1.6039 -0.8927  0.5589
   23SAPC  H19S 3055   3.880   6.294   8.574  0.1977 -0.4861  0.2814
   23SAPC  C220 3056   4.074   6.339   8.500  0.3948  1.0661  0.3756
   23SAPC  H20R 3057   4.068   6.266   8.416  0.3194  1.4810  0.0205
   23SAPC  H20S 3058   4.181   6.341   8.532  0.1974  0.0648  1.1526
   23SAPC  H20T 3059   4.039   6.435   8.458  0.4618  1.3300  0.9126
   23SAPC   C33 3060   4.368   5.874  10.372  0.3199 -0.4315  0.1166
   23SAPC   H3X 3061   4.394   5.816  10.463  0.5906  2.4338  2.0207
   23SAPC   H3Y 3062   4.350   5.978  10.407  1.1894 -0.5545  0.9616
   23SAPC   C34 3063   4.481   5.862  10.271 -0.2313  0.0958 -0.2884
   23SAPC   H4X 3064   4.571   5.879  10.334 -0.4593  0.9430 -0.1684
   23SAPC   H4Y 3065   4.479   5.942  10.193  1.5468  0.3644 -0.0960
   23SAPC   C35 3066   4.500   5.736  10.198  0.2976  0.4085  0.0179
   23SAPC   H5X 3067   4.411   5.706  10.140 -0.1950  1.7219  0.0537
   23SAPC   H5Y 3068   4.509   5.655  10.274 -2.8833 -1.5659 -1.5183
   23SAPC   C36 3069   4.618   5.738  10.097  0.1002  0.1281  0.4607
   23SAPC   H6X 3070   4.714   5.741  10.153 -0.4736 -2.6416  1.7928
   23SAPC   H6Y 3071   4.610   5.821  10.025 -0.0605 -0.2023  0.0958
   23SAPC   C37 3072   4.619   5.604  10.022 -0.4472  0.0841  0.1686
   23SAPC   H7X 3073   4.568   5.520  10.073 -0.1155 -0.7753 -0.8880
   23SAPC   H7Y 3074   4.727   5.582  10.023 -0.8287 -2.0101  1.9334
   23SAPC   C38 3075   4.556   5.616   9.883 -0.0442 -0.4589  0.0469
   23SAPC   H8X 3076   4.615   5.700   9.842  1.2546 -0.9830  0.7716
   23SAPC   H8Y 3077   4.455   5.660   9.900  0.5526  0.8987  0.1855
   23SAPC   C39 3078   4.559   5.499   9.788 -0.2362 -0.4606  0.4601
   23SAPC   H9X 3079   4.529   5.403   9.835  2.6392 -2.5084 -1.5381
   23SAPC   H9Y 3080   4.664   5.476   9.760 -0.8634 -0.8587 -1.8270
   23SAPC  C310 3081   4.474   5.534   9.662 -0.1634  0.6981  0.0726
   23SAPC  H10X 3082   4.483   5.638   9.624 -1.6952  1.0984  0.7184
   23SAPC  H10Y 3083   4.367   5.534   9.691 -0.3681  0.6589 -0.6707
   23SAPC  C311 3084   4.487   5.439   9.547  0.0754  0.5681  0.0825
   23SAPC  H11X 3085   4.525   5.344   9.590 -0.4633 -0.1709 -1.0287
   23SAPC  H11Y 3086   4.570   5.483   9.487 -0.3042  2.0364  0.6038
   23SAPC  C312 3087   4.364   5.422   9.458 -0.0234  0.1922 -0.7009
   23SAPC  H12X 3088   4.337   5.527   9.436  1.3767  0.6737 -0.2566
   23SAPC  H12Y 3089   4.290   5.370   9.523  0.3102  0.2852 -0.2398
   23SAPC  C313 3090   4.371   5.339   9.343 -0.0156  0.3310 -0.2466
   23SAPC  H13X 3091   4.412   5.237   9.355 -0.1995  0.4270  1.3736
   23SAPC  H13Y 3092   4.442   5.382   9.269  0.0149 -0.6837 -0.8320
   23SAPC  C314 3093   4.230   5.332   9.285  0.4176 -0.1885 -0.0130
   23SAPC  H14X 3094   4.203   5.431   9.242  1.2964 -0.3982 -1.0613
   23SAPC  H14Y 3095   4.151   5.312   9.361 -0.1008  2.5342  0.2707
   23SAPC  C315 3096   4.216   5.223   9.168  0.6390  0.0429 -0.8129
   23SAPC  H15X 3097   4.197   5.132   9.228 -0.1747  1.1572  0.6737
   23SAPC  H15Y 3098   4.311   5.210   9.112  1.2644 -1.4700  0.5430
   23SAPC  C316 3099   4.105   5.264   9.069 -0.4728 -0.4825  0.4977
   23SAPC  H16X 3100   4.147   5.352   9.016 -0.4970 -1.8509 -1.8927
   23SAPC  H16Y 3101   4.025   5.308   9.132  0.2527  1.0711  0.3732
   23SAPC  C317 3102   4.059   5.165   8.959 -0.0322 -0.5235  0.0796
   23SAPC  H17X 3103   4.039   5.068   9.008  1.7308  0.0217  1.9912
   23SAPC  H17Y 3104   4.145   5.160   8.889 -0.1008  0.4910 -0.0955
   23SAPC  C318 3105   3.933   5.208   8.890 -0.2143 -0.1767 -0.8340
   23SAPC  H18X 3106   3.914   5.141   8.803  0.2532  0.1472 -1.1880
   23SAPC  H18Y 3107   3.938   5.309   8.842 -1.1043 -1.2256 -3.3195
   23SAPC  H18Z 3108   3.840   5.207   8.951  1.2251  1.7245  1.5689
   24SAPC     N 3109   6.762   5.194  11.036 -0.0135 -0.1530  0.2893
   24SAPC   C12 3110   6.623   5.252  11.065 -0.1076 -0.5253  0.0220
   24SAPC  H12A 3111   6.613   5.274  11.170  3.3999  0.2154  0.3284
   24SAPC  H12B 3112   6.551   5.179  11.031  0.6857 -3.2221  3.6432
   24SAPC   C13 3113   6.786   5.167  10.887 -0.3628  0.0178 -0.0812
   24SAPC  H13A 3114   6.781   5.262  10.835 -3.3061 -1.1697 -2.2738
   24SAPC  H13B 3115   6.874   5.111  10.858 -0.7233  0.0606 -1.3465
   24SAPC  H13C 3116   6.701   5.110  10.851 -0.6029 -0.3629  1.0348
   24SAPC   C14 3117   6.875   5.292  11.081  0.2636  0.2224 -0.2751
   24SAPC  H14A 3118   6.876   5.383  11.023  0.1460 -1.2835 -2.7441
   24SAPC  H14B 3119   6.868   5.306  11.188 -2.0566 -0.9128 -0.2306
   24SAPC  H14C 3120   6.969   5.238  11.072  0.1862  0.1383 -0.5893
   24SAPC   C15 3121   6.777   5.061  11.106  0.1934 -1.2526  0.0573
   24SAPC  H15A 3122   6.867   5.017  11.068  0.3741 -0.3162 -0.6402
   24SAPC  H15B 3123   6.792   5.076  11.212 -2.9083  2.4133  0.2198
   24SAPC  H15C 3124   6.689   5.000  11.093  0.1448 -0.6996 -2.8881
   24SAPC   C11 3125   6.587   5.385  10.983 -0.1474 -0.0132 -0.1392
   24SAPC  H11A 3126   6.663   5.464  11.000  0.4385 -0.7347  0.6745
   24SAPC  H11B 3127   6.488   5.426  11.012  0.2547  0.7229  0.2144
   24SAPC     P 3128   6.461   5.291  10.772 -0.1931 -0.4965 -0.5713
   24SAPC   O13 3129   6.500   5.236  10.638 -0.5704 -0.3625 -0.8408
   24SAPC   O14 3130   6.399   5.207  10.874 -0.7324 -0.6496 -0.3786
   24SAPC   O12 3131   6.589   5.359  10.843  0.1259  0.4948  0.0823
   24SAPC   O11 3132   6.366   5.418  10.741 -0.4830 -0.0833  0.1078
   24SAPC    C1 3133   6.408   5.553  10.771  0.6736  0.5760  0.7616
   24SAPC    HA 3134   6.368   5.583  10.870 -1.0570 -2.2011  1.0283
   24SAPC    HB 3135   6.519   5.561  10.763  0.6307 -0.5739 -2.0197
   24SAPC    C2 3136   6.359   5.656  10.664 -0.2578  0.0420  0.4961
   24SAPC    HS 3137   6.248   5.661  10.664 -0.2922 -0.4935  1.3342
   24SAPC   O21 3138   6.405   5.616  10.533 -0.0369 -1.5877 -0.1538
   24SAPC   C21 3139   6.351   5.684  10.429  0.2812  0.5170 -0.1078
   24SAPC   O22 3140   6.272   5.776  10.436  0.1710 -0.5637  0.0336
   24SAPC   C22 3141   6.406   5.610  10.313  0.1403  0.2297  0.7489
   24SAPC   H2R 3142   6.499   5.554  10.334  2.1478  3.3474  0.6405
   24SAPC   H2S 3143   6.327   5.538  10.279  0.9023  0.5025 -1.8237
   24SAPC    C3 3144   6.424   5.798  10.697  0.1128  0.6218  0.8741
   24SAPC    HX 3145   6.417   5.803  10.808 -0.7754  0.0935  0.8536
   24SAPC    HY 3146   6.359   5.879  10.659  0.8586  1.4028  1.2389
   24SAPC   O31 3147   6.560   5.804  10.655 -0.2855 -0.3463  0.4513
   24SAPC   C31 3148   6.657   5.829  10.746  0.1297 -0.9182  0.7127
   24SAPC   O32 3149   6.635   5.857  10.863  0.2993 -0.1932  0.1740
   24SAPC   C32 3150   6.796   5.807  10.696 -0.4887  0.3760 -0.2649
   24SAPC   H2X 3151   6.846   5.739  10.768  0.7948 -2.6665 -3.7199
   24SAPC   H2Y 3152   6.855   5.901  10.704  1.5057 -0.8593  0.1850
   24SAPC   C23 3153   6.434   5.706  10.196  1.0182 -0.4830  0.3685
   24SAPC   H3R 3154   6.537   5.742  10.215  0.9893 -0.4186  0.4055
   24SAPC   H3S 3155   6.366   5.794  10.189 -0.5245 -1.5096  1.7662
   24SAPC   C24 3156   6.429   5.626  10.055 -0.6688 -0.2316  0.3580
   24SAPC   H4R 3157   6.323   5.593  10.060 -1.0286  1.0521  1.5384
   24SAPC   H4S 3158   6.497   5.538  10.063  2.5479  2.1252  0.7412
   24SAPC   C25 3159   6.448   5.699   9.923  0.0282 -0.1850  0.1940
   24SAPC   H5R 3160   6.438   5.808   9.931 -0.0155 -0.2442  1.0211
   24SAPC   C26 3161   6.497   5.650   9.806 -0.1562  0.8224  0.1365
   24SAPC   H6R 3162   6.482   5.712   9.716 -0.8649  0.1391 -0.2371
   24SAPC   C27 3163   6.532   5.508   9.776 -0.6122 -1.2889  0.0811
   24SAPC   H7R 3164   6.446   5.437   9.772 -1.1145 -0.6708 -0.2173
   24SAPC   H7S 3165   6.594   5.468   9.860 -1.7488  1.2326  2.2738
   24SAPC   C28 3166   6.623   5.511   9.656  0.6752  0.7958 -0.1964
   24SAPC   H8R 3167   6.731   5.503   9.676  0.9602  2.0064 -1.1548
   24SAPC   C29 3168   6.587   5.534   9.525 -0.9836  1.2006  0.3701
   24SAPC   H9R 3169   6.667   5.526   9.449  0.5743 -0.1734  2.0642
   24SAPC  C210 3170   6.455   5.557   9.462  0.2192 -0.3060 -0.3157
   24SAPC  H10R 3171   6.458   5.655   9.410 -2.0102 -0.5177 -0.9559
   24SAPC  H10S 3172   6.373   5.546   9.536 -1.2315  0.0351 -1.8069
   24SAPC  C211 3173   6.415   5.455   9.363 -0.0428  0.5729  0.6336
   24SAPC  H11R 3174   6.361   5.364   9.393  1.1330 -0.7977 -1.1489
   24SAPC  C212 3175   6.447   5.460   9.231  0.1101 -0.4800 -0.4307
   24SAPC  H12R 3176   6.403   5.384   9.164 -2.4495  0.1694  0.3996
   24SAPC  C213 3177   6.519   5.575   9.165 -0.3085  0.1839 -0.3919
   24SAPC  H13R 3178   6.559   5.543   9.067 -1.2806  1.0322 -1.0892
   24SAPC  H13S 3179   6.612   5.591   9.225  1.0072  1.5541 -2.6603
   24SAPC  C214 3180   6.435   5.697   9.142 -0.3901  0.3550  0.1140
   24SAPC  H14R 3181   6.332   5.687   9.179 -1.2311  2.0831 -1.5947
   24SAPC  C215 3182   6.448   5.806   9.067  0.0133  0.1174 -0.4827
   24SAPC  H15R 3183   6.377   5.888   9.083  1.8740  1.8270 -0.5409
   24SAPC  C216 3184   6.579   5.836   8.992 -0.5713 -0.3117 -0.0310
   24SAPC  H16R 3185   6.642   5.747   8.969  0.4450  0.1831  0.7167
   24SAPC  H16S 3186   6.647   5.909   9.042 -2.4348  1.8182 -0.4772
   24SAPC  C217 3187   6.538   5.924   8.867  0.3535  0.1130  0.3798
   24SAPC  H17R 3188   6.451   5.988   8.893 -1.2009 -1.1623 -1.4018
   24SAPC  H17S 3189   6.481   5.858   8.797 -3.0021 -1.1493  3.8907
   24SAPC  C218 3190   6.663   6.000   8.809  0.3913 -0.0091  0.1590
   24SAPC  H18R 3191   6.679   6.083   8.881 -1.7571 -0.6173  1.4089
   24SAPC  H18S 3192   6.625   6.042   8.713  1.1654 -1.0987 -0.6613
   24SAPC  C219 3193   6.780   5.907   8.783  0.0761 -0.6711  0.8501
   24SAPC  H19R 3194   6.748   5.812   8.737  0.1216 -0.5982  0.6655
   24SAPC  H19S 3195   6.826   5.883   8.882  0.8506  1.4317  1.0593
   24SAPC  C220 3196   6.885   5.968   8.692  0.8825 -0.1204  0.1111
   24SAPC  H20R 3197   6.965   5.892   8.676  2.4921  1.6385 -0.5270
   24SAPC  H20S 3198   6.917   6.063   8.741 -1.9825  1.7088 -1.3642
   24SAPC  H20T 3199   6.832   6.007   8.603 -2.3208  1.7941  2.6504
   24SAPC   C33 3200   6.806   5.729  10.556  0.6053  0.3402 -0.8009
   24SAPC   H3X 3201   6.728   5.652  10.539 -0.2898  1.3723 -1.5169
   24SAPC   H3Y 3202   6.908   5.685  10.549  1.3620  1.9843 -0.5921
   24SAPC   C34 3203   6.781   5.827  10.439 -0.8675  0.0436  0.4043
   24SAPC   H4X 3204   6.830   5.926  10.455 -2.6806  0.8582  1.1653
   24SAPC   H4Y 3205   6.673   5.850  10.427 -0.3019  2.9098  0.0503
   24SAPC   C35 3206   6.845   5.782  10.302  0.1636  0.5107  0.3042
   24SAPC   H5X 3207   6.955   5.768  10.314  0.4368 -0.7006 -2.7296
   24SAPC   H5Y 3208   6.836   5.859  10.222 -0.5460  0.7383  0.5980
   24SAPC   C36 3209   6.791   5.646  10.265 -0.4570  0.1264 -0.0576
   24SAPC   H6X 3210   6.685   5.637  10.296 -1.1642  1.8996 -1.7212
   24SAPC   H6Y 3211   6.845   5.567  10.321 -1.9817 -2.3367 -1.8748
   24SAPC   C37 3212   6.797   5.627  10.113  0.2261 -0.1100 -0.3513
   24SAPC   H7X 3213   6.721   5.689  10.061  0.5454  2.1394  1.6913
   24SAPC   H7Y 3214   6.760   5.523  10.110  2.6140 -1.0462 -3.8249
   24SAPC   C38 3215   6.935   5.647  10.044 -0.6259  0.4745  0.0418
   24SAPC   H8X 3216   7.018   5.601  10.103 -1.4447 -0.7443  0.2795
   24SAPC   H8Y 3217   6.966   5.753  10.048  0.5519  0.1314  0.5199
   24SAPC   C39 3218   6.946   5.583   9.905 -0.5942 -0.1454  0.0417
   24SAPC   H9X 3219   6.852   5.596   9.847 -0.6300  2.8641  0.6424
   24SAPC   H9Y 3220   6.954   5.472   9.916  1.8974 -0.1662 -1.3078
   24SAPC  C310 3221   7.077   5.629   9.834 -0.2851  0.5525  0.0227
   24SAPC  H10X 3222   7.160   5.620   9.907 -0.0339  3.3532  0.1842
   24SAPC  H10Y 3223   7.071   5.738   9.810  2.3037  0.4501 -1.5764
   24SAPC  C311 3224   7.124   5.557   9.699  0.3280  0.0176  0.2040
   24SAPC  H11X 3225   7.149   5.450   9.720  0.8987  0.1759  0.3356
   24SAPC  H11Y 3226   7.216   5.606   9.662 -0.7599  1.8337 -0.2132
   24SAPC  C312 3227   7.021   5.552   9.588 -0.3537  0.4995  0.0263
   24SAPC  H12X 3228   6.979   5.654   9.571 -3.4808 -0.6819  0.0312
   24SAPC  H12Y 3229   6.932   5.489   9.608  1.1143 -1.6130  0.2822
   24SAPC  C313 3230   7.088   5.511   9.454  1.1261  0.0008  0.2756
   24SAPC  H13X 3231   7.092   5.401   9.445  0.8102  0.0979 -1.3706
   24SAPC  H13Y 3232   7.191   5.552   9.440 -0.1110  2.6671 -1.9795
   24SAPC  C314 3233   7.002   5.556   9.335  0.3727 -0.3342 -0.4122
   24SAPC  H14X 3234   6.999   5.667   9.334  1.7284 -0.2726 -0.8369
   24SAPC  H14Y 3235   6.897   5.520   9.342 -0.5479  2.4233  1.3610
   24SAPC  C315 3236   7.070   5.506   9.209  0.8728 -0.3152 -0.4484
   24SAPC  H15X 3237   7.080   5.396   9.222 -0.5013 -0.9625 -3.9014
   24SAPC  H15Y 3238   7.162   5.568   9.192 -0.5357  1.9156 -0.3605
   24SAPC  C316 3239   6.973   5.517   9.092 -0.4470  0.1587  0.6558
   24SAPC  H16X 3240   6.898   5.597   9.112 -3.5416 -2.2589 -0.4243
   24SAPC  H16Y 3241   6.906   5.429   9.082  0.9990 -0.9094 -0.0881
   24SAPC  C317 3242   7.044   5.535   8.958  0.5469  1.2670  0.2599
   24SAPC  H17X 3243   7.098   5.442   8.929 -2.9220 -0.8877  0.2346
   24SAPC  H17Y 3244   7.114   5.621   8.965  1.5453  0.4785  0.1783
   24SAPC  C318 3245   6.935   5.546   8.850 -0.2316 -0.7527  0.7183
   24SAPC  H18X 3246   6.869   5.457   8.851 -1.3062  0.0243  2.4052
   24SAPC  H18Y 3247   6.977   5.545   8.747 -1.7695  0.6565  0.0340
   24SAPC  H18Z 3248   6.880   5.643   8.851  1.3910  0.2204  0.7509
   25SAPC     N 3249   4.439   3.383   5.945  0.1624  0.7623  0.4584
   25SAPC   C12 3250   4.329   3.482   5.968  0.1710 -0.1071  0.0320
   25SAPC  H12A 3251   4.316   3.521   5.869 -0.2366 -0.3964 -0.0305
   25SAPC  H12B 3252   4.373   3.564   6.022  2.0757 -1.7196  1.0780
   25SAPC   C13 3253   4.543   3.421   5.847  0.0510 -0.4540  0.5578
   25SAPC  H13A 3254   4.503   3.432   5.747 -0.8823  0.2158  0.9923
   25SAPC  H13B 3255   4.608   3.506   5.863  0.3789 -0.7823  1.0118
   25SAPC  H13C 3256   4.618   3.343   5.842  1.3307  0.6786  1.1469
   25SAPC   C14 3257   4.508   3.361   6.076 -0.2980 -0.4873  0.0053
   25SAPC  H14A 3258   4.579   3.280   6.082  1.7691  1.0028 -2.2322
   25SAPC  H14B 3259   4.554   3.456   6.100  0.1242 -1.2379  2.4324
   25SAPC  H14C 3260   4.427   3.348   6.147  1.2189 -2.8049  1.4488
   25SAPC   C15 3261   4.374   3.255   5.891 -0.1961 -0.5260  0.8465
   25SAPC  H15A 3262   4.450   3.179   5.875  0.6221  0.8104 -2.4224
   25SAPC  H15B 3263   4.302   3.218   5.962  1.0334 -0.6119  2.1050
   25SAPC  H15C 3264   4.317   3.275   5.802  0.6841  1.3557  0.6671
   25SAPC   C11 3265   4.193   3.440   6.026  0.0140  0.4993  0.0232
   25SAPC  H11A 3266   4.131   3.407   5.939  0.3093 -2.2092  0.7510
   25SAPC  H11B 3267   4.144   3.527   6.075 -0.6328  0.4395 -0.4972
   25SAPC     P 3268   4.099   3.282   6.223  0.0806 -0.2076 -0.0394
   25SAPC   O13 3269   3.983   3.373   6.232 -0.4651  0.1352  0.7221
   25SAPC   O14 3270   4.066   3.140   6.198  0.5828 -0.4569 -0.7447
   25SAPC   O12 3271   4.200   3.326   6.110 -0.0010  0.1591  0.0330
   25SAPC   O11 3272   4.188   3.275   6.359 -0.5660  0.0274  0.2979
   25SAPC    C1 3273   4.275   3.377   6.405 -0.8319 -0.5157 -0.1201
   25SAPC    HA 3274   4.381   3.341   6.405 -1.6254 -3.0632 -1.0111
   25SAPC    HB 3275   4.279   3.462   6.334 -2.3101  0.7038  1.1654
   25SAPC    C2 3276   4.244   3.434   6.542 -0.0626  0.3440 -0.8240
   25SAPC    HS 3277   4.330   3.501   6.563  0.7414 -0.3016 -1.9329
   25SAPC   O21 3278   4.262   3.317   6.627 -0.2185  0.2826 -0.4058
   25SAPC   C21 3279   4.311   3.339   6.753 -0.3166  0.7347 -0.3561
   25SAPC   O22 3280   4.359   3.443   6.789 -0.2592 -0.5905 -0.2153
   25SAPC   C22 3281   4.315   3.214   6.834  0.5097  0.4523 -0.0710
   25SAPC   H2R 3282   4.418   3.174   6.821  1.0970  1.6268  0.8623
   25SAPC   H2S 3283   4.298   3.248   6.938 -1.9341 -2.5098  0.6654
   25SAPC    C3 3284   4.104   3.502   6.564 -0.5433  0.0618 -0.2556
   25SAPC    HX 3285   4.027   3.432   6.527 -0.5779 -0.0435  0.0124
   25SAPC    HY 3286   4.098   3.592   6.498 -2.9147 -1.1401 -1.7896
   25SAPC   O31 3287   4.080   3.538   6.695 -0.5480 -0.4479  0.2758
   25SAPC   C31 3288   4.153   3.645   6.741  0.0426 -0.4622  0.2743
   25SAPC   O32 3289   4.231   3.710   6.672 -0.2301  0.0691  0.6149
   25SAPC   C32 3290   4.117   3.669   6.894 -0.4778  0.1415 -0.5244
   25SAPC   H2X 3291   4.206   3.638   6.953  0.3234 -1.6725 -2.5438
   25SAPC   H2Y 3292   4.036   3.598   6.919 -0.5266  0.7676  1.2701
   25SAPC   C23 3293   4.205   3.107   6.795 -0.7299 -0.6889  0.1514
   25SAPC   H3R 3294   4.227   3.075   6.691 -0.7979 -1.7852  0.4656
   25SAPC   H3S 3295   4.104   3.153   6.794 -0.5935 -0.3087 -2.4693
   25SAPC   C24 3296   4.209   2.989   6.895  0.1179 -0.6259  0.0885
   25SAPC   H4R 3297   4.134   2.914   6.862 -0.4364 -0.4766  0.9756
   25SAPC   H4S 3298   4.178   3.043   6.986  1.8633  0.7974 -0.0942
   25SAPC   C25 3299   4.346   2.918   6.907 -0.3804 -0.1825  0.0052
   25SAPC   H5R 3300   4.383   2.877   6.812 -2.5224  0.6294 -1.2471
   25SAPC   C26 3301   4.430   2.907   7.012  0.0453 -0.2102 -0.1142
   25SAPC   H6R 3302   4.515   2.837   7.002 -0.7185 -1.1862  0.0396
   25SAPC   C27 3303   4.405   2.968   7.151 -0.1623  0.6072  0.5814
   25SAPC   H7R 3304   4.354   3.063   7.126  1.9948  0.9372 -3.3078
   25SAPC   H7S 3305   4.510   2.989   7.181  0.9704  0.2371 -2.7153
   25SAPC   C28 3306   4.316   2.901   7.249  0.6077  0.3200  0.5223
   25SAPC   H8R 3307   4.238   2.837   7.207  0.0714  0.0783  1.8308
   25SAPC   C29 3308   4.317   2.920   7.378 -0.2421  0.3335  0.2633
   25SAPC   H9R 3309   4.258   2.855   7.444  0.8859 -0.6936  0.2863
   25SAPC  C210 3310   4.418   3.002   7.451  0.4774  0.0522 -0.9774
   25SAPC  H10R 3311   4.379   3.096   7.494  2.6133  0.0558  1.1826
   25SAPC  H10S 3312   4.504   3.046   7.397 -0.2941  1.4918 -1.0887
   25SAPC  C211 3313   4.496   2.919   7.551 -0.0628  0.2510 -0.0460
   25SAPC  H11R 3314   4.526   2.821   7.510 -1.1875 -0.3043  0.4182
   25SAPC  C212 3315   4.530   2.947   7.679  0.9014 -0.2392 -0.3745
   25SAPC  H12R 3316   4.584   2.872   7.739  3.3762 -0.0258 -2.1879
   25SAPC  C213 3317   4.498   3.080   7.742  0.0984 -0.1758 -0.1010
   25SAPC  H13R 3318   4.491   3.167   7.673  0.6805 -1.1730 -1.4566
   25SAPC  H13S 3319   4.585   3.107   7.806  0.6831  1.1114 -1.3888
   25SAPC  C214 3320   4.376   3.088   7.833 -0.1183 -0.5879 -0.4474
   25SAPC  H14R 3321   4.291   3.029   7.795  0.9928 -1.9157 -0.9693
   25SAPC  C215 3322   4.364   3.138   7.958  0.2808 -0.5420 -0.0947
   25SAPC  H15R 3323   4.265   3.134   8.007  0.4147  0.4298  0.2637
   25SAPC  C216 3324   4.463   3.212   8.045 -1.1157 -0.7138  0.5763
   25SAPC  H16R 3325   4.424   3.312   8.070  0.9522  0.2437  0.1727
   25SAPC  H16S 3326   4.555   3.209   7.983 -2.0922  0.5437 -0.9980
   25SAPC  C217 3327   4.490   3.143   8.178  0.4331  0.0577 -0.2537
   25SAPC  H17R 3328   4.580   3.203   8.208 -1.3250  2.4025  0.6722
   25SAPC  H17S 3329   4.512   3.035   8.164  1.7879  0.5469 -2.3138
   25SAPC  C218 3330   4.384   3.152   8.287 -0.3917  0.3779  0.6455
   25SAPC  H18R 3331   4.298   3.083   8.275 -0.0296  0.0594 -0.1429
   25SAPC  H18S 3332   4.342   3.253   8.266  0.2656  0.4743 -0.2464
   25SAPC  C219 3333   4.447   3.148   8.425  0.2414  0.0027  0.5181
   25SAPC  H19R 3334   4.542   3.206   8.424  0.2127  0.0613 -0.5186
   25SAPC  H19S 3335   4.489   3.047   8.446  2.0815  0.4005 -0.9221
   25SAPC  C220 3336   4.358   3.191   8.538 -0.5291 -0.5787  0.4044
   25SAPC  H20R 3337   4.320   3.292   8.514 -0.0787 -0.2211  1.1672
   25SAPC  H20S 3338   4.416   3.203   8.632  0.7263  2.8742 -0.6783
   25SAPC  H20T 3339   4.274   3.118   8.548  0.5761 -1.8325  0.8420
   25SAPC   C33 3340   4.068   3.810   6.931 -0.3931  0.3292 -0.0723
   25SAPC   H3X 3341   3.974   3.836   6.877 -0.3518 -1.3600 -1.0097
   25SAPC   H3Y 3342   4.140   3.890   6.903  1.3143 -0.4945  1.7140
   25SAPC   C34 3343   4.053   3.818   7.080  0.0191  0.0762 -0.9756
   25SAPC   H4X 3344   4.147   3.797   7.137 -0.7192  0.1853  0.3246
   25SAPC   H4Y 3345   3.977   3.746   7.118 -1.5260  1.2937 -1.6632
   25SAPC   C35 3346   3.996   3.960   7.110 -0.0667  0.7181  0.2971
   25SAPC   H5X 3347   3.899   3.986   7.062  0.1659  0.5957 -0.2411
   25SAPC   H5Y 3348   4.080   4.019   7.068 -0.4050  2.1955  1.5945
   25SAPC   C36 3349   3.987   3.989   7.259 -0.5685 -1.0732 -0.5541
   25SAPC   H6X 3350   3.984   4.095   7.289 -0.8711 -0.8047 -1.5049
   25SAPC   H6Y 3351   4.084   3.951   7.298  1.1970  0.7116 -2.9704
   25SAPC   C37 3352   3.881   3.912   7.332  0.2737 -0.4237 -0.3783
   25SAPC   H7X 3353   3.914   3.806   7.321 -0.9911 -0.6728 -2.3305
   25SAPC   H7Y 3354   3.787   3.922   7.274  0.4067  0.3021 -0.4761
   25SAPC   C38 3355   3.846   3.961   7.472  0.0586  0.1183 -0.7572
   25SAPC   H8X 3356   3.781   3.879   7.509  1.5491  0.2898  2.6502
   25SAPC   H8Y 3357   3.788   4.056   7.470 -1.6435 -0.8765 -0.7995
   25SAPC   C39 3358   3.963   3.968   7.567 -1.1218  0.0320  0.4436
   25SAPC   H9X 3359   4.037   4.047   7.543 -0.4467  0.0326  2.3537
   25SAPC   H9Y 3360   4.021   3.872   7.570 -1.7260 -0.3274  0.7232
   25SAPC  C310 3361   3.934   3.988   7.720  0.2866  0.2661 -0.2481
   25SAPC  H10X 3362   4.033   3.977   7.768 -1.1389 -1.3265  2.5364
   25SAPC  H10Y 3363   3.873   3.905   7.761 -0.7303  1.7733  1.4618
   25SAPC  C311 3364   3.865   4.126   7.749 -0.9139  0.2387 -0.3650
   25SAPC  H11X 3365   3.757   4.130   7.723 -1.2760 -0.8192  0.8719
   25SAPC  H11Y 3366   3.915   4.195   7.678  1.2712  0.6772  1.4854
   25SAPC  C312 3367   3.887   4.170   7.897  0.6823  0.1694  0.6239
   25SAPC  H12X 3368   3.873   4.278   7.915  1.0901  0.3320  0.0093
   25SAPC  H12Y 3369   3.987   4.130   7.924 -0.5836 -2.4325  1.8800
   25SAPC  C313 3370   3.788   4.103   7.985  0.7278  0.4479  0.6055
   25SAPC  H13X 3371   3.796   3.996   7.956 -1.4964  0.2776  0.4598
   25SAPC  H13Y 3372   3.687   4.146   7.969  0.9834  1.7033  2.1957
   25SAPC  C314 3373   3.830   4.110   8.132 -0.1580  0.1155 -0.5436
   25SAPC  H14X 3374   3.874   4.210   8.155  0.2701  0.1111 -1.3131
   25SAPC  H14Y 3375   3.906   4.033   8.152  0.6269  1.0489  0.1875
   25SAPC  C315 3376   3.711   4.074   8.224  0.2584 -0.7519 -0.1779
   25SAPC  H15X 3377   3.656   3.982   8.197 -1.0330 -0.5455  1.5333
   25SAPC  H15Y 3378   3.639   4.159   8.225 -0.1129 -1.0578  0.8317
   25SAPC  C316 3379   3.759   4.043   8.365 -0.7436 -0.6000  0.5112
   25SAPC  H16X 3380   3.825   3.954   8.352 -1.2830 -1.0562  0.8540
   25SAPC  H16Y 3381   3.683   4.025   8.443 -0.0244 -3.2936  0.6968
   25SAPC  C317 3382   3.849   4.153   8.429 -0.0152  0.4319 -0.5195
   25SAPC  H17X 3383   3.796   4.250   8.427  0.0347  0.4670 -0.1888
   25SAPC  H17Y 3384   3.936   4.161   8.361  0.4941 -1.9872 -0.2673
   25SAPC  C318 3385   3.897   4.110   8.570  0.2364  0.2997 -0.0835
   25SAPC  H18X 3386   3.935   4.006   8.567 -0.4635  0.0356 -0.0480
   25SAPC  H18Y 3387   3.812   4.113   8.641  0.1279 -0.3401 -0.1799
   25SAPC  H18Z 3388   3.979   4.181   8.594  1.9627 -1.9032  0.8662
   26SAPC     N 3389   1.750   5.116   5.955  0.1161  0.0102 -0.2246
   26SAPC   C12 3390   1.752   5.198   6.078 -0.8538 -0.1485 -0.3455
   26SAPC  H12A 3391   1.684   5.282   6.076 -0.0635  0.4947 -0.3312
   26SAPC  H12B 3392   1.847   5.247   6.087 -1.0843  0.2689 -0.1741
   26SAPC   C13 3393   1.637   5.025   5.958  0.3747 -0.4256 -0.2235
   26SAPC  H13A 3394   1.629   4.968   6.048 -0.6339  0.3593  0.2086
   26SAPC  H13B 3395   1.542   5.077   5.951  0.0486 -0.4949  2.6849
   26SAPC  H13C 3396   1.648   4.956   5.876 -0.8094  0.3291 -1.0529
   26SAPC   C14 3397   1.744   5.206   5.832 -0.3227  0.1165  0.2684
   26SAPC  H14A 3398   1.758   5.143   5.745 -0.1332 -1.3684  1.3311
   26SAPC  H14B 3399   1.653   5.264   5.836 -0.2084  0.2953  0.2577
   26SAPC  H14C 3400   1.829   5.272   5.830 -0.1532 -0.1064 -0.0675
   26SAPC   C15 3401   1.875   5.041   5.942  0.0232  0.3584 -0.0012
   26SAPC  H15A 3402   1.962   5.105   5.929  0.6160 -0.5048 -0.3666
   26SAPC  H15B 3403   1.888   4.984   6.033  1.1371  1.0530  0.2967
   26SAPC  H15C 3404   1.867   4.974   5.858  1.2358  2.4347 -1.8883
   26SAPC   C11 3405   1.730   5.116   6.209  0.7517 -0.6873  1.0855
   26SAPC  H11A 3406   1.631   5.067   6.218 -0.2387  1.4192  2.3069
   26SAPC  H11B 3407   1.718   5.190   6.291  3.0988  0.9371  0.0730
   26SAPC     P 3408   1.974   5.096   6.297 -0.6602  0.0304 -0.2238
   26SAPC   O13 3409   2.076   4.991   6.260  0.3481 -0.4925 -0.3751
   26SAPC   O14 3410   2.000   5.236   6.245  0.1460  0.0344 -0.1329
   26SAPC   O12 3411   1.841   5.034   6.239 -0.4446  0.2438 -0.0637
   26SAPC   O11 3412   1.943   5.105   6.449  0.6331 -0.1526  0.3493
   26SAPC    C1 3413   1.847   5.011   6.504  0.2265 -0.4016  0.6557
   26SAPC    HA 3414   1.749   5.054   6.472 -0.1975 -1.4949  0.4280
   26SAPC    HB 3415   1.849   4.910   6.459 -1.0385 -0.4335  0.6322
   26SAPC    C2 3416   1.855   5.005   6.656 -0.3002 -0.0556  0.1893
   26SAPC    HS 3417   1.875   5.106   6.698 -0.9208  0.1822 -0.0829
   26SAPC   O21 3418   1.963   4.912   6.685  0.5627  0.6899  0.4283
   26SAPC   C21 3419   2.084   4.967   6.697  0.6920 -0.0485 -0.5450
   26SAPC   O22 3420   2.113   5.081   6.685 -0.2606  0.3209  0.4248
   26SAPC   C22 3421   2.192   4.861   6.736 -0.0384 -0.0149  0.0344
   26SAPC   H2R 3422   2.175   4.820   6.838 -0.1509  0.1393  0.0785
   26SAPC   H2S 3423   2.180   4.775   6.667 -1.2872  0.0682  0.1367
   26SAPC    C3 3424   1.725   4.954   6.712 -0.3257  0.5221  0.2553
   26SAPC    HX 3425   1.710   4.846   6.691 -0.1791  0.4105  0.7084
   26SAPC    HY 3426   1.635   5.009   6.678 -0.3692 -0.9407 -2.2736
   26SAPC   O31 3427   1.736   4.970   6.853  0.0355  0.4185 -1.0742
   26SAPC   C31 3428   1.761   4.858   6.925 -0.7883 -0.0011 -0.6560
   26SAPC   O32 3429   1.793   4.752   6.880 -0.6109 -0.0221 -0.0631
   26SAPC   C32 3430   1.753   4.895   7.072 -0.2611  0.0645  0.3409
   26SAPC   H2X 3431   1.654   4.941   7.095 -1.0652 -1.3443 -0.1821
   26SAPC   H2Y 3432   1.829   4.975   7.087  2.9475 -2.4764 -1.2245
   26SAPC   C23 3433   2.339   4.913   6.742 -0.7529 -0.4483  0.5473
   26SAPC   H3R 3434   2.340   5.003   6.678  1.3133  1.0859  2.6102
   26SAPC   H3S 3435   2.410   4.838   6.701 -1.1550  0.4274 -1.8828
   26SAPC   C24 3436   2.375   4.962   6.888  0.5179  0.1889 -0.1961
   26SAPC   H4R 3437   2.481   4.994   6.892  0.5131  0.0769  1.5104
   26SAPC   H4S 3438   2.378   4.869   6.949  1.3157  1.0490  1.1190
   26SAPC   C25 3439   2.286   5.078   6.937 -0.2338  0.4210 -0.1913
   26SAPC   H5R 3440   2.252   5.153   6.864  0.3575  1.8989  0.9935
   26SAPC   C26 3441   2.246   5.091   7.067 -0.6535 -0.4853  0.2026
   26SAPC   H6R 3442   2.180   5.175   7.092  1.4269  1.1396  0.5118
   26SAPC   C27 3443   2.300   5.001   7.180  0.2097  0.1003  0.3745
   26SAPC   H7R 3444   2.301   5.055   7.277 -1.6923  1.7175 -0.4384
   26SAPC   H7S 3445   2.408   4.990   7.156  0.6830 -1.5718  2.8191
   26SAPC   C28 3446   2.242   4.865   7.194 -0.4831 -0.1114 -0.0870
   26SAPC   H8R 3447   2.243   4.806   7.101 -1.3009  1.9272 -1.4578
   26SAPC   C29 3448   2.206   4.800   7.311 -0.1114  0.0705 -0.2012
   26SAPC   H9R 3449   2.173   4.696   7.306  1.7155 -0.5595  0.3544
   26SAPC  C210 3450   2.220   4.856   7.450  0.2399 -0.6701 -0.0553
   26SAPC  H10R 3451   2.120   4.871   7.497  1.0589 -0.7207  1.7688
   26SAPC  H10S 3452   2.263   4.958   7.446 -1.5215  0.2330  1.9889
   26SAPC  C211 3453   2.306   4.769   7.529 -0.1471 -0.1525 -0.0719
   26SAPC  H11R 3454   2.347   4.679   7.480 -0.6680 -0.8688  0.7728
   26SAPC  C212 3455   2.344   4.788   7.654 -0.2858  0.1350 -0.5472
   26SAPC  H12R 3456   2.412   4.718   7.706  0.3084  1.6479  0.7942
   26SAPC  C213 3457   2.297   4.908   7.729 -0.8976 -0.1676 -0.3379
   26SAPC  H13R 3458   2.190   4.895   7.757 -1.2729  0.3916 -1.4462
   26SAPC  H13S 3459   2.300   5.000   7.667 -0.7905 -1.0146 -1.6518
   26SAPC  C214 3460   2.373   4.939   7.851 -0.3278  0.4067 -0.9462
   26SAPC  H14R 3461   2.452   5.015   7.842 -0.0527  0.3051  0.4386
   26SAPC  C215 3462   2.351   4.884   7.972 -0.5827 -0.0934 -0.1037
   26SAPC  H15R 3463   2.418   4.900   8.057  1.4058 -0.9260 -1.4432
   26SAPC  C216 3464   2.235   4.786   8.004 -0.9784  0.2609 -0.0059
   26SAPC  H16R 3465   2.277   4.689   8.035  0.1298  0.3161 -1.2291
   26SAPC  H16S 3466   2.168   4.785   7.915 -0.3468  2.1029 -0.5574
   26SAPC  C217 3467   2.144   4.835   8.121 -0.2838 -0.0103 -0.1881
   26SAPC  H17R 3468   2.045   4.787   8.104 -0.0382 -0.3902 -0.5638
   26SAPC  H17S 3469   2.130   4.944   8.104 -0.2960 -0.1325 -0.9860
   26SAPC  C218 3470   2.202   4.819   8.262 -0.6091  0.1611 -0.6973
   26SAPC  H18R 3471   2.153   4.876   8.344  1.0803 -0.2221  0.6255
   26SAPC  H18S 3472   2.310   4.846   8.256 -0.0361 -1.7757  0.2132
   26SAPC  C219 3473   2.187   4.674   8.321 -0.1788  0.5721  0.0998
   26SAPC  H19R 3474   2.260   4.678   8.404 -1.0429  2.4505  0.8191
   26SAPC  H19S 3475   2.211   4.599   8.243  0.9043  0.2228  0.7633
   26SAPC  C220 3476   2.047   4.637   8.372 -0.1108 -0.8556 -0.2317
   26SAPC  H20R 3477   2.035   4.707   8.458  0.3775 -0.7312 -0.2582
   26SAPC  H20S 3478   2.046   4.530   8.399  1.4665 -1.2275 -1.4698
   26SAPC  H20T 3479   1.973   4.669   8.295 -0.9662  0.2408  1.0071
   26SAPC   C33 3480   1.785   4.778   7.169  0.0791 -0.3627  1.3554
   26SAPC   H3X 3481   1.893   4.758   7.156 -0.0489 -0.4576  0.3382
   26SAPC   H3Y 3482   1.739   4.682   7.138  2.9911 -1.6409  0.6585
   26SAPC   C34 3483   1.750   4.809   7.311 -0.0666 -0.1521 -0.7219
   26SAPC   H4X 3484   1.639   4.810   7.316 -0.0506  0.0230 -0.2897
   26SAPC   H4Y 3485   1.768   4.913   7.345  0.1500  0.2574 -2.0442
   26SAPC   C35 3486   1.821   4.715   7.416 -0.1157  0.3981 -0.4594
   26SAPC   H5X 3487   1.929   4.735   7.400 -0.8282  4.3661 -1.5424
   26SAPC   H5Y 3488   1.796   4.612   7.385  1.5764 -0.2698  0.3047
   26SAPC   C36 3489   1.782   4.736   7.559 -0.1572  0.9508 -0.2311
   26SAPC   H6X 3490   1.683   4.690   7.579 -0.7495  1.6032 -1.5167
   26SAPC   H6Y 3491   1.776   4.845   7.583  0.2032  0.4046  2.6553
   26SAPC   C37 3492   1.892   4.679   7.654 -0.1075 -0.0879 -0.6551
   26SAPC   H7X 3493   1.855   4.713   7.754 -3.0667 -1.9782 -0.9987
   26SAPC   H7Y 3494   1.996   4.718   7.645  0.5079 -1.5014  0.1029
   26SAPC   C38 3495   1.908   4.524   7.643 -1.4399  0.2983 -0.5192
   26SAPC   H8X 3496   1.921   4.494   7.537 -0.6835  0.3228 -0.4395
   26SAPC   H8Y 3497   1.822   4.470   7.689 -0.2706  0.1492  1.5993
   26SAPC   C39 3498   2.036   4.466   7.714 -0.0291  0.1367  0.8168
   26SAPC   H9X 3499   2.129   4.516   7.679 -0.0085  0.3692  1.1972
   26SAPC   H9Y 3500   2.048   4.358   7.687  1.0361  0.4715 -0.1394
   26SAPC  C310 3501   2.026   4.483   7.865 -0.2241  0.9527 -0.2598
   26SAPC  H10X 3502   1.995   4.587   7.888 -1.3158  0.3623  1.0741
   26SAPC  H10Y 3503   2.131   4.468   7.896 -0.0273 -1.8604 -1.9562
   26SAPC  C311 3504   1.928   4.391   7.939  0.1561  0.4181 -0.4539
   26SAPC  H11X 3505   1.909   4.300   7.877  1.7604 -1.8190  2.1309
   26SAPC  H11Y 3506   1.830   4.429   7.973 -0.0491 -1.1896  0.9023
   26SAPC  C312 3507   1.988   4.342   8.070  0.1050  0.1153  0.5818
   26SAPC  H12X 3508   2.037   4.422   8.128  0.4479 -1.0305  1.9296
   26SAPC  H12Y 3509   2.068   4.273   8.034 -0.8725 -0.5354 -0.4155
   26SAPC  C313 3510   1.902   4.263   8.169 -0.3278  0.6482 -0.2179
   26SAPC  H13X 3511   1.967   4.216   8.245 -1.3352 -2.1476 -0.9508
   26SAPC  H13Y 3512   1.849   4.180   8.117  0.2303  2.1104 -3.3499
   26SAPC  C314 3513   1.794   4.357   8.242 -0.2526 -0.3405  0.1897
   26SAPC  H14X 3514   1.748   4.423   8.165  0.8198  1.4897  1.0722
   26SAPC  H14Y 3515   1.858   4.431   8.294 -0.2894 -0.1372 -0.0509
   26SAPC  C315 3516   1.706   4.289   8.344  0.8263 -0.0716 -0.0164
   26SAPC  H15X 3517   1.627   4.227   8.296  0.3803  0.4324  0.0642
   26SAPC  H15Y 3518   1.647   4.357   8.408 -0.8635 -2.2306  0.8429
   26SAPC  C316 3519   1.779   4.206   8.452 -0.6890  0.1516 -0.4217
   26SAPC  H16X 3520   1.810   4.113   8.399  1.8787  0.1540  0.8739
   26SAPC  H16Y 3521   1.712   4.184   8.538  0.3480  0.9607  0.6363
   26SAPC  C317 3522   1.901   4.266   8.519 -0.1473 -0.0793  0.2299
   26SAPC  H17X 3523   1.969   4.292   8.435  3.0209 -0.3693  2.5212
   26SAPC  H17Y 3524   1.954   4.198   8.590 -2.0365  0.9191  2.7707
   26SAPC  C318 3525   1.858   4.382   8.606  0.2342 -0.3462 -0.8460
   26SAPC  H18X 3526   1.929   4.465   8.626 -2.2500  1.6915  0.1255
   26SAPC  H18Y 3527   1.821   4.345   8.704 -1.5341  1.0501 -0.9267
   26SAPC  H18Z 3528   1.777   4.438   8.553 -1.0962 -2.0819 -0.7411
   27SAPC     N 3529   6.695   5.934   6.487 -0.4095 -0.0203  0.0831
   27SAPC   C12 3530   6.811   5.843   6.528 -0.7236 -0.6387 -0.8004
   27SAPC  H12A 3531   6.904   5.898   6.537  0.2338 -2.3834  0.4548
   27SAPC  H12B 3532   6.836   5.771   6.452  2.0011 -0.3555 -0.2935
   27SAPC   C13 3533   6.565   5.853   6.491 -0.1051  0.0074 -0.0171
   27SAPC  H13A 3534   6.552   5.820   6.593  3.2600  0.9129  0.8282
   27SAPC  H13B 3535   6.471   5.903   6.472 -0.1624 -1.0263 -3.0612
   27SAPC  H13C 3536   6.575   5.777   6.414  1.3867  2.9569 -2.9873
   27SAPC   C14 3537   6.675   6.062   6.559 -0.1804  0.7301 -0.0775
   27SAPC  H14A 3538   6.688   6.043   6.664 -1.3506 -2.1186 -0.3547
   27SAPC  H14B 3539   6.730   6.147   6.523  0.8227  0.4353  0.7233
   27SAPC  H14C 3540   6.570   6.087   6.554 -0.1600  1.1140  1.1226
   27SAPC   C15 3541   6.722   5.977   6.347 -0.1795  0.0282 -0.4568
   27SAPC  H15A 3542   6.805   6.042   6.324  1.3820 -0.9131  2.1702
   27SAPC  H15B 3543   6.745   5.885   6.296 -0.5391  0.4653 -1.4348
   27SAPC  H15C 3544   6.636   6.027   6.305  1.1528  0.5171 -2.7703
   27SAPC   C11 3545   6.793   5.775   6.666  0.1843  0.4751  0.0854
   27SAPC  H11A 3546   6.706   5.706   6.676 -0.4913  1.3467  0.3314
   27SAPC  H11B 3547   6.774   5.863   6.730  1.4022  0.3913  0.5883
   27SAPC     P 3548   6.975   5.585   6.648 -0.2939 -0.1266 -0.1297
   27SAPC   O13 3549   6.963   5.580   6.499 -0.4503  0.2834  0.5101
   27SAPC   O14 3550   7.112   5.566   6.708  0.4802  0.2035  0.9671
   27SAPC   O12 3551   6.922   5.722   6.709 -0.3640  0.4388  0.3142
   27SAPC   O11 3552   6.890   5.477   6.707 -0.0700  0.4958  0.3616
   27SAPC    C1 3553   6.863   5.451   6.846 -0.0188 -0.3566 -0.2069
   27SAPC    HA 3554   6.885   5.343   6.852 -0.1382 -0.5621 -2.5936
   27SAPC    HB 3555   6.935   5.506   6.911 -2.4489  2.5525  0.2655
   27SAPC    C2 3556   6.710   5.459   6.895  0.2238 -0.2222  0.0487
   27SAPC    HS 3557   6.670   5.562   6.881  0.1902  0.3111  3.1612
   27SAPC   O21 3558   6.706   5.434   7.039  0.6658 -0.6483  0.4104
   27SAPC   C21 3559   6.742   5.535   7.119  0.6137  0.0870 -1.1166
   27SAPC   O22 3560   6.777   5.645   7.083 -0.1915  0.4722  0.1178
   27SAPC   C22 3561   6.733   5.486   7.261  1.0939  0.0250 -0.5627
   27SAPC   H2R 3562   6.656   5.556   7.299  0.5696  0.0078 -1.5669
   27SAPC   H2S 3563   6.695   5.382   7.267 -0.9382  0.7172 -0.8714
   27SAPC    C3 3564   6.619   5.364   6.818  0.2473  0.0177 -0.5306
   27SAPC    HX 3565   6.678   5.270   6.829 -0.1930 -0.4337 -1.7853
   27SAPC    HY 3566   6.604   5.395   6.712 -0.9359  2.3463  0.2560
   27SAPC   O31 3567   6.487   5.353   6.886 -0.1323 -0.1436  0.4254
   27SAPC   C31 3568   6.435   5.236   6.852  0.2571  0.5234  0.1895
   27SAPC   O32 3569   6.476   5.166   6.760 -0.3605  0.6507 -0.3703
   27SAPC   C32 3570   6.325   5.189   6.942 -0.4648  0.9867 -0.3460
   27SAPC   H2X 3571   6.251   5.134   6.880  2.1588 -1.0313 -1.8671
   27SAPC   H2Y 3572   6.287   5.281   6.992  1.8676  1.4194  0.7634
   27SAPC   C23 3573   6.860   5.487   7.348 -0.2344 -1.2042  0.2105
   27SAPC   H3R 3574   6.820   5.493   7.452 -0.5020  0.3295  0.0521
   27SAPC   H3S 3575   6.929   5.573   7.333  0.3247 -1.9016 -1.4040
   27SAPC   C24 3576   6.949   5.361   7.342 -0.3191  0.0426 -0.0827
   27SAPC   H4R 3577   6.880   5.274   7.340 -0.2878 -0.0185  0.7821
   27SAPC   H4S 3578   7.004   5.347   7.438  0.2042 -0.2428 -0.4232
   27SAPC   C25 3579   7.029   5.356   7.215  0.0045  0.6252  0.2916
   27SAPC   H5R 3580   6.966   5.338   7.127 -1.1077  0.9812  0.9941
   27SAPC   C26 3581   7.161   5.366   7.204  0.9252 -0.5384 -0.0663
   27SAPC   H6R 3582   7.208   5.362   7.105  0.7918 -0.1731 -0.1445
   27SAPC   C27 3583   7.253   5.375   7.332  0.4135  0.5005 -0.0535
   27SAPC   H7R 3584   7.242   5.276   7.381  1.0598  0.0012 -0.8944
   27SAPC   H7S 3585   7.215   5.442   7.412  2.6032  1.1840  0.4614
   27SAPC   C28 3586   7.388   5.420   7.295  0.2713 -0.1689 -0.3255
   27SAPC   H8R 3587   7.395   5.449   7.189  2.6101 -2.2885 -0.8597
   27SAPC   C29 3588   7.493   5.441   7.383 -0.3219 -0.2129 -0.0278
   27SAPC   H9R 3589   7.586   5.473   7.332  0.1129 -0.5476  0.5496
   27SAPC  C210 3590   7.493   5.432   7.534  0.2858 -0.0590  0.5465
   27SAPC  H10R 3591   7.387   5.417   7.562  0.6200 -2.0157  0.9298
   27SAPC  H10S 3592   7.526   5.528   7.581 -2.0362  1.1108 -0.0933
   27SAPC  C211 3593   7.582   5.318   7.580  0.0538 -0.1014  0.4668
   27SAPC  H11R 3594   7.582   5.222   7.526  0.3041  0.6279 -0.8780
   27SAPC  C212 3595   7.669   5.331   7.679 -0.1966  0.3200 -0.6806
   27SAPC  H12R 3596   7.735   5.248   7.708  1.0851  1.0483 -1.4247
   27SAPC  C213 3597   7.694   5.457   7.762 -0.2607  0.6025 -0.7357
   27SAPC  H13R 3598   7.611   5.473   7.834  0.7992 -2.0018  1.2133
   27SAPC  H13S 3599   7.701   5.550   7.701 -0.8215  1.9163  1.1297
   27SAPC  C214 3600   7.823   5.444   7.842 -0.3375  0.6428 -0.8120
   27SAPC  H14R 3601   7.907   5.498   7.796 -0.8380  2.5779  0.4314
   27SAPC  C215 3602   7.834   5.394   7.966  0.0389 -0.1775 -0.4887
   27SAPC  H15R 3603   7.930   5.394   8.021  0.1931  1.2110 -0.7193
   27SAPC  C216 3604   7.719   5.337   8.041  0.2267  0.1355 -0.3124
   27SAPC  H16R 3605   7.686   5.240   7.997 -1.4632 -0.1116  1.3305
   27SAPC  H16S 3606   7.634   5.409   8.040  0.2554  0.1645 -0.7669
   27SAPC  C217 3607   7.771   5.306   8.184  0.1537 -0.1134  0.1646
   27SAPC  H17R 3608   7.861   5.242   8.171 -0.4838 -1.1789  0.8702
   27SAPC  H17S 3609   7.706   5.238   8.242 -0.4772  0.6507  0.3774
   27SAPC  C218 3610   7.804   5.446   8.254  0.0432 -0.6581 -0.4457
   27SAPC  H18R 3611   7.708   5.463   8.308  0.1377  2.3135 -1.0173
   27SAPC  H18S 3612   7.832   5.534   8.192  1.6830  0.0641  1.2332
   27SAPC  C219 3613   7.910   5.422   8.357  0.8124 -0.0474  0.3272
   27SAPC  H19R 3614   8.013   5.417   8.315  1.0444  0.8727  0.7556
   27SAPC  H19S 3615   7.891   5.321   8.399 -2.4716 -0.4387 -1.7825
   27SAPC  C220 3616   7.910   5.528   8.469 -0.2174  0.5462 -0.2435
   27SAPC  H20R 3617   7.986   5.504   8.546 -0.6888  3.0912  1.1570
   27SAPC  H20S 3618   7.813   5.519   8.523 -0.1445  0.2978 -0.1541
   27SAPC  H20T 3619   7.933   5.631   8.433 -0.6088  2.7183  4.8019
   27SAPC   C33 3620   6.381   5.089   7.051 -0.1512 -0.0019 -0.2568
   27SAPC   H3X 3621   6.480   5.047   7.022  0.6314  1.0402  0.8405
   27SAPC   H3Y 3622   6.324   4.994   7.061  0.8877 -0.5863  0.2410
   27SAPC   C34 3623   6.387   5.161   7.185 -1.0786  0.1711 -0.4318
   27SAPC   H4X 3624   6.284   5.172   7.224 -2.4285 -3.0555 -2.7055
   27SAPC   H4Y 3625   6.438   5.259   7.176  1.7321 -1.1333 -0.0547
   27SAPC   C35 3626   6.456   5.087   7.299  0.0983 -0.2690 -0.0135
   27SAPC   H5X 3627   6.565   5.077   7.275  0.1855 -1.0463  0.6578
   27SAPC   H5Y 3628   6.421   4.982   7.295 -1.2973  0.1895 -3.2509
   27SAPC   C36 3629   6.443   5.147   7.439  0.4938  0.0170 -0.4083
   27SAPC   H6X 3630   6.332   5.158   7.448  0.4680  0.2775 -0.9758
   27SAPC   H6Y 3631   6.493   5.246   7.428  3.3237 -1.1161  1.4242
   27SAPC   C37 3632   6.491   5.070   7.564  0.9622 -1.0132  0.3541
   27SAPC   H7X 3633   6.502   5.130   7.657 -0.2098 -2.0279  1.1759
   27SAPC   H7Y 3634   6.593   5.031   7.541  1.7868  1.1700  0.0266
   27SAPC   C38 3635   6.402   4.956   7.604  0.4947  0.4516  0.4964
   27SAPC   H8X 3636   6.416   4.867   7.539 -0.0855  0.0163  0.9577
   27SAPC   H8Y 3637   6.293   4.977   7.604  0.4595  0.2793  0.7400
   27SAPC   C39 3638   6.429   4.904   7.746  0.1967 -0.2472  0.3524
   27SAPC   H9X 3639   6.417   4.985   7.821  1.7048 -1.7498  2.3168
   27SAPC   H9Y 3640   6.536   4.875   7.750  0.2004 -0.1845  0.7577
   27SAPC  C310 3641   6.343   4.786   7.790  0.2253  1.2582  0.3241
   27SAPC  H10X 3642   6.365   4.710   7.712 -1.6778  0.1330  0.8432
   27SAPC  H10Y 3643   6.239   4.816   7.767 -0.2415 -0.7975 -0.4355
   27SAPC  C311 3644   6.371   4.760   7.936  0.7107  0.5915  0.7581
   27SAPC  H11X 3645   6.477   4.752   7.966  1.4256 -1.4057 -1.8961
   27SAPC  H11Y 3646   6.331   4.660   7.964  1.1981 -0.3671 -1.7609
   27SAPC  C312 3647   6.283   4.857   8.025 -0.1553  0.1431 -0.2354
   27SAPC  H12X 3648   6.177   4.856   7.991 -0.3816  3.0285  0.1992
   27SAPC  H12Y 3649   6.309   4.964   8.017 -0.0549  0.3016  1.7077
   27SAPC  C313 3650   6.282   4.805   8.175 -0.5977  0.5040 -0.6328
   27SAPC  H13X 3651   6.389   4.801   8.205 -0.5160 -0.8214 -1.0287
   27SAPC  H13Y 3652   6.244   4.700   8.167  1.1494 -0.0717 -2.0611
   27SAPC  C314 3653   6.197   4.886   8.271  0.0692 -0.4034 -0.2755
   27SAPC  H14X 3654   6.191   4.839   8.371 -1.9345 -0.3860 -0.3466
   27SAPC  H14Y 3655   6.092   4.872   8.238 -0.5001 -2.9506  2.2232
   27SAPC  C315 3656   6.243   5.031   8.278  0.7949  0.1462 -0.3595
   27SAPC  H15X 3657   6.243   5.079   8.178  2.9976  0.7881 -0.1120
   27SAPC  H15Y 3658   6.352   5.036   8.297  0.9027  0.1811 -0.9721
   27SAPC  C316 3659   6.180   5.108   8.396 -0.2125  0.2311  0.4157
   27SAPC  H16X 3660   6.182   5.038   8.483  1.3390  0.8064  0.8756
   27SAPC  H16Y 3661   6.072   5.130   8.383  0.4390  2.7342 -1.3574
   27SAPC  C317 3662   6.249   5.240   8.426 -0.0097  0.0560  0.6689
   27SAPC  H17X 3663   6.358   5.222   8.424  0.4885  2.4025  2.1404
   27SAPC  H17Y 3664   6.217   5.276   8.527 -3.2702  0.2377 -0.3239
   27SAPC  C318 3665   6.204   5.341   8.316  0.1781 -0.4828  0.5286
   27SAPC  H18X 3666   6.226   5.446   8.344 -0.2585 -0.2314 -0.0486
   27SAPC  H18Y 3667   6.095   5.357   8.306  0.4633  2.7214  1.3973
   27SAPC  H18Z 3668   6.256   5.329   8.219  0.9826 -1.4331  1.0544
   28SAPC     N 3669   0.075   2.497   5.800 -0.0945 -0.8830 -0.1292
   28SAPC   C12 3670  -0.038   2.549   5.895  0.0294  0.0322  0.3450
   28SAPC  H12A 3671  -0.122   2.483   5.885 -0.8241  1.2909 -1.4433
   28SAPC  H12B 3672  -0.060   2.647   5.855  0.8852 -0.3450 -1.1369
   28SAPC   C13 3673   0.187   2.592   5.811 -0.5977 -0.3427  0.2914
   28SAPC  H13A 3674   0.266   2.565   5.742 -0.7754 -0.5667  0.1721
   28SAPC  H13B 3675   0.157   2.693   5.788 -0.7734  0.0058  1.9089
   28SAPC  H13C 3676   0.225   2.592   5.912  2.2667 -0.3732 -0.6830
   28SAPC   C14 3677   0.127   2.363   5.848  0.2732 -0.0254 -0.0017
   28SAPC  H14A 3678   0.051   2.287   5.838  0.1603 -0.0056  0.6631
   28SAPC  H14B 3679   0.209   2.319   5.792 -0.9222 -1.6325 -0.5856
   28SAPC  H14C 3680   0.155   2.367   5.952 -0.9403  1.2383  0.3009
   28SAPC   C15 3681   0.043   2.492   5.655  0.1586  0.0714  0.2431
   28SAPC  H15A 3682   0.012   2.592   5.630 -0.0798  0.1215  0.7390
   28SAPC  H15B 3683   0.132   2.487   5.594  0.1883 -0.5383  0.3210
   28SAPC  H15C 3684  -0.026   2.413   5.630 -0.2640 -0.4962  2.9707
   28SAPC   C11 3685  -0.010   2.556   6.052 -0.2101 -0.0492  0.7634
   28SAPC  H11A 3686  -0.090   2.609   6.109 -0.3670  2.0585 -1.2506
   28SAPC  H11B 3687   0.086   2.608   6.073 -0.7667  1.1193  0.5521
   28SAPC     P 3688  -0.121   2.325   6.134  0.5337  0.0684  0.0953
   28SAPC   O13 3689  -0.237   2.323   6.045 -0.0463  0.6213  0.3602
   28SAPC   O14 3690  -0.066   2.194   6.161  0.1140 -0.3520  0.1459
   28SAPC   O12 3691  -0.001   2.415   6.089  1.0149 -0.1122 -0.6541
   28SAPC   O11 3692  -0.163   2.397   6.270 -0.0845 -0.1419  0.3166
   28SAPC    C1 3693  -0.103   2.366   6.397 -0.3111  0.5073 -0.0264
   28SAPC    HA 3694   0.005   2.341   6.393 -0.5060 -0.5147  0.7502
   28SAPC    HB 3695  -0.116   2.463   6.449 -3.0807  1.4362 -2.1442
   28SAPC    C2 3696  -0.187   2.256   6.472 -1.0597 -0.0025 -0.1571
   28SAPC    HS 3697  -0.165   2.153   6.437  1.1571  0.6636 -0.8680
   28SAPC   O21 3698  -0.333   2.287   6.463  0.0258  0.5331  0.1606
   28SAPC   C21 3699  -0.403   2.186   6.502  0.6034 -1.0112 -0.5217
   28SAPC   O22 3700  -0.362   2.080   6.537 -0.4235  0.1173  0.3841
   28SAPC   C22 3701  -0.553   2.210   6.483 -0.0745  0.4626  0.1313
   28SAPC   H2R 3702  -0.571   2.287   6.405  1.3210 -0.5052 -1.2004
   28SAPC   H2S 3703  -0.589   2.115   6.439  0.4177  0.3158  0.0375
   28SAPC    C3 3704  -0.136   2.243   6.623  1.0003  0.1107  0.3676
   28SAPC    HX 3705  -0.189   2.167   6.685 -0.0333  1.6383  1.4314
   28SAPC    HY 3706  -0.160   2.338   6.675 -1.7614 -1.0215  1.3748
   28SAPC   O31 3707   0.005   2.218   6.612  0.1426 -0.1024 -0.3834
   28SAPC   C31 3708   0.039   2.090   6.586 -0.6023 -1.5014 -0.6944
   28SAPC   O32 3709  -0.043   2.001   6.570  0.3054  0.1372 -0.0729
   28SAPC   C32 3710   0.189   2.081   6.597 -0.5284 -0.0202  0.5323
   28SAPC   H2X 3711   0.231   2.144   6.515  1.9766 -0.6997  1.2187
   28SAPC   H2Y 3712   0.217   1.974   6.588  0.1262  0.0374  1.7916
   28SAPC   C23 3713  -0.636   2.249   6.607 -0.3524 -0.0537 -0.1774
   28SAPC   H3R 3714  -0.730   2.298   6.572  1.1241  0.9035 -3.1662
   28SAPC   H3S 3715  -0.579   2.326   6.664  0.2557  0.5704 -1.5855
   28SAPC   C24 3716  -0.679   2.123   6.693  0.2855 -0.0186 -0.3735
   28SAPC   H4R 3717  -0.736   2.063   6.619 -0.8056  0.0285  0.4110
   28SAPC   H4S 3718  -0.594   2.056   6.721 -1.4191 -2.1796 -0.0512
   28SAPC   C25 3719  -0.763   2.169   6.815 -0.0813 -0.2647 -0.6241
   28SAPC   H5R 3720  -0.863   2.203   6.787 -0.6996  0.2444  1.9280
   28SAPC   C26 3721  -0.727   2.183   6.945  0.4663 -0.2339  0.3908
   28SAPC   H6R 3722  -0.802   2.222   7.015  0.2856  0.6049 -0.2527
   28SAPC   C27 3723  -0.595   2.146   7.002  0.2087  0.1722  0.3060
   28SAPC   H7R 3724  -0.555   2.063   6.940 -0.2932 -1.3151  1.8752
   28SAPC   H7S 3725  -0.610   2.107   7.105 -0.0109  0.7976  0.5140
   28SAPC   C28 3726  -0.502   2.265   6.999  0.1052  1.1396 -1.2367
   28SAPC   H8R 3727  -0.526   2.338   6.920  0.7159  1.9927 -0.6517
   28SAPC   C29 3728  -0.405   2.299   7.093  0.0548  0.0678 -0.2657
   28SAPC   H9R 3729  -0.347   2.392   7.084 -0.3600  0.2250 -1.5096
   28SAPC  C210 3730  -0.382   2.221   7.225 -0.2897  0.6903  0.5012
   28SAPC  H10R 3731  -0.438   2.126   7.227 -0.7750  0.9339 -0.8871
   28SAPC  H10S 3732  -0.429   2.279   7.307 -0.3645  2.3387 -0.6608
   28SAPC  C211 3733  -0.236   2.177   7.230 -0.3140 -0.0803  0.0972
   28SAPC  H11R 3734  -0.190   2.132   7.141  0.4651 -0.3942  0.6448
   28SAPC  C212 3735  -0.158   2.225   7.325  0.3081  0.3704 -0.1393
   28SAPC  H12R 3736  -0.053   2.194   7.321 -0.2319 -1.8435  1.1989
   28SAPC  C213 3737  -0.205   2.314   7.437  0.6193 -0.1927 -0.2376
   28SAPC  H13R 3738  -0.301   2.282   7.482 -0.9460  5.3498  1.1486
   28SAPC  H13S 3739  -0.217   2.421   7.408 -0.1288 -0.0314  0.6140
   28SAPC  C214 3740  -0.100   2.314   7.548  0.3337  0.3015  0.7579
   28SAPC  H14R 3741   0.002   2.289   7.516  0.2919 -0.4182  1.1531
   28SAPC  C215 3742  -0.124   2.359   7.674 -0.0045  1.0621  0.0892
   28SAPC  H15R 3743  -0.042   2.367   7.747  1.6327  3.6104 -1.8783
   28SAPC  C216 3744  -0.258   2.404   7.726  0.0331 -0.2762 -0.0988
   28SAPC  H16R 3745  -0.304   2.327   7.792 -1.0976  0.3424 -0.1321
   28SAPC  H16S 3746  -0.319   2.424   7.635  0.2669  0.4028 -0.1144
   28SAPC  C217 3747  -0.263   2.533   7.817 -0.0052 -0.4789 -0.8045
   28SAPC  H17R 3748  -0.203   2.516   7.909  1.2328 -0.7558 -1.6441
   28SAPC  H17S 3749  -0.368   2.553   7.847  0.1561 -1.2373  0.3013
   28SAPC  C218 3750  -0.205   2.651   7.741  0.2202 -0.2881 -0.6203
   28SAPC  H18R 3751  -0.268   2.663   7.651 -2.0707  0.6621  0.9996
   28SAPC  H18S 3752  -0.101   2.626   7.713  1.0458 -0.2814  2.1342
   28SAPC  C219 3753  -0.203   2.782   7.819  0.5838  0.3203  0.4840
   28SAPC  H19R 3754  -0.296   2.779   7.880 -0.7257 -0.1674 -1.4472
   28SAPC  H19S 3755  -0.207   2.865   7.746 -0.3389 -0.8779 -0.8662
   28SAPC  C220 3756  -0.076   2.801   7.910  0.3562  0.7494  0.3448
   28SAPC  H20R 3757  -0.089   2.729   7.994 -2.0465 -0.8767 -1.3093
   28SAPC  H20S 3758  -0.073   2.905   7.948 -4.2049  1.1080  0.2585
   28SAPC  H20T 3759   0.023   2.771   7.868  0.5843  0.8794  0.7856
   28SAPC   C33 3760   0.258   2.138   6.726 -0.4561 -0.2812 -0.4264
   28SAPC   H3X 3761   0.242   2.247   6.733 -0.4735 -0.3658  1.5623
   28SAPC   H3Y 3762   0.367   2.126   6.709  0.1222  1.4847  1.6411
   28SAPC   C34 3763   0.219   2.066   6.855 -0.1802  0.5560  0.3370
   28SAPC   H4X 3764   0.250   1.959   6.850  2.4324  1.3250 -3.1124
   28SAPC   H4Y 3765   0.109   2.057   6.870  0.0115 -0.8059  1.1612
   28SAPC   C35 3766   0.264   2.134   6.985  0.2831  0.1110  0.3773
   28SAPC   H5X 3767   0.235   2.241   6.987 -0.9769 -0.2155  0.5953
   28SAPC   H5Y 3768   0.375   2.134   6.978  0.1993  0.3931 -1.6960
   28SAPC   C36 3769   0.219   2.062   7.111 -0.3318  0.1378 -0.7240
   28SAPC   H6X 3770   0.245   1.954   7.120 -0.9573  0.1646  2.9724
   28SAPC   H6Y 3771   0.110   2.081   7.120 -0.1234  0.9612  0.2623
   28SAPC   C37 3772   0.269   2.134   7.236 -0.2960 -0.3174  0.0101
   28SAPC   H7X 3773   0.223   2.233   7.250 -3.5114 -1.2762 -2.6159
   28SAPC   H7Y 3774   0.378   2.151   7.223 -0.7171  2.6438 -0.1618
   28SAPC   C38 3775   0.242   2.054   7.365 -0.8651  0.3251 -0.2918
   28SAPC   H8X 3776   0.302   1.960   7.368 -2.8121 -0.9661  1.0808
   28SAPC   H8Y 3777   0.134   2.027   7.364 -0.7976  0.0053  0.4737
   28SAPC   C39 3778   0.272   2.130   7.489  0.0339 -0.2307  0.7896
   28SAPC   H9X 3779   0.218   2.226   7.478 -1.4254 -1.3311 -3.1879
   28SAPC   H9Y 3780   0.380   2.151   7.494 -0.1468  1.6446 -1.6193
   28SAPC  C310 3781   0.237   2.044   7.600  0.4621 -0.0882  0.6239
   28SAPC  H10X 3782   0.318   1.970   7.616  0.4734 -0.4495 -0.9203
   28SAPC  H10Y 3783   0.144   1.990   7.570  0.6337  0.6110 -1.2734
   28SAPC  C311 3784   0.201   2.113   7.731  0.0531  0.7578  0.9791
   28SAPC  H11X 3785   0.114   2.182   7.722 -0.0069  0.7025  1.1321
   28SAPC  H11Y 3786   0.283   2.180   7.766  3.0744 -1.8717 -0.5923
   28SAPC  C312 3787   0.170   2.006   7.838 -0.0288 -1.1017  1.0089
   28SAPC  H12X 3788   0.129   1.915   7.789 -1.6946  0.2212 -0.2079
   28SAPC  H12Y 3789   0.092   2.047   7.907  1.7595  1.8622  1.4130
   28SAPC  C313 3790   0.296   1.996   7.930 -0.4726 -0.2103  0.3963
   28SAPC  H13X 3791   0.326   2.099   7.960  0.8309 -0.0461 -1.3175
   28SAPC  H13Y 3792   0.380   1.955   7.871 -0.2461  1.5541 -0.5794
   28SAPC  C314 3793   0.272   1.896   8.040 -0.1301  0.2011 -0.2838
   28SAPC  H14X 3794   0.347   1.900   8.121 -2.7489 -0.2722  2.3140
   28SAPC  H14Y 3795   0.274   1.799   7.985 -1.2173 -0.7050  1.2199
   28SAPC  C315 3796   0.137   1.894   8.101  0.1652 -0.3005 -0.3147
   28SAPC  H15X 3797   0.044   1.899   8.040 -0.7420 -0.6889  0.9941
   28SAPC  H15Y 3798   0.128   1.977   8.175  0.6562 -1.9238  1.6454
   28SAPC  C316 3799   0.124   1.769   8.188 -1.1125  0.2168  0.5225
   28SAPC  H16X 3800   0.213   1.748   8.251  0.8884  1.4685 -1.7616
   28SAPC  H16Y 3801   0.121   1.682   8.120 -0.3862  1.7437 -1.5442
   28SAPC  C317 3802  -0.005   1.767   8.271  0.2590  0.5729 -0.1625
   28SAPC  H17X 3803  -0.101   1.796   8.223  0.4015 -1.2345 -1.6046
   28SAPC  H17Y 3804   0.015   1.834   8.358  0.5344  0.3340 -0.0413
   28SAPC  C318 3805  -0.037   1.630   8.346  0.1605  0.0742  0.5182
   28SAPC  H18X 3806  -0.143   1.621   8.376 -0.1005  0.1373 -0.3564
   28SAPC  H18Y 3807   0.027   1.616   8.435 -0.1458 -1.9607  0.4690
   28SAPC  H18Z 3808  -0.025   1.545   8.275 -4.2911  0.9117 -1.5872
   29SAPC     N 3809   0.903   4.980   6.097  0.3754 -0.2283  0.1674
   29SAPC   C12 3810   0.995   4.934   6.211  0.3046 -0.0093  0.9424
   29SAPC  H12A 3811   0.975   4.833   6.242  1.1534 -1.1477 -1.8759
   29SAPC  H12B 3812   0.967   5.000   6.292  0.5086 -0.3169  1.2678
   29SAPC   C13 3813   0.765   4.964   6.136 -0.5541 -0.1081 -0.2369
   29SAPC  H13A 3814   0.734   4.866   6.169  1.7132 -0.1142  2.1936
   29SAPC  H13B 3815   0.741   5.037   6.211 -1.6893 -0.1150 -0.5611
   29SAPC  H13C 3816   0.695   4.986   6.057 -1.7057 -0.5377  0.6393
   29SAPC   C14 3817   0.922   5.129   6.070 -0.3455 -0.4311 -0.4421
   29SAPC  H14A 3818   1.026   5.143   6.042 -0.7519 -1.2967 -2.6281
   29SAPC  H14B 3819   0.863   5.171   5.990  0.6232  0.4128 -0.7400
   29SAPC  H14C 3820   0.892   5.186   6.156  0.8297  0.5044 -0.6121
   29SAPC   C15 3821   0.931   4.913   5.966 -0.1415  0.1469  0.5035
   29SAPC  H15A 3822   1.029   4.929   5.923 -0.2931 -3.3360 -1.4595
   29SAPC  H15B 3823   0.934   4.807   5.987  0.8346  0.3888  1.7304
   29SAPC  H15C 3824   0.856   4.944   5.895 -1.5937  0.5818  2.1560
   29SAPC   C11 3825   1.150   4.949   6.179  0.1269 -0.0255  0.2073
   29SAPC  H11A 3826   1.182   4.899   6.084  0.0229  0.9579 -0.3556
   29SAPC  H11B 3827   1.202   4.891   6.259 -1.4756 -2.1806 -0.2170
   29SAPC     P 3828   1.334   5.120   6.206  0.5220  0.0307  0.1157
   29SAPC   O13 3829   1.407   5.000   6.262 -0.0196 -0.7726  0.8727
   29SAPC   O14 3830   1.397   5.193   6.096 -0.1910 -0.1321 -0.0314
   29SAPC   O12 3831   1.188   5.085   6.168  0.8074 -0.1737  0.1415
   29SAPC   O11 3832   1.330   5.210   6.333 -0.1467 -0.1604  0.0409
   29SAPC    C1 3833   1.225   5.309   6.353  0.1799  0.1540 -0.0248
   29SAPC    HA 3834   1.271   5.410   6.352 -0.9478  0.7074  1.1102
   29SAPC    HB 3835   1.146   5.314   6.274 -1.6764  1.1001  1.7925
   29SAPC    C2 3836   1.139   5.285   6.481 -0.3814 -0.0621 -0.1420
   29SAPC    HS 3837   1.062   5.363   6.499  1.6812  2.1302 -0.3066
   29SAPC   O21 3838   1.226   5.274   6.599 -0.7988 -0.1440  0.1280
   29SAPC   C21 3839   1.263   5.390   6.650  0.0124 -0.7045  0.6959
   29SAPC   O22 3840   1.231   5.499   6.601 -0.1064  0.5958 -0.0556
   29SAPC   C22 3841   1.358   5.378   6.773 -0.6764  0.0673  0.3957
   29SAPC   H2R 3842   1.460   5.396   6.732 -0.7626 -2.4129 -1.1421
   29SAPC   H2S 3843   1.320   5.451   6.848 -1.8361  2.5452 -2.4251
   29SAPC    C3 3844   1.067   5.150   6.454  0.3000 -0.2092 -0.9468
   29SAPC    HX 3845   1.155   5.083   6.450  0.2375 -0.2900 -0.9773
   29SAPC    HY 3846   1.011   5.156   6.358  1.2336  2.9450 -1.3945
   29SAPC   O31 3847   0.976   5.112   6.563  0.1865 -0.3040  0.3993
   29SAPC   C31 3848   0.949   4.984   6.568 -0.5004 -0.2351  0.2543
   29SAPC   O32 3849   0.995   4.899   6.491  0.0245  0.1391 -0.4634
   29SAPC   C32 3850   0.883   4.955   6.706  0.7201  0.9451 -0.5697
   29SAPC   H2X 3851   0.806   5.032   6.728 -0.3587 -0.3413  0.4235
   29SAPC   H2Y 3852   0.965   4.976   6.778 -1.2139  3.2002  1.1241
   29SAPC   C23 3853   1.359   5.238   6.843 -0.5892  0.2613  0.4040
   29SAPC   H3R 3854   1.400   5.168   6.767 -2.1585 -0.7951  0.4926
   29SAPC   H3S 3855   1.253   5.208   6.854 -0.3162 -0.3759  1.5200
   29SAPC   C24 3856   1.444   5.233   6.978  0.6661 -0.8055 -0.5754
   29SAPC   H4R 3857   1.540   5.284   6.955  1.3485 -1.3916  0.9010
   29SAPC   H4S 3858   1.467   5.126   6.992 -1.4355 -1.4286 -1.4880
   29SAPC   C25 3859   1.379   5.297   7.105  0.0754  0.0525  0.0567
   29SAPC   H5R 3860   1.338   5.398   7.092  1.0674  0.5993  1.1049
   29SAPC   C26 3861   1.356   5.240   7.224 -0.3213 -0.2364 -0.5809
   29SAPC   H6R 3862   1.308   5.302   7.302  0.8138  0.3912 -0.3564
   29SAPC   C27 3863   1.394   5.102   7.269  0.9962 -0.1886 -0.1110
   29SAPC   H7R 3864   1.399   5.030   7.184 -3.4371  0.0441 -0.8046
   29SAPC   H7S 3865   1.313   5.048   7.323 -0.8730  1.7252 -0.8656
   29SAPC   C28 3866   1.527   5.085   7.344  0.1581 -0.9009 -0.4964
   29SAPC   H8R 3867   1.615   5.104   7.280 -0.1379 -1.4833 -1.0808
   29SAPC   C29 3868   1.545   5.078   7.478  0.7259  1.1991  0.5683
   29SAPC   H9R 3869   1.646   5.083   7.519  0.2279  0.2321  1.9858
   29SAPC  C210 3870   1.434   5.076   7.584  0.2468 -0.6977 -0.0949
   29SAPC  H10R 3871   1.339   5.032   7.548 -0.7046 -0.0685  1.5164
   29SAPC  H10S 3872   1.411   5.184   7.590  2.4996 -0.1509 -0.2867
   29SAPC  C211 3873   1.471   4.994   7.703 -0.5834 -0.0155 -0.0600
   29SAPC  H11R 3874   1.518   4.898   7.678 -0.4438  0.8489 -3.6557
   29SAPC  C212 3875   1.466   5.048   7.824  0.1780 -0.2847 -0.5018
   29SAPC  H12R 3876   1.496   4.988   7.911 -0.2909  2.0138  1.3522
   29SAPC  C213 3877   1.423   5.186   7.861  1.1774  0.1870 -0.5303
   29SAPC  H13R 3878   1.322   5.196   7.815  1.0170 -2.7156 -0.9432
   29SAPC  H13S 3879   1.495   5.256   7.813  0.4329  0.7094 -0.9123
   29SAPC  C214 3880   1.408   5.211   8.012  0.2209 -0.1439 -0.0105
   29SAPC  H14R 3881   1.309   5.247   8.043 -1.0452 -3.6043  0.5206
   29SAPC  C215 3882   1.493   5.195   8.111 -0.0916  0.4269  0.7965
   29SAPC  H15R 3883   1.466   5.232   8.211 -0.9781  0.3566  0.5941
   29SAPC  C216 3884   1.633   5.144   8.117  0.1894  0.4608  0.2418
   29SAPC  H16R 3885   1.694   5.205   8.187  0.7228  1.5022 -1.0773
   29SAPC  H16S 3886   1.690   5.149   8.021 -0.8547 -0.7213 -0.4700
   29SAPC  C217 3887   1.647   4.999   8.168 -0.2755  0.2611 -0.6577
   29SAPC  H17R 3888   1.754   4.973   8.151 -0.1933  0.3342 -0.2787
   29SAPC  H17S 3889   1.589   4.919   8.116 -1.1884 -0.9601  2.0323
   29SAPC  C218 3890   1.621   4.979   8.316  0.2221 -0.4049  0.0076
   29SAPC  H18R 3891   1.514   4.999   8.340 -0.1034  0.2620 -1.8383
   29SAPC  H18S 3892   1.676   5.045   8.386 -1.9306  0.0452  1.3789
   29SAPC  C219 3893   1.669   4.840   8.349 -0.2988 -0.1725 -0.9402
   29SAPC  H19R 3894   1.776   4.830   8.322 -0.5098 -1.5328 -1.3559
   29SAPC  H19S 3895   1.618   4.760   8.290 -1.4680  1.1434 -1.7662
   29SAPC  C220 3896   1.656   4.801   8.496 -0.2303  0.3886 -0.2606
   29SAPC  H20R 3897   1.548   4.797   8.517 -0.3074  2.0896 -0.1530
   29SAPC  H20S 3898   1.709   4.878   8.556  2.0073  1.0284 -2.8398
   29SAPC  H20T 3899   1.688   4.697   8.517 -1.7044 -0.0805 -0.2692
   29SAPC   C33 3900   0.840   4.802   6.708  0.4689  0.1339  0.0858
   29SAPC   H3X 3901   0.926   4.735   6.688  0.5985 -0.3019  1.9253
   29SAPC   H3Y 3902   0.761   4.786   6.632 -0.0813  0.1988  0.6353
   29SAPC   C34 3903   0.782   4.768   6.847 -0.0107  0.8632 -0.3650
   29SAPC   H4X 3904   0.865   4.731   6.910 -0.1316  0.5080 -0.4083
   29SAPC   H4Y 3905   0.704   4.689   6.837 -0.8672  1.3963  1.5584
   29SAPC   C35 3906   0.703   4.878   6.929 -0.1585 -0.2653 -0.1631
   29SAPC   H5X 3907   0.617   4.897   6.862  0.2897 -0.2845 -0.7435
   29SAPC   H5Y 3908   0.775   4.962   6.939  1.0312 -1.3156  0.4119
   29SAPC   C36 3909   0.661   4.833   7.067  0.2794 -0.4901 -0.4232
   29SAPC   H6X 3910   0.745   4.800   7.132 -1.6728  0.1761  2.6607
   29SAPC   H6Y 3911   0.602   4.739   7.057  0.5597 -0.8900  1.3223
   29SAPC   C37 3912   0.571   4.929   7.147  0.1454 -0.2737 -0.1355
   29SAPC   H7X 3913   0.492   4.980   7.088  0.8911  4.1999  2.2796
   29SAPC   H7Y 3914   0.629   5.022   7.165  3.6392 -1.9269 -1.6695
   29SAPC   C38 3915   0.516   4.862   7.265 -0.4596  0.3863 -0.5919
   29SAPC   H8X 3916   0.590   4.794   7.311  0.0180  1.8363  0.8635
   29SAPC   H8Y 3917   0.422   4.810   7.237 -1.1131 -0.1504  2.3462
   29SAPC   C39 3918   0.487   4.960   7.377 -0.0708  0.1028 -0.0360
   29SAPC   H9X 3919   0.388   5.004   7.351 -0.1288  0.2697  0.4700
   29SAPC   H9Y 3920   0.561   5.042   7.384 -0.1918  0.1043  1.5025
   29SAPC  C310 3921   0.495   4.889   7.515 -0.2338 -0.0841 -0.5324
   29SAPC  H10X 3922   0.600   4.854   7.530 -0.4741 -0.7894 -0.4277
   29SAPC  H10Y 3923   0.428   4.800   7.511  0.6136 -0.7669 -0.0181
   29SAPC  C311 3924   0.467   4.998   7.612  0.1025 -0.3971 -0.4425
   29SAPC  H11X 3925   0.371   5.049   7.589 -1.2716 -3.7412 -3.0251
   29SAPC  H11Y 3926   0.539   5.083   7.606 -1.8248  1.9325  4.2425
   29SAPC  C312 3927   0.463   4.961   7.763  0.3674 -0.1498 -0.2271
   29SAPC  H12X 3928   0.549   4.892   7.773  0.2476 -0.0859  1.4482
   29SAPC  H12Y 3929   0.363   4.912   7.769  0.0401  0.5608  0.1228
   29SAPC  C313 3930   0.487   5.077   7.863 -0.0867  0.2610 -0.5768
   29SAPC  H13X 3931   0.429   5.168   7.839 -1.2912 -0.2025  0.4434
   29SAPC  H13Y 3932   0.597   5.089   7.865 -0.0250 -0.3134  0.1839
   29SAPC  C314 3933   0.449   5.023   8.003 -0.2377 -0.5504 -0.3612
   29SAPC  H14X 3934   0.490   4.920   8.004 -0.2612 -0.5643 -0.7419
   29SAPC  H14Y 3935   0.343   4.991   8.015 -1.1880  2.5977  0.8489
   29SAPC  C315 3936   0.501   5.109   8.118  0.7310  0.3046 -0.4224
   29SAPC  H15X 3937   0.456   5.210   8.114 -0.3497 -0.1753 -0.8416
   29SAPC  H15Y 3938   0.607   5.119   8.089  0.9635 -0.2684  0.1887
   29SAPC  C316 3939   0.489   5.063   8.260 -0.2664 -0.0652  0.2985
   29SAPC  H16X 3940   0.528   4.960   8.248  0.8610  0.4909 -1.1838
   29SAPC  H16Y 3941   0.383   5.051   8.290 -0.3063 -1.6268 -0.3935
   29SAPC  C317 3942   0.560   5.157   8.361 -0.0440  0.0117 -0.1405
   29SAPC  H17X 3943   0.665   5.146   8.328 -0.7654 -2.4029 -1.9633
   29SAPC  H17Y 3944   0.549   5.121   8.465 -1.4374  1.0702  0.1171
   29SAPC  C318 3945   0.525   5.305   8.360 -0.7661 -0.0286 -0.5114
   29SAPC  H18X 3946   0.551   5.345   8.260 -2.2000 -0.7331 -1.1960
   29SAPC  H18Y 3947   0.595   5.361   8.425 -0.2410 -0.6801 -0.5014
   29SAPC  H18Z 3948   0.419   5.328   8.385 -0.6977  0.7402 -0.8932
   30SAPC     N 3949   2.925   6.316   6.114 -0.3844  0.1078 -0.2178
   30SAPC   C12 3950   2.883   6.412   6.211  0.9193  0.2693  0.1343
   30SAPC  H12A 3951   2.858   6.346   6.293 -1.0468  0.4952 -0.2240
   30SAPC  H12B 3952   2.794   6.455   6.166 -0.5499 -0.2699  2.3416
   30SAPC   C13 3953   2.814   6.209   6.097 -0.5741 -0.4646 -0.0227
   30SAPC  H13A 3954   2.725   6.252   6.055  1.2127  1.0300 -2.6308
   30SAPC  H13B 3955   2.857   6.124   6.045 -0.2503 -0.8813  0.9071
   30SAPC  H13C 3956   2.793   6.160   6.191  1.6947  0.0518  0.8407
   30SAPC   C14 3957   2.954   6.377   5.984 -0.0202  0.4653 -0.6904
   30SAPC  H14A 3958   3.039   6.444   5.997  1.5699 -1.5602 -0.0793
   30SAPC  H14B 3959   2.978   6.309   5.904  0.4403 -0.9433  0.6008
   30SAPC  H14C 3960   2.862   6.426   5.959  0.3378  2.3954  1.4063
   30SAPC   C15 3961   3.046   6.247   6.165  0.0351  0.2824 -0.2692
   30SAPC  H15A 3962   3.032   6.191   6.256 -2.0314  0.7866 -0.2197
   30SAPC  H15B 3963   3.096   6.186   6.092 -2.3924  0.1204 -1.9111
   30SAPC  H15C 3964   3.114   6.326   6.194  0.2690  0.2633 -0.7553
   30SAPC   C11 3965   2.987   6.510   6.258  0.2338 -0.8178  0.3336
   30SAPC  H11A 3966   3.063   6.456   6.319 -0.0439 -2.2750 -0.5474
   30SAPC  H11B 3967   2.943   6.568   6.341 -1.6633  0.5122 -1.5083
   30SAPC     P 3968   3.020   6.759   6.155 -0.2386 -0.1193  0.2563
   30SAPC   O13 3969   3.105   6.812   6.049  0.0121 -0.2558 -0.1937
   30SAPC   O14 3970   2.877   6.787   6.152 -0.4086 -0.4937 -0.1233
   30SAPC   O12 3971   3.038   6.601   6.159 -0.5481 -0.1382  1.1246
   30SAPC   O11 3972   3.083   6.812   6.291 -0.0812  0.3188 -0.4888
   30SAPC    C1 3973   3.221   6.773   6.317 -0.1036  0.0336 -0.1102
   30SAPC    HA 3974   3.237   6.663   6.315  1.6151  0.2662 -1.1775
   30SAPC    HB 3975   3.290   6.800   6.234  0.8391 -1.1430  0.2776
   30SAPC    C2 3976   3.284   6.801   6.455 -0.4374 -0.7574 -0.1125
   30SAPC    HS 3977   3.367   6.732   6.479 -0.1278 -0.5369 -0.5227
   30SAPC   O21 3978   3.181   6.796   6.556 -0.1355 -0.5653  0.6543
   30SAPC   C21 3979   3.129   6.683   6.589 -0.6261 -0.0276  0.3551
   30SAPC   O22 3980   3.154   6.573   6.541 -0.0029  0.1330  0.8528
   30SAPC   C22 3981   3.053   6.701   6.721  0.0429  0.2166 -0.6224
   30SAPC   H2R 3982   3.011   6.802   6.740 -1.6095 -0.7545  1.2545
   30SAPC   H2S 3983   2.967   6.631   6.709 -0.6297  1.2054 -1.8955
   30SAPC    C3 3984   3.348   6.944   6.463 -0.4941 -0.0784 -0.0528
   30SAPC    HX 3985   3.266   7.014   6.436  0.4819  1.4996  0.9171
   30SAPC    HY 3986   3.427   6.958   6.386  0.8807 -0.3062  1.2779
   30SAPC   O31 3987   3.391   6.986   6.597  0.0801 -0.5810 -0.2144
   30SAPC   C31 3988   3.482   6.915   6.654  0.3373 -0.2001  0.3830
   30SAPC   O32 3989   3.549   6.822   6.609 -0.1019  0.1003  0.8260
   30SAPC   C32 3990   3.493   6.965   6.793 -0.1439  0.2522 -0.5784
   30SAPC   H2X 3991   3.400   7.014   6.826 -0.4565 -0.9985  0.4792
   30SAPC   H2Y 3992   3.569   7.045   6.809 -1.1845  1.1672 -0.0954
   30SAPC   C23 3993   3.139   6.653   6.837 -0.2610  0.1706  0.2243
   30SAPC   H3R 3994   3.089   6.694   6.928 -1.6312  1.5172 -1.0857
   30SAPC   H3S 3995   3.236   6.707   6.828 -0.5019  0.4520 -0.8110
   30SAPC   C24 3996   3.136   6.503   6.858 -0.8253  0.3734  0.1730
   30SAPC   H4R 3997   3.194   6.458   6.775  1.6737  0.0491  1.9701
   30SAPC   H4S 3998   3.031   6.466   6.849 -1.0827  0.4850  2.2066
   30SAPC   C25 3999   3.194   6.446   6.990  0.1105 -0.2049 -0.0143
   30SAPC   H5R 4000   3.285   6.496   7.026 -1.1268  1.8562  0.4276
   30SAPC   C26 4001   3.150   6.340   7.060  0.7697  0.6366 -0.0787
   30SAPC   H6R 4002   3.202   6.300   7.149  0.1775 -2.7705 -1.1279
   30SAPC   C27 4003   3.041   6.249   7.017 -0.3663  0.7850  0.5814
   30SAPC   H7R 4004   3.084   6.181   6.941  0.4063 -0.3852  2.0120
   30SAPC   H7S 4005   2.961   6.307   6.966 -0.4825  0.1564  0.0361
   30SAPC   C28 4006   2.986   6.164   7.128 -0.0375 -0.3193 -0.2293
   30SAPC   H8R 4007   2.986   6.211   7.228  3.1459 -1.1586  0.2979
   30SAPC   C29 4008   2.966   6.034   7.122  0.6872 -0.1006 -0.0499
   30SAPC   H9R 4009   2.940   5.990   7.220  1.7432  1.9668  1.2323
   30SAPC  C210 4010   2.960   5.936   7.011 -0.6460  1.0615 -0.1600
   30SAPC  H10R 4011   3.059   5.885   7.002 -0.3025  1.4938  1.0439
   30SAPC  H10S 4012   2.952   5.999   6.920 -0.5659  2.4314  0.7611
   30SAPC  C211 4013   2.860   5.824   7.009  0.2458 -0.1698  0.4683
   30SAPC  H11R 4014   2.766   5.860   6.965  0.9310 -1.5135 -2.2796
   30SAPC  C212 4015   2.866   5.697   7.042  0.2065  0.6950 -0.4416
   30SAPC  H12R 4016   2.769   5.646   7.031  1.7368 -3.0167  1.4666
   30SAPC  C213 4017   2.988   5.620   7.100  0.0727 -0.3492  0.6052
   30SAPC  H13R 4018   3.068   5.628   7.023 -2.2462 -0.8880 -2.0211
   30SAPC  H13S 4019   2.961   5.515   7.124  1.4380 -0.3937  2.1682
   30SAPC  C214 4020   3.039   5.687   7.228 -0.6656 -0.4643  0.1525
   30SAPC  H14R 4021   3.126   5.752   7.217 -3.0957  3.4689  2.0853
   30SAPC  C215 4022   2.974   5.692   7.348  0.3156  0.0488  0.4626
   30SAPC  H15R 4023   3.014   5.765   7.420 -1.8981  1.8442 -0.0410
   30SAPC  C216 4024   2.844   5.625   7.378 -0.4866 -0.0058 -0.3495
   30SAPC  H16R 4025   2.851   5.542   7.451 -0.5082  2.0057  2.0851
   30SAPC  H16S 4026   2.794   5.580   7.290 -1.6090 -0.5276  0.5309
   30SAPC  C217 4027   2.749   5.723   7.454  0.2622  0.7765  1.0182
   30SAPC  H17R 4028   2.793   5.766   7.546  0.1078 -0.6714  1.8041
   30SAPC  H17S 4029   2.669   5.654   7.488  1.4787 -2.5817 -2.2024
   30SAPC  C218 4030   2.697   5.838   7.373  0.1075  0.7344  0.4848
   30SAPC  H18R 4031   2.620   5.804   7.301  0.2031  0.9425  0.2811
   30SAPC  H18S 4032   2.777   5.893   7.319  0.6520  2.2527  2.6751
   30SAPC  C219 4033   2.624   5.929   7.480  0.8705 -0.4558  0.5316
   30SAPC  H19R 4034   2.689   5.943   7.569 -1.7602  0.5035  2.4190
   30SAPC  H19S 4035   2.529   5.884   7.514 -0.0066 -0.6022 -1.9254
   30SAPC  C220 4036   2.587   6.057   7.409 -0.6290 -0.1532 -0.3145
   30SAPC  H20R 4037   2.669   6.115   7.363  0.5125  0.2759  2.1191
   30SAPC  H20S 4038   2.557   6.136   7.482  0.4035  0.3175 -0.3908
   30SAPC  H20T 4039   2.512   6.046   7.327  0.2291  2.0342 -1.4859
   30SAPC   C33 4040   3.519   6.853   6.902 -0.4675  0.5495  0.3881
   30SAPC   H3X 4041   3.628   6.835   6.913 -0.3540  1.2762  0.4983
   30SAPC   H3Y 4042   3.465   6.759   6.880 -1.6490  1.3136 -0.0621
   30SAPC   C34 4043   3.458   6.896   7.040 -0.2644  0.0415  0.3060
   30SAPC   H4X 4044   3.348   6.886   7.037 -0.3147  0.7444 -0.7935
   30SAPC   H4Y 4045   3.486   7.003   7.052  1.2308 -0.3447  0.4797
   30SAPC   C35 4046   3.513   6.825   7.164  0.1535  0.6485 -0.1741
   30SAPC   H5X 4047   3.624   6.836   7.165  0.0700  1.5828  0.9910
   30SAPC   H5Y 4048   3.488   6.717   7.161  1.0483  0.2475  3.0142
   30SAPC   C36 4049   3.473   6.890   7.293 -0.0714 -0.3024 -0.0887
   30SAPC   H6X 4050   3.362   6.900   7.295 -0.3270 -2.5777 -0.4439
   30SAPC   H6Y 4051   3.520   6.990   7.296  0.1015 -0.2329 -2.7304
   30SAPC   C37 4052   3.523   6.800   7.412  0.7277 -0.2434 -0.0626
   30SAPC   H7X 4053   3.630   6.821   7.430  0.5555  0.2518  0.4165
   30SAPC   H7Y 4054   3.508   6.694   7.384 -0.2653 -0.1879  0.2242
   30SAPC   C38 4055   3.447   6.841   7.539 -0.0418  0.6326  0.1100
   30SAPC   H8X 4056   3.340   6.857   7.514 -1.0206 -2.3165  1.8781
   30SAPC   H8Y 4057   3.488   6.934   7.583 -0.1800  0.4236  0.6862
   30SAPC   C39 4058   3.474   6.747   7.656 -0.5518  0.2916 -0.5365
   30SAPC   H9X 4059   3.584   6.732   7.662 -0.3300  2.1972  0.9175
   30SAPC   H9Y 4060   3.424   6.651   7.632  0.1291 -0.3008  0.3568
   30SAPC  C310 4061   3.428   6.804   7.787  0.1600  0.4262  0.6956
   30SAPC  H10X 4062   3.324   6.837   7.766  0.0584 -0.3684 -0.1177
   30SAPC  H10Y 4063   3.491   6.893   7.810 -0.8481  1.3381  0.0537
   30SAPC  C311 4064   3.439   6.717   7.915  0.3578 -0.3973 -0.0939
   30SAPC  H11X 4065   3.428   6.779   8.007 -0.3265 -1.0418  0.2664
   30SAPC  H11Y 4066   3.543   6.679   7.926 -0.4846 -2.6026  0.8119
   30SAPC  C312 4067   3.348   6.590   7.922  0.7531 -0.3965  0.3251
   30SAPC  H12X 4068   3.352   6.537   7.824 -1.5999  1.0211 -0.6151
   30SAPC  H12Y 4069   3.239   6.612   7.928  0.8805  0.5691 -0.6135
   30SAPC  C313 4070   3.369   6.484   8.039  0.3603  0.2028 -0.0579
   30SAPC  H13X 4071   3.476   6.492   8.068  0.1695 -0.4699  0.8891
   30SAPC  H13Y 4072   3.339   6.382   8.007 -0.7309  0.7679 -0.8852
   30SAPC  C314 4073   3.295   6.517   8.170  0.2701  0.8251  0.1691
   30SAPC  H14X 4074   3.189   6.528   8.141  1.1097  1.7900 -3.0152
   30SAPC  H14Y 4075   3.329   6.617   8.205  1.0917 -0.1618  2.4334
   30SAPC  C315 4076   3.327   6.424   8.289  0.1638  0.7527  0.4129
   30SAPC  H15X 4077   3.278   6.326   8.267  1.8737 -0.0971  0.1824
   30SAPC  H15Y 4078   3.268   6.457   8.378  2.2700 -0.9602  2.5898
   30SAPC  C316 4079   3.469   6.403   8.338  0.0109  0.0620 -0.0063
   30SAPC  H16X 4080   3.505   6.492   8.393 -0.9266 -0.0748  0.8653
   30SAPC  H16Y 4081   3.524   6.376   8.245 -1.2578  1.1117 -1.0992
   30SAPC  C317 4082   3.480   6.283   8.433  0.1805  0.3108 -0.4053
   30SAPC  H17X 4083   3.463   6.194   8.368  1.1469 -1.3627  1.5038
   30SAPC  H17Y 4084   3.403   6.281   8.512 -1.0570 -2.9393 -1.4939
   30SAPC  C318 4085   3.620   6.263   8.487 -0.6262 -0.0086  0.4537
   30SAPC  H18X 4086   3.635   6.167   8.541  3.8158 -0.1873 -0.7109
   30SAPC  H18Y 4087   3.654   6.347   8.551 -0.6751  0.3480  0.0177
   30SAPC  H18Z 4088   3.693   6.245   8.406 -0.4854 -1.2728  0.8416
   31SAPC     N 4089   3.720   0.429   5.887  0.0826  0.3335  0.1173
   31SAPC   C12 4090   3.717   0.490   6.030 -0.4436  0.0581 -0.3393
   31SAPC  H12A 4091   3.693   0.595   6.025  0.9223  0.4443  0.6623
   31SAPC  H12B 4092   3.816   0.483   6.072 -0.1561  0.5313 -0.9405
   31SAPC   C13 4093   3.839   0.485   5.815  0.4024  0.1827  0.4174
   31SAPC  H13A 4094   3.844   0.593   5.822  0.8670  0.2246 -0.4086
   31SAPC  H13B 4095   3.932   0.453   5.859  0.7855  1.8713  0.9151
   31SAPC  H13C 4096   3.849   0.441   5.717 -0.5657 -1.0560  0.8511
   31SAPC   C14 4097   3.733   0.281   5.893  0.7294 -0.5051 -0.4887
   31SAPC  H14A 4098   3.685   0.241   5.981  0.1850  2.0299  0.4403
   31SAPC  H14B 4099   3.693   0.228   5.808  1.9128  0.3772 -1.6390
   31SAPC  H14C 4100   3.839   0.262   5.897  0.8628  0.4354  2.6861
   31SAPC   C15 4101   3.596   0.468   5.806 -0.7901  0.7903 -0.2604
   31SAPC  H15A 4102   3.593   0.573   5.777  0.0062  0.8586 -0.1009
   31SAPC  H15B 4103   3.573   0.398   5.727 -2.3509 -0.3988  1.1881
   31SAPC  H15C 4104   3.512   0.461   5.874 -0.8076  0.6139 -0.2998
   31SAPC   C11 4105   3.620   0.435   6.131  0.0274  0.2773 -0.2959
   31SAPC  H11A 4106   3.524   0.409   6.083 -0.2478  0.1026  0.3382
   31SAPC  H11B 4107   3.577   0.514   6.196  0.9173 -0.7269  1.6156
   31SAPC     P 4108   3.783   0.330   6.307  0.1134 -0.5070 -0.1487
   31SAPC   O13 4109   3.795   0.194   6.361  0.0694 -0.3157  0.5681
   31SAPC   O14 4110   3.906   0.389   6.247 -0.1966  0.1400  0.1328
   31SAPC   O12 4111   3.666   0.323   6.206  0.3265  0.0020 -0.0466
   31SAPC   O11 4112   3.727   0.436   6.419 -0.3068 -0.1194  0.8200
   31SAPC    C1 4113   3.778   0.562   6.433 -0.1951 -0.4835 -0.7009
   31SAPC    HA 4114   3.785   0.607   6.331 -0.5158  0.5038 -0.3075
   31SAPC    HB 4115   3.710   0.625   6.495 -0.5639 -0.5268 -1.0500
   31SAPC    C2 4116   3.908   0.571   6.523  0.7493 -0.4056 -0.4220
   31SAPC    HS 4117   3.989   0.555   6.448 -2.1350 -0.2334 -3.8388
   31SAPC   O21 4118   3.902   0.465   6.624 -0.0881  0.0994 -0.0030
   31SAPC   C21 4119   4.024   0.403   6.640  1.3912  0.0567 -0.8481
   31SAPC   O22 4120   4.124   0.438   6.580 -0.2452  0.1424  0.0199
   31SAPC   C22 4121   4.012   0.272   6.712 -0.7344  0.5647  0.4508
   31SAPC   H2R 4122   3.938   0.274   6.795 -2.1957  1.7077 -0.8172
   31SAPC   H2S 4123   3.970   0.207   6.633 -0.5504  1.6089 -0.5316
   31SAPC    C3 4124   3.912   0.713   6.583  0.3649  0.2049  0.0917
   31SAPC    HX 4125   3.832   0.719   6.660  1.7782 -1.2545  1.7464
   31SAPC    HY 4126   3.885   0.782   6.500  1.3756 -0.0452 -0.4625
   31SAPC   O31 4127   4.039   0.751   6.637  0.3474  0.0596 -0.3070
   31SAPC   C31 4128   4.042   0.730   6.770  0.1553 -0.3794 -0.1391
   31SAPC   O32 4129   3.958   0.672   6.837  0.0432 -0.4456 -0.2203
   31SAPC   C32 4130   4.171   0.791   6.831  0.3340  0.2163 -0.9561
   31SAPC   H2X 4131   4.173   0.901   6.814  0.3878  0.5147  0.8397
   31SAPC   H2Y 4132   4.261   0.750   6.780 -1.4097 -1.0233 -3.2435
   31SAPC   C23 4133   4.154   0.216   6.752  0.6096 -0.3479 -0.0141
   31SAPC   H3R 4134   4.205   0.302   6.801 -0.5607  1.5342 -1.9592
   31SAPC   H3S 4135   4.199   0.178   6.658 -1.1910  0.4856 -1.2610
   31SAPC   C24 4136   4.141   0.105   6.857 -0.0534  0.4710  0.1461
   31SAPC   H4R 4137   4.225   0.033   6.843  0.8459  1.8534 -2.1682
   31SAPC   H4S 4138   4.057   0.041   6.822 -0.5683  1.2795 -0.0964
   31SAPC   C25 4139   4.118   0.154   6.999  0.2733  0.1456  0.4099
   31SAPC   H5R 4140   4.081   0.257   7.008 -0.7418 -0.1539 -0.1531
   31SAPC   C26 4141   4.164   0.078   7.111 -0.4504 -0.0045 -0.7324
   31SAPC   H6R 4142   4.135   0.119   7.208  0.3888  1.6683 -1.1406
   31SAPC   C27 4143   4.217  -0.063   7.098 -0.6545  0.7772 -0.4395
   31SAPC   H7R 4144   4.188  -0.097   6.996 -4.8786 -1.6403  1.3050
   31SAPC   H7S 4145   4.161  -0.124   7.172  0.9657 -1.8387 -1.2210
   31SAPC   C28 4146   4.362  -0.065   7.139  0.0098 -0.7792  0.0344
   31SAPC   H8R 4147   4.425  -0.069   7.049  1.3170 -1.3233  0.9427
   31SAPC   C29 4148   4.415  -0.076   7.264 -0.3026 -0.2977 -0.3672
   31SAPC   H9R 4149   4.524  -0.085   7.278 -0.6066 -0.9619  1.9356
   31SAPC  C210 4150   4.340  -0.089   7.398 -0.4513  0.0575  0.5171
   31SAPC  H10R 4151   4.275  -0.178   7.412  0.0181 -0.3649  0.0725
   31SAPC  H10S 4152   4.265  -0.007   7.396 -0.9847 -0.3801 -2.6864
   31SAPC  C211 4153   4.431  -0.077   7.524  0.8649 -0.1690 -0.3281
   31SAPC  H11R 4154   4.534  -0.108   7.502  1.0071  1.2520 -1.8174
   31SAPC  C212 4155   4.390  -0.054   7.652  0.2918 -0.2029 -0.2004
   31SAPC  H12R 4156   4.472  -0.057   7.726 -0.7940 -0.6271  1.0249
   31SAPC  C213 4157   4.253  -0.034   7.700  0.3329 -0.0657 -1.3575
   31SAPC  H13R 4158   4.195   0.024   7.626  1.5438 -0.7260 -2.8823
   31SAPC  H13S 4159   4.252   0.018   7.799  0.2197 -1.2439 -0.7151
   31SAPC  C214 4160   4.190  -0.172   7.717 -0.3260 -0.0713  0.6128
   31SAPC  H14R 4161   4.132  -0.207   7.630 -0.0934 -0.1327  0.4811
   31SAPC  C215 4162   4.211  -0.258   7.819 -0.7088  0.7778  0.2221
   31SAPC  H15R 4163   4.158  -0.355   7.823 -0.3962  0.6262  0.8202
   31SAPC  C216 4164   4.299  -0.242   7.940 -0.1488  0.0906  0.4414
   31SAPC  H16R 4165   4.375  -0.161   7.925  2.3712 -2.1877  0.0860
   31SAPC  H16S 4166   4.363  -0.332   7.951 -0.7775 -0.3264  0.6772
   31SAPC  C217 4167   4.214  -0.225   8.060 -0.5204 -0.5299 -0.0310
   31SAPC  H17R 4168   4.131  -0.299   8.066 -0.8709 -0.1009  0.5514
   31SAPC  H17S 4169   4.165  -0.126   8.057  0.5082  0.0786  1.7697
   31SAPC  C218 4170   4.300  -0.212   8.193  0.3544 -0.6575  1.0008
   31SAPC  H18R 4171   4.231  -0.186   8.276  0.4831 -1.5598  1.3962
   31SAPC  H18S 4172   4.382  -0.139   8.178 -1.3381  0.9035 -1.5171
   31SAPC  C219 4173   4.362  -0.342   8.236 -0.1006 -0.3455 -0.3487
   31SAPC  H19R 4174   4.446  -0.367   8.168 -0.2377 -0.0114 -0.6426
   31SAPC  H19S 4175   4.293  -0.429   8.244  1.4808 -1.6292 -0.0480
   31SAPC  C220 4176   4.427  -0.330   8.381 -0.3515 -0.0476 -0.5049
   31SAPC  H20R 4177   4.449  -0.436   8.406 -2.0231 -0.3604 -0.2444
   31SAPC  H20S 4178   4.342  -0.297   8.445 -1.5075  1.1288 -2.5312
   31SAPC  H20T 4179   4.514  -0.263   8.370 -0.7264  0.4462 -0.5172
   31SAPC   C33 4180   4.199   0.758   6.986  1.0628  0.3462 -0.6412
   31SAPC   H3X 4181   4.305   0.767   7.017  0.9021 -0.8183  0.3662
   31SAPC   H3Y 4182   4.158   0.655   6.994  2.6095 -0.3257 -0.9707
   31SAPC   C34 4183   4.113   0.835   7.096 -0.1232  0.1735 -0.2609
   31SAPC   H4X 4184   4.013   0.794   7.072  0.2973 -0.7063 -0.6022
   31SAPC   H4Y 4185   4.115   0.945   7.084  0.9513  0.1070 -0.8645
   31SAPC   C35 4186   4.151   0.789   7.237 -0.2313 -0.4388  0.4650
   31SAPC   H5X 4187   4.247   0.841   7.255 -0.6030 -0.4020  2.5424
   31SAPC   H5Y 4188   4.170   0.679   7.236 -0.8035 -0.5632  1.8606
   31SAPC   C36 4189   4.067   0.835   7.356  0.3175  0.7991 -0.1023
   31SAPC   H6X 4190   3.972   0.780   7.369  1.7180 -1.2377  2.5783
   31SAPC   H6Y 4191   4.039   0.939   7.328 -1.1669  0.4665  0.0769
   31SAPC   C37 4192   4.129   0.828   7.496  0.0298 -0.3544 -0.8491
   31SAPC   H7X 4193   4.236   0.857   7.506  0.2039 -1.6724  2.3177
   31SAPC   H7Y 4194   4.112   0.723   7.526  0.8837  0.0134  1.0946
   31SAPC   C38 4195   4.039   0.906   7.591 -0.8949  0.2548 -0.2935
   31SAPC   H8X 4196   3.935   0.867   7.581 -0.3556 -1.2761 -0.1719
   31SAPC   H8Y 4197   4.037   1.013   7.560  1.0077  0.4538  0.1809
   31SAPC   C39 4198   4.078   0.893   7.737  0.7133 -0.3431  0.4409
   31SAPC   H9X 4199   4.065   0.986   7.798 -0.9794  1.3593 -2.2777
   31SAPC   H9Y 4200   4.186   0.871   7.747  1.2224  1.4511 -0.7330
   31SAPC  C310 4201   3.992   0.781   7.808  0.4385 -1.0843  0.3635
   31SAPC  H10X 4202   3.988   0.689   7.746  0.0087 -0.7690 -0.0889
   31SAPC  H10Y 4203   3.888   0.819   7.795  0.7685  0.2175  1.3321
   31SAPC  C311 4204   4.037   0.765   7.956  0.3023 -0.0751  0.3892
   31SAPC  H11X 4205   4.013   0.861   8.007 -0.1555 -0.5790  1.1341
   31SAPC  H11Y 4206   4.146   0.743   7.951 -0.0505 -1.8147 -0.4236
   31SAPC  C312 4207   3.963   0.653   8.034  0.3486 -0.4896  0.1902
   31SAPC  H12X 4208   3.983   0.556   7.983  1.4173 -0.7261  1.0077
   31SAPC  H12Y 4209   3.853   0.670   8.033  0.1777 -1.5489 -0.2543
   31SAPC  C313 4210   4.014   0.652   8.177 -0.0117 -0.2371 -0.3139
   31SAPC  H13X 4211   3.969   0.742   8.226  0.8991 -0.5504  1.1545
   31SAPC  H13Y 4212   4.124   0.659   8.183 -0.0541  0.5172 -0.2786
   31SAPC  C314 4213   3.957   0.538   8.265 -0.3828  0.0466 -0.0091
   31SAPC  H14X 4214   3.992   0.444   8.215  1.6332  1.3330 -1.1543
   31SAPC  H14Y 4215   3.847   0.539   8.252 -0.4487 -0.3752  0.4843
   31SAPC  C315 4216   3.996   0.544   8.411  0.2821  0.5156  0.2470
   31SAPC  H15X 4217   4.001   0.645   8.458 -0.8992  1.1087 -0.8479
   31SAPC  H15Y 4218   4.101   0.508   8.405 -0.1799 -0.9409  0.5461
   31SAPC  C316 4219   3.912   0.436   8.482 -0.3029  0.0794 -0.1211
   31SAPC  H16X 4220   3.889   0.346   8.420 -0.7630  0.6110 -0.7246
   31SAPC  H16Y 4221   3.812   0.475   8.508 -0.5515 -0.6348  0.0328
   31SAPC  C317 4222   3.972   0.380   8.607 -0.1495  0.3250  0.5342
   31SAPC  H17X 4223   4.007   0.465   8.669 -1.6100  1.5504 -0.2698
   31SAPC  H17Y 4224   4.061   0.321   8.578  0.0393  0.0212  1.6857
   31SAPC  C318 4225   3.875   0.289   8.689 -0.2049 -0.5671  0.1860
   31SAPC  H18X 4226   3.928   0.232   8.767 -0.2494  0.5368  1.0487
   31SAPC  H18Y 4227   3.825   0.208   8.631  1.1025 -1.1997 -0.1021
   31SAPC  H18Z 4228   3.801   0.359   8.734  1.4767  1.9944 -0.8122
   32SAPC     N 4229   6.262   6.462   6.080 -0.2845 -0.7858  0.3451
   32SAPC   C12 4230   6.244   6.526   6.224  0.6016 -0.0363  0.1606
   32SAPC  H12A 4231   6.313   6.486   6.297 -1.9858 -3.3604  1.0720
   32SAPC  H12B 4232   6.143   6.499   6.252  0.0431  0.8426 -0.9361
   32SAPC   C13 4233   6.237   6.312   6.094  0.2716 -0.9498 -0.5570
   32SAPC  H13A 4234   6.287   6.272   6.181 -1.0907 -0.3089  0.5676
   32SAPC  H13B 4235   6.135   6.282   6.109 -0.4332  1.4974  0.0491
   32SAPC  H13C 4236   6.274   6.260   6.007  2.4115 -0.1527 -0.1886
   32SAPC   C14 4237   6.163   6.514   5.987  0.4096 -0.3852  0.0894
   32SAPC  H14A 4238   6.156   6.456   5.897  1.8307  0.3515 -0.5193
   32SAPC  H14B 4239   6.062   6.513   6.025 -0.3637  0.8163 -1.7996
   32SAPC  H14C 4240   6.184   6.618   5.966  1.1720 -0.3044  1.1662
   32SAPC   C15 4241   6.401   6.476   6.035 -0.5884 -0.2967 -0.0869
   32SAPC  H15A 4242   6.424   6.446   5.933  1.6004  1.0781 -0.0599
   32SAPC  H15B 4243   6.435   6.578   6.046 -0.1550 -0.3947 -0.4911
   32SAPC  H15C 4244   6.466   6.425   6.104  1.2471  4.4281  2.1185
   32SAPC   C11 4245   6.269   6.682   6.229 -0.0122  0.1436 -0.7798
   32SAPC  H11A 4246   6.246   6.716   6.333 -0.4748  1.6545 -1.3429
   32SAPC  H11B 4247   6.186   6.728   6.171 -1.2760 -2.2336 -0.9820
   32SAPC     P 4248   6.476   6.835   6.243 -0.4911  0.1110  0.2123
   32SAPC   O13 4249   6.535   6.797   6.374 -0.2073  0.0686 -0.1967
   32SAPC   O14 4250   6.563   6.887   6.137 -0.4347 -0.2127  0.3712
   32SAPC   O12 4251   6.393   6.718   6.182  0.4320  0.2643 -0.4560
   32SAPC   O11 4252   6.355   6.943   6.266  0.1477 -0.1460  0.5157
   32SAPC    C1 4253   6.357   7.042   6.359 -0.3903 -0.3942 -0.3738
   32SAPC    HA 4254   6.458   7.084   6.378 -0.4632  0.3167 -1.4885
   32SAPC    HB 4255   6.286   7.119   6.322 -0.2914 -0.5785 -0.9643
   32SAPC    C2 4256   6.302   6.990   6.489 -0.4927 -0.9136 -0.9620
   32SAPC    HS 4257   6.367   6.916   6.541 -1.2944 -1.0389 -0.1049
   32SAPC   O21 4258   6.171   6.938   6.469  0.1628 -0.1015 -0.0294
   32SAPC   C21 4259   6.120   6.862   6.565 -0.1698  0.3302 -0.0968
   32SAPC   O22 4260   6.179   6.829   6.667 -0.4782  0.5823  0.3401
   32SAPC   C22 4261   5.977   6.819   6.520 -0.8834  0.4265  0.5650
   32SAPC   H2R 4262   5.937   6.903   6.458  0.1334 -0.6153 -1.6259
   32SAPC   H2S 4263   5.985   6.725   6.460  0.0165  0.4295  0.6593
   32SAPC    C3 4264   6.295   7.121   6.576  0.5675 -0.0165 -0.8166
   32SAPC    HX 4265   6.231   7.192   6.519  1.4566  2.4591  1.0828
   32SAPC    HY 4266   6.391   7.177   6.575 -0.6595  2.4216  2.2609
   32SAPC   O31 4267   6.241   7.095   6.712 -0.8781 -0.3716 -0.3661
   32SAPC   C31 4268   6.339   7.050   6.793  0.0258 -0.0498  0.2648
   32SAPC   O32 4269   6.456   7.033   6.759 -0.6295 -0.2118 -0.0502
   32SAPC   C32 4270   6.284   7.021   6.926 -0.3669 -0.2180  0.3103
   32SAPC   H2X 4271   6.236   6.921   6.919 -1.1965  0.2692 -1.3398
   32SAPC   H2Y 4272   6.213   7.099   6.962  1.1422  0.4473  2.0061
   32SAPC   C23 4273   5.885   6.798   6.645  0.2881 -0.0087  0.4614
   32SAPC   H3R 4274   5.935   6.733   6.721  1.1404  0.5983  0.4307
   32SAPC   H3S 4275   5.795   6.742   6.612 -0.4261  1.0106  0.6548
   32SAPC   C24 4276   5.833   6.935   6.699  0.6338 -0.3534  0.8018
   32SAPC   H4R 4277   5.758   6.903   6.774 -0.6769  1.0042  0.1191
   32SAPC   H4S 4278   5.771   6.974   6.616  0.1316 -3.0478 -0.1859
   32SAPC   C25 4279   5.923   7.042   6.757  0.6889  0.1224 -0.2127
   32SAPC   H5R 4280   6.002   7.077   6.690 -0.3591  1.3850 -0.8393
   32SAPC   C26 4281   5.909   7.090   6.881 -0.4157 -0.8153  0.0713
   32SAPC   H6R 4282   5.993   7.157   6.906  0.1514 -1.4075 -0.1865
   32SAPC   C27 4283   5.811   7.041   6.989  0.0039 -0.2951 -0.0561
   32SAPC   H7R 4284   5.714   7.043   6.936 -0.0413  1.4260  0.0465
   32SAPC   H7S 4285   5.810   7.114   7.072  1.7157 -0.6137  0.2965
   32SAPC   C28 4286   5.850   6.908   7.045 -0.1512 -0.4250 -0.5296
   32SAPC   H8R 4287   5.911   6.842   6.982 -1.3862 -0.3422 -1.8497
   32SAPC   C29 4288   5.821   6.870   7.174  0.0057  0.7345  0.5429
   32SAPC   H9R 4289   5.844   6.764   7.192 -0.7672  0.6243  0.9156
   32SAPC  C210 4290   5.748   6.948   7.282 -0.2161  0.1822 -0.2965
   32SAPC  H10R 4291   5.682   6.876   7.335  1.7309  0.4350  2.6509
   32SAPC  H10S 4292   5.683   7.027   7.239  3.0705  1.9465 -2.4440
   32SAPC  C211 4293   5.826   7.008   7.394  0.1812 -0.4007 -0.6251
   32SAPC  H11R 4294   5.915   7.068   7.371  0.5352 -0.4578  0.4987
   32SAPC  C212 4295   5.794   7.002   7.525  0.0301 -0.4429  0.4189
   32SAPC  H12R 4296   5.865   7.039   7.600  1.2922 -0.9709 -0.4897
   32SAPC  C213 4297   5.676   6.927   7.584 -0.4631 -1.0923  0.3730
   32SAPC  H13R 4298   5.695   6.817   7.586  1.6006 -0.8954 -2.1390
   32SAPC  H13S 4299   5.588   6.929   7.517  0.3661  0.9292 -0.7391
   32SAPC  C214 4300   5.643   6.964   7.727 -0.3128  0.1242  0.4343
   32SAPC  H14R 4301   5.698   6.899   7.797  1.9405 -2.1412 -3.0478
   32SAPC  C215 4302   5.580   7.076   7.768 -0.5186  0.0909 -0.2492
   32SAPC  H15R 4303   5.564   7.088   7.876  2.7604 -0.2335  0.3787
   32SAPC  C216 4304   5.527   7.183   7.671  0.4588  0.1951 -0.0717
   32SAPC  H16R 4305   5.579   7.176   7.573  0.2624  1.0584 -0.2523
   32SAPC  H16S 4306   5.556   7.286   7.703  0.2709  0.7763 -1.6912
   32SAPC  C217 4307   5.384   7.154   7.622  0.2389  0.2643  0.1722
   32SAPC  H17R 4308   5.329   7.169   7.718  2.1042 -1.2432  1.5761
   32SAPC  H17S 4309   5.374   7.046   7.597 -0.2790  0.4872 -0.6228
   32SAPC  C218 4310   5.332   7.249   7.507  0.0937 -0.0143  0.4266
   32SAPC  H18R 4311   5.379   7.349   7.514  1.1622 -0.6343  3.7053
   32SAPC  H18S 4312   5.222   7.256   7.515 -0.2810 -0.1501 -2.9439
   32SAPC  C219 4313   5.359   7.177   7.367 -0.3575 -0.5845 -0.0559
   32SAPC  H19R 4314   5.466   7.147   7.363 -0.4475 -1.8774  3.5109
   32SAPC  H19S 4315   5.329   7.256   7.295 -1.8235  1.2866  2.4356
   32SAPC  C220 4316   5.278   7.047   7.346  0.0875  0.0800 -0.7487
   32SAPC  H20R 4317   5.302   6.992   7.439  0.9048 -0.7940 -1.4514
   32SAPC  H20S 4318   5.312   6.991   7.256 -2.1386 -1.4179 -0.7062
   32SAPC  H20T 4319   5.172   7.076   7.332  1.1376  3.3924 -3.6903
   32SAPC   C33 4320   6.391   7.007   7.033  0.1050 -0.1046 -0.2802
   32SAPC   H3X 4321   6.460   7.093   7.025  0.2140 -0.0133  1.3351
   32SAPC   H3Y 4322   6.453   6.918   7.012  1.4950  0.3424  1.7344
   32SAPC   C34 4323   6.351   7.006   7.182  0.1611 -1.0268 -0.2898
   32SAPC   H4X 4324   6.303   7.106   7.186 -2.8450 -2.0254 -4.4159
   32SAPC   H4Y 4325   6.440   6.999   7.248 -1.0532 -0.5543  1.4541
   32SAPC   C35 4326   6.243   6.899   7.208 -0.5316 -0.4524  0.2313
   32SAPC   H5X 4327   6.296   6.801   7.209 -0.1635 -0.2529  0.6303
   32SAPC   H5Y 4328   6.155   6.909   7.142 -0.5072  1.1978  0.4268
   32SAPC   C36 4329   6.190   6.922   7.346  0.2391  0.1330 -0.1998
   32SAPC   H6X 4330   6.107   6.848   7.349  2.0939 -2.1771 -2.1280
   32SAPC   H6Y 4331   6.147   7.025   7.350  3.1409  1.4562 -0.7607
   32SAPC   C37 4332   6.290   6.876   7.454  0.0302 -0.5879  0.2548
   32SAPC   H7X 4333   6.374   6.946   7.472  0.3803 -0.6063 -1.2037
   32SAPC   H7Y 4334   6.330   6.777   7.422 -1.5874 -0.7707 -1.3231
   32SAPC   C38 4335   6.227   6.854   7.595  0.1335 -0.3085  0.2457
   32SAPC   H8X 4336   6.306   6.804   7.655 -2.3775 -2.9000  1.6467
   32SAPC   H8Y 4337   6.139   6.786   7.584 -0.3443  0.3173  0.1449
   32SAPC   C39 4338   6.171   6.981   7.661  0.1980  0.8235  0.2166
   32SAPC   H9X 4339   6.090   7.019   7.594 -1.3134 -2.0538  0.2243
   32SAPC   H9Y 4340   6.254   7.053   7.651  0.6888  0.4684  1.5925
   32SAPC  C310 4341   6.120   6.973   7.800 -0.0690  0.0157 -0.4892
   32SAPC  H10X 4342   6.193   6.910   7.855 -0.7660  0.4757  1.0257
   32SAPC  H10Y 4343   6.027   6.913   7.799  1.3981 -2.4226  0.7074
   32SAPC  C311 4344   6.116   7.116   7.859  0.4645  0.0261 -0.2633
   32SAPC  H11X 4345   6.067   7.187   7.789  0.5883 -0.3430 -0.7322
   32SAPC  H11Y 4346   6.221   7.150   7.873  0.0527  0.6278  1.5600
   32SAPC  C312 4347   6.042   7.129   7.995 -0.5236  0.4762 -0.0614
   32SAPC  H12X 4348   6.050   7.228   8.044  0.2782  0.3565  0.0590
   32SAPC  H12Y 4349   6.101   7.063   8.062 -0.7904  1.7261  1.4354
   32SAPC  C313 4350   5.895   7.084   7.996 -0.1268 -0.5561  0.5129
   32SAPC  H13X 4351   5.879   6.983   7.954  0.0448 -0.2347 -0.3411
   32SAPC  H13Y 4352   5.832   7.150   7.933  1.2837 -0.4953 -0.9084
   32SAPC  C314 4353   5.831   7.084   8.135 -0.8639 -0.0408  0.4111
   32SAPC  H14X 4354   5.861   7.176   8.188 -1.6266  0.1902  0.4456
   32SAPC  H14Y 4355   5.867   7.002   8.200 -0.5029  2.1749  3.1748
   32SAPC  C315 4356   5.679   7.068   8.135 -0.2144 -0.1076 -0.2401
   32SAPC  H15X 4357   5.659   7.029   8.237  0.0955 -0.9979 -0.5125
   32SAPC  H15Y 4358   5.642   6.994   8.061  3.0399 -0.6036 -1.5064
   32SAPC  C316 4359   5.603   7.202   8.118 -0.1392 -0.0266  0.3294
   32SAPC  H16X 4360   5.630   7.243   8.018 -0.8333 -3.3564 -1.3536
   32SAPC  H16Y 4361   5.637   7.279   8.191  1.9207  0.4599 -1.0632
   32SAPC  C317 4362   5.453   7.176   8.127  0.2464  0.2505 -0.2088
   32SAPC  H17X 4363   5.432   7.129   8.226 -1.1996  1.0368 -0.1114
   32SAPC  H17Y 4364   5.439   7.093   8.054  1.2714 -0.8616  0.8042
   32SAPC  C318 4365   5.368   7.301   8.097  0.5961 -0.3303 -0.3726
   32SAPC  H18X 4366   5.403   7.353   8.006  1.5275  1.6898  1.0627
   32SAPC  H18Y 4367   5.359   7.381   8.173 -0.5443 -1.6644  0.9648
   32SAPC  H18Z 4368   5.266   7.263   8.073 -0.8690  3.7787 -1.4188
   33POPC     N 4369   5.291   3.219  10.712  0.7059 -0.5521 -0.1731
   33POPC   C12 4370   5.171   3.320  10.695  0.4666  0.3917 -0.3871
   33POPC  H12A 4371   5.153   3.326  10.589 -0.9978  1.8945 -0.0913
   33POPC  H12B 4372   5.196   3.417  10.736  2.4248 -1.4427  3.3057
   33POPC   C13 4373   5.417   3.289  10.676  0.7361  0.3471 -0.3006
   33POPC  H13A 4374   5.507   3.229  10.672  1.0188  0.5946  1.4257
   33POPC  H13B 4375   5.397   3.324  10.576  1.3981  0.1210 -0.5131
   33POPC  H13C 4376   5.443   3.364  10.750  2.4687  0.7033 -1.2124
   33POPC   C14 4377   5.292   3.181  10.853  0.3555  0.0810  0.3703
   33POPC  H14A 4378   5.322   3.264  10.915  0.8784 -0.8114  1.3368
   33POPC  H14B 4379   5.194   3.148  10.882 -0.1999  0.8253 -0.5908
   33POPC  H14C 4380   5.370   3.109  10.870  2.1727  1.5086 -1.3598
   33POPC   C15 4381   5.266   3.089  10.635 -0.1219 -0.2298 -0.8435
   33POPC  H15A 4382   5.160   3.068  10.639 -0.6164  1.9841 -0.9182
   33POPC  H15B 4383   5.335   3.010  10.658 -1.6035 -2.2637 -2.9508
   33POPC  H15C 4384   5.281   3.105  10.529  1.0438 -1.3956 -0.8686
   33POPC   C11 4385   5.032   3.277  10.751  0.0185 -0.1155  0.1995
   33POPC  H11A 4386   4.958   3.359  10.746  0.2120  0.1856  1.8285
   33POPC  H11B 4387   5.037   3.278  10.862 -0.3623  2.0945  0.2469
   33POPC     P 4388   4.892   3.148  10.571  0.3311  0.0338 -0.0272
   33POPC   O13 4389   4.968   3.207  10.454  0.2487 -0.4789  0.0564
   33POPC   O14 4390   4.777   3.228  10.613 -0.5285  0.2564 -0.0193
   33POPC   O12 4391   4.987   3.148  10.700 -0.0877  0.3741  0.6034
   33POPC   O11 4392   4.846   2.997  10.549  0.5556 -0.0173  0.2755
   33POPC    C1 4393   4.939   2.889  10.571  0.0415 -0.1370  0.3086
   33POPC    HA 4394   5.017   2.920  10.644 -0.1463  1.5158 -0.1356
   33POPC    HB 4395   4.883   2.802  10.611 -0.9392 -0.2666 -1.2662
   33POPC    C2 4396   5.020   2.844  10.449  0.1376  0.2316 -0.2286
   33POPC    HS 4397   5.064   2.938  10.410 -0.2902 -0.1305 -1.6256
   33POPC   O21 4398   4.934   2.788  10.353  0.5279  0.4178 -0.0408
   33POPC   C21 4399   4.954   2.823  10.227  0.3714 -0.2237  0.0847
   33POPC   O22 4400   5.036   2.907  10.194  0.7268 -0.3572  0.5744
   33POPC   C22 4401   4.852   2.752  10.133 -0.1826  0.0695 -0.7311
   33POPC   H2R 4402   4.765   2.822  10.127  0.2157  0.7505  0.8119
   33POPC   H2S 4403   4.829   2.658  10.189  2.3626  0.4512  1.1386
   33POPC    C3 4404   5.131   2.756  10.496  0.0098 -0.1478 -0.0251
   33POPC    HX 4405   5.084   2.672  10.551 -1.1009  1.2287  1.2260
   33POPC    HY 4406   5.202   2.811  10.563 -0.4311 -0.4821  0.7276
   33POPC   O31 4407   5.208   2.710  10.376  0.2802  0.4902 -0.7661
   33POPC   C31 4408   5.304   2.799  10.340  0.6457 -0.1894 -0.2980
   33POPC   O32 4409   5.319   2.905  10.389 -0.2505 -0.5508  0.2701
   33POPC   C32 4410   5.388   2.736  10.233  0.3018 -0.1646 -0.3291
   33POPC   H2X 4411   5.469   2.677  10.282  1.1450  1.3643  0.1822
   33POPC   H2Y 4412   5.443   2.813  10.174 -2.4546  0.0552 -2.8840
   33POPC   C23 4413   4.915   2.704  10.003  0.3444 -1.0450  0.4566
   33POPC   H3R 4414   5.010   2.647  10.008  2.5222  2.3910  1.4908
   33POPC   H3S 4415   4.929   2.791   9.935 -1.8506 -0.8118  0.2305
   33POPC   C24 4416   4.817   2.608   9.924  0.5161  0.7177 -0.2194
   33POPC   H4R 4417   4.744   2.677   9.877  0.2538  0.3390 -0.3771
   33POPC   H4S 4418   4.761   2.538   9.989 -0.0410  0.7686 -0.6379
   33POPC   C25 4419   4.887   2.532   9.812  0.2312 -0.1797  0.1702
   33POPC   H5R 4420   4.808   2.485   9.749  1.8028 -0.7708 -1.4436
   33POPC   H5S 4421   4.954   2.448   9.841 -0.7443  0.3412  4.6052
   33POPC   C26 4422   4.957   2.632   9.715  0.6283  0.4667  1.0685
   33POPC   H6R 4423   5.025   2.700   9.772  2.2173 -2.3028  2.6663
   33POPC   H6S 4424   4.883   2.694   9.660  0.8073  1.5356  1.9846
   33POPC   C27 4425   5.050   2.558   9.616 -0.1877  0.7947  0.0146
   33POPC   H7R 4426   5.118   2.491   9.674 -0.4708 -0.7624 -1.3608
   33POPC   H7S 4427   5.127   2.618   9.562  1.1693 -0.5285  0.4026
   33POPC   C28 4428   4.972   2.460   9.519 -0.0047  0.0075  0.0347
   33POPC   H8R 4429   4.874   2.510   9.501  1.0761  2.0034 -0.7200
   33POPC   H8S 4430   4.959   2.359   9.563  0.9598 -0.5094 -0.8164
   33POPC   C29 4431   5.044   2.433   9.389  0.0943  0.6919 -0.9644
   33POPC   H91 4432   5.117   2.353   9.409 -0.5896  0.5032  1.0824
   33POPC  C210 4433   5.033   2.492   9.270  0.6315  0.2598  0.5710
   33POPC  H101 4434   5.091   2.448   9.187  0.2781 -1.5001  1.2090
   33POPC  C211 4435   4.950   2.601   9.214 -0.3631 -0.7563 -0.4221
   33POPC  H11R 4436   5.021   2.678   9.177  2.3438 -2.5128  0.8075
   33POPC  H11S 4437   4.883   2.641   9.292 -0.0811 -0.9614 -0.0696
   33POPC  C212 4438   4.857   2.558   9.096 -1.1382  0.2227 -0.0108
   33POPC  H12R 4439   4.928   2.509   9.025  0.5195  0.3348  1.4871
   33POPC  H12S 4440   4.816   2.647   9.043 -0.9335 -0.0217 -0.5938
   33POPC  C213 4441   4.742   2.464   9.128  0.6777  0.0999  0.0289
   33POPC  H13R 4442   4.690   2.515   9.212 -1.2711  0.4343 -1.3096
   33POPC  H13S 4443   4.802   2.378   9.165  0.6067 -0.0451 -0.1901
   33POPC  C214 4444   4.629   2.444   9.016  0.1036 -0.4690  0.5066
   33POPC  H14R 4445   4.564   2.534   9.022  1.8313  0.8458  0.4138
   33POPC  H14S 4446   4.564   2.359   9.046 -0.7838 -0.3891 -1.0940
   33POPC  C215 4447   4.688   2.425   8.868  0.3267  0.4840 -0.5098
   33POPC  H15R 4448   4.764   2.344   8.872  1.4203  1.4551 -1.0255
   33POPC  H15S 4449   4.730   2.517   8.822  0.6029  0.4245 -0.3756
   33POPC  C216 4450   4.573   2.383   8.768  0.0875  0.1989 -0.5152
   33POPC  H16R 4451   4.604   2.410   8.665  1.7314  0.4995  0.0428
   33POPC  H16S 4452   4.486   2.445   8.800  2.4636  3.5740 -0.1119
   33POPC  C217 4453   4.528   2.239   8.767 -0.4184 -0.5381 -0.1311
   33POPC  H17R 4454   4.427   2.241   8.720 -0.1892  0.4604 -0.5996
   33POPC  H17S 4455   4.526   2.194   8.869 -0.5317 -0.8085 -0.2508
   33POPC  C218 4456   4.630   2.163   8.682  0.4743 -0.4322  0.3906
   33POPC  H18R 4457   4.731   2.187   8.721  0.8895  0.0508 -0.9495
   33POPC  H18S 4458   4.617   2.187   8.574  0.4547 -1.4969  0.1413
   33POPC  H18T 4459   4.615   2.054   8.697  0.8855 -0.4453  0.7146
   33POPC   C33 4460   5.308   2.646  10.136 -0.1058 -0.0571 -1.1641
   33POPC   H3X 4461   5.227   2.703  10.086  0.1815 -0.2972 -1.9081
   33POPC   H3Y 4462   5.262   2.560  10.189  2.0456 -0.9660 -0.6479
   33POPC   C34 4463   5.410   2.593  10.041  0.1364  0.3593 -0.1870
   33POPC   H4X 4464   5.499   2.547  10.089  1.3965  2.3353 -0.5265
   33POPC   H4Y 4465   5.445   2.681   9.984 -0.7537 -0.6724 -2.4151
   33POPC   C35 4466   5.363   2.491   9.935 -0.0762  0.3973 -0.3039
   33POPC   H5X 4467   5.439   2.482   9.854  0.0183 -0.5164 -0.1279
   33POPC   H5Y 4468   5.279   2.540   9.881  0.5292  0.4775 -1.1961
   33POPC   C36 4469   5.347   2.347   9.985 -0.2853  0.4582  0.0963
   33POPC   H6X 4470   5.292   2.347  10.081 -1.8000 -1.5516 -0.7030
   33POPC   H6Y 4471   5.450   2.308  10.000 -0.1214  0.1564 -1.5444
   33POPC   C37 4472   5.280   2.260   9.883 -0.2069  0.8360 -0.6305
   33POPC   H7X 4473   5.179   2.300   9.860 -0.2345  1.8976  1.1831
   33POPC   H7Y 4474   5.265   2.165   9.938 -1.0988  1.0187 -0.5483
   33POPC   C38 4475   5.366   2.234   9.761  0.3619 -0.0666  0.4328
   33POPC   H8X 4476   5.466   2.188   9.776  0.9989  1.1686  0.1273
   33POPC   H8Y 4477   5.380   2.332   9.712  0.2579 -1.3785 -2.4516
   33POPC   C39 4478   5.286   2.158   9.647  0.2412  0.1778 -0.1435
   33POPC   H9X 4479   5.187   2.205   9.629  0.0877 -0.1967 -0.2873
   33POPC   H9Y 4480   5.268   2.055   9.685  0.0565  1.2251  2.9388
   33POPC  C310 4481   5.354   2.160   9.507  1.0332 -0.6570 -0.6058
   33POPC  H10X 4482   5.460   2.127   9.514  1.1889  0.1552  2.6614
   33POPC  H10Y 4483   5.360   2.262   9.463  1.9131 -0.8692 -0.9952
   33POPC  C311 4484   5.282   2.077   9.401  0.4534 -0.2186  0.1361
   33POPC  H11X 4485   5.193   2.134   9.366  0.7448 -0.9398 -1.9135
   33POPC  H11Y 4486   5.256   1.976   9.439  1.4560 -1.0617 -1.3035
   33POPC  C312 4487   5.372   2.049   9.279  0.0209 -0.1293  0.0494
   33POPC  H12X 4488   5.310   1.998   9.203  1.1628  0.3662 -1.2676
   33POPC  H12Y 4489   5.458   1.989   9.315  2.1496  3.6689  2.0439
   33POPC  C313 4490   5.434   2.174   9.215 -0.3793  0.1819  0.2769
   33POPC  H13X 4491   5.502   2.141   9.133 -3.4119  1.9877 -3.2476
   33POPC  H13Y 4492   5.502   2.227   9.285 -0.4988  2.7594 -1.4228
   33POPC  C314 4493   5.341   2.275   9.144  0.6133 -0.3795 -0.1940
   33POPC  H14X 4494   5.385   2.376   9.136  0.0046 -0.2146 -2.1547
   33POPC  H14Y 4495   5.256   2.293   9.214  0.5005 -0.7068 -0.2461
   33POPC  C315 4496   5.288   2.218   9.014 -0.3467  0.0942 -0.2090
   33POPC  H15X 4497   5.233   2.123   9.034  1.2409 -0.6195  0.9763
   33POPC  H15Y 4498   5.373   2.204   8.945  0.0157 -3.2139  0.7757
   33POPC  C316 4499   5.173   2.311   8.952  0.3172 -0.3427  0.9485
   33POPC  H16X 4500   5.090   2.304   9.025 -3.3157 -0.4817 -2.7757
   33POPC  H16Y 4501   5.141   2.273   8.852 -0.6461  3.0859 -0.1949
   33POPC  H16Z 4502   5.207   2.416   8.940 -1.3045  0.0420 -0.7034
   34POPC     N 4503   2.216   3.303  10.877 -0.6170 -0.1334  0.2572
   34POPC   C12 4504   2.200   3.261  10.726 -0.1971 -0.4221 -0.8738
   34POPC  H12A 4505   2.116   3.314  10.684 -0.6506 -0.4465 -0.0159
   34POPC  H12B 4506   2.169   3.158  10.725 -0.0015 -0.5153  0.8035
   34POPC   C13 4507   2.303   3.421  10.879  0.2252 -0.1748  0.6500
   34POPC  H13A 4508   2.398   3.397  10.834 -0.1232 -0.7369  0.1980
   34POPC  H13B 4509   2.262   3.502  10.820  0.7137 -0.4636 -0.0927
   34POPC  H13C 4510   2.321   3.463  10.977  1.3476  1.3133 -0.1530
   34POPC   C14 4511   2.080   3.341  10.930 -0.4839  0.7998 -0.7551
   34POPC  H14A 4512   2.006   3.271  10.895 -0.2295  0.0426  0.1636
   34POPC  H14B 4513   2.087   3.324  11.037 -4.2017 -1.5695 -0.7193
   34POPC  H14C 4514   2.058   3.445  10.909  1.2593  1.6768  1.3951
   34POPC   C15 4515   2.282   3.187  10.954 -0.2483 -0.6496  0.9407
   34POPC  H15A 4516   2.374   3.166  10.903 -2.1367 -0.3020 -3.0030
   34POPC  H15B 4517   2.210   3.107  10.943 -1.6573  0.6246  0.5626
   34POPC  H15C 4518   2.300   3.208  11.058  0.5180  0.9883  0.4973
   34POPC   C11 4519   2.314   3.269  10.625 -0.2971  0.4332 -0.7609
   34POPC  H11A 4520   2.309   3.377  10.597 -0.6688  0.5261 -0.3347
   34POPC  H11B 4521   2.278   3.222  10.531 -2.2036 -1.6901  0.9436
   34POPC     P 4522   2.519   3.108  10.620  0.0831  0.7002 -0.1604
   34POPC   O13 4523   2.458   2.983  10.675 -0.0530 -0.6416 -0.2278
   34POPC   O14 4524   2.665   3.122  10.647  0.1129 -0.6205  0.4058
   34POPC   O12 4525   2.442   3.237  10.679 -0.4308  0.5020 -0.4622
   34POPC   O11 4526   2.490   3.116  10.463  0.1148  0.0306  0.4064
   34POPC    C1 4527   2.545   3.224  10.388  0.0888  0.7952 -0.0517
   34POPC    HA 4528   2.643   3.265  10.420 -0.0138 -0.0754  1.4677
   34POPC    HB 4529   2.476   3.311  10.398 -0.1158  0.7365 -0.8312
   34POPC    C2 4530   2.556   3.206  10.233 -0.0001  0.0025 -0.1529
   34POPC    HS 4531   2.588   3.300  10.181 -0.4585  0.4211  0.3064
   34POPC   O21 4532   2.431   3.155  10.187  0.0043 -0.8305 -0.4813
   34POPC   C21 4533   2.366   3.226  10.091 -0.2823 -0.1505  0.2059
   34POPC   O22 4534   2.410   3.326  10.037 -0.3485  0.6358 -0.0176
   34POPC   C22 4535   2.236   3.157  10.070 -0.4331  0.1122  0.1886
   34POPC   H2R 4536   2.191   3.145  10.170  0.8166 -1.0392  0.6411
   34POPC   H2S 4537   2.246   3.058  10.019  0.7476 -0.0770  0.7514
   34POPC    C3 4538   2.669   3.105  10.199 -0.2835  0.1381  0.0554
   34POPC    HX 4539   2.642   3.022  10.267 -2.3607  2.4701  2.2591
   34POPC    HY 4540   2.767   3.139  10.239  1.0461  1.1143 -3.5872
   34POPC   O31 4541   2.671   3.072  10.055  0.3361  0.1718 -0.0521
   34POPC   C31 4542   2.731   3.158   9.981  0.4373  0.9487 -0.1314
   34POPC   O32 4543   2.790   3.260  10.007 -1.0730  0.4703  0.3760
   34POPC   C32 4544   2.738   3.099   9.837  0.2082  0.0513 -0.5472
   34POPC   H2X 4545   2.742   2.989   9.845  1.4341  0.2051  2.7864
   34POPC   H2Y 4546   2.829   3.142   9.790  0.1924  2.9792  1.7541
   34POPC   C23 4547   2.138   3.249   9.993 -0.1460 -0.0263 -0.2044
   34POPC   H3R 4548   2.168   3.261   9.887  2.1157 -1.2453  0.2269
   34POPC   H3S 4549   2.119   3.348  10.040  1.0623 -0.8250  2.1346
   34POPC   C24 4550   1.992   3.192  10.002  0.4436 -0.0971 -0.0417
   34POPC   H4R 4551   1.919   3.269   9.970 -0.8317  0.3516  3.4792
   34POPC   H4S 4552   1.975   3.158  10.107 -2.0887 -0.0594 -0.3861
   34POPC   C25 4553   1.979   3.077   9.896  0.2558 -0.6810 -0.0946
   34POPC   H5R 4554   1.882   3.027   9.915 -0.0028 -0.8303 -1.6287
   34POPC   H5S 4555   2.064   3.006   9.898  0.3271 -0.5809  0.4727
   34POPC   C26 4556   1.973   3.125   9.744  0.4689 -0.0258  0.3911
   34POPC   H6R 4557   1.939   3.045   9.675  0.3729  2.8415 -3.1989
   34POPC   H6S 4558   2.078   3.146   9.714  0.3261  1.0927  0.6270
   34POPC   C27 4559   1.870   3.243   9.718  0.7477 -0.6804 -0.0805
   34POPC   H7R 4560   1.907   3.333   9.772  0.5616 -0.4035 -0.4129
   34POPC   H7S 4561   1.773   3.221   9.767  0.3487 -0.6330 -0.8376
   34POPC   C28 4562   1.851   3.267   9.567  0.4456  0.4079 -0.4763
   34POPC   H8R 4563   1.811   3.170   9.532  0.8867  0.1410 -0.2516
   34POPC   H8S 4564   1.945   3.285   9.511  0.3086 -1.3411 -1.3190
   34POPC   C29 4565   1.754   3.378   9.529  1.2520 -0.4077 -0.1296
   34POPC   H91 4566   1.800   3.475   9.553  0.2494  0.1353 -0.3388
   34POPC  C210 4567   1.628   3.370   9.478  0.0699 -0.4539 -0.3597
   34POPC  H101 4568   1.569   3.457   9.446 -1.8523 -1.5582  0.0602
   34POPC  C211 4569   1.552   3.244   9.449 -0.6231 -0.2129 -0.5835
   34POPC  H11R 4570   1.444   3.266   9.463 -1.0338 -0.6655 -2.7252
   34POPC  H11S 4571   1.577   3.166   9.524  0.5872 -1.0104 -1.7796
   34POPC  C212 4572   1.567   3.177   9.307  0.1780  0.3588 -0.7562
   34POPC  H12R 4573   1.502   3.245   9.248 -0.8622 -0.1136 -0.2060
   34POPC  H12S 4574   1.502   3.087   9.310  1.9724 -0.9667  0.7304
   34POPC  C213 4575   1.708   3.156   9.260  0.1385 -0.5040  0.1789
   34POPC  H13R 4576   1.761   3.092   9.334  1.0478 -0.4338 -0.3932
   34POPC  H13S 4577   1.767   3.248   9.241 -1.4893  1.0514  2.2721
   34POPC  C214 4578   1.698   3.076   9.129 -0.1952  0.3308 -0.1937
   34POPC  H14R 4579   1.626   2.992   9.142 -1.4737  1.0831 -2.0048
   34POPC  H14S 4580   1.800   3.033   9.115  0.3163  0.7344  1.9498
   34POPC  C215 4581   1.651   3.161   9.005  0.6645 -0.6939  0.1210
   34POPC  H15R 4582   1.745   3.206   8.967  2.0207 -3.9163 -0.6346
   34POPC  H15S 4583   1.572   3.232   9.039  2.6646  1.7884 -0.1053
   34POPC  C216 4584   1.587   3.090   8.888 -0.0304  0.0111 -0.1577
   34POPC  H16R 4585   1.520   3.003   8.906 -0.9248  0.8804  0.8895
   34POPC  H16S 4586   1.662   3.035   8.828 -1.6536 -1.5142 -0.8588
   34POPC  C217 4587   1.534   3.189   8.780  0.5834  0.9613  0.4662
   34POPC  H17R 4588   1.434   3.213   8.822  0.8850  0.8093  1.3007
   34POPC  H17S 4589   1.506   3.138   8.685  1.5928 -0.4088  0.8838
   34POPC  C218 4590   1.604   3.324   8.766  0.7238  0.3058 -0.8567
   34POPC  H18R 4591   1.713   3.310   8.744  0.2871 -0.6385 -2.6391
   34POPC  H18S 4592   1.599   3.377   8.863  0.6409 -1.2152 -0.0041
   34POPC  H18T 4593   1.554   3.380   8.684 -2.1206 -1.5720 -0.5111
   34POPC   C33 4594   2.619   3.137   9.750  0.2382 -0.3647  0.2592
   34POPC   H3X 4595   2.644   3.134   9.642  1.7124 -0.2106  0.5769
   34POPC   H3Y 4596   2.589   3.241   9.777  2.9787  0.9033 -1.0939
   34POPC   C34 4597   2.515   3.033   9.769  0.1665  0.2096 -0.3180
   34POPC   H4X 4598   2.489   3.032   9.877  3.6137  0.2777  0.6403
   34POPC   H4Y 4599   2.563   2.936   9.745 -0.6330  0.5124 -3.7718
   34POPC   C35 4600   2.393   3.060   9.683 -0.4282  0.3824  0.0422
   34POPC   H5X 4601   2.350   3.156   9.718 -1.9792 -0.2344 -0.1037
   34POPC   H5Y 4602   2.323   2.975   9.694  1.2215 -1.1532 -0.7541
   34POPC   C36 4603   2.414   3.058   9.529 -0.2784 -0.3853 -0.2100
   34POPC   H6X 4604   2.487   3.134   9.496  1.1919 -1.5279  0.3035
   34POPC   H6Y 4605   2.312   3.072   9.485  0.0961  0.5049 -0.8198
   34POPC   C37 4606   2.462   2.922   9.480 -0.1143 -0.5050  0.0355
   34POPC   H7X 4607   2.386   2.847   9.512 -0.1328 -0.8329 -0.7654
   34POPC   H7Y 4608   2.566   2.906   9.516  0.3190  1.0944 -0.4360
   34POPC   C38 4609   2.454   2.899   9.329 -0.3038 -0.9268  0.0683
   34POPC   H8X 4610   2.505   2.982   9.275 -2.0936  0.1116 -0.0957
   34POPC   H8Y 4611   2.349   2.901   9.294 -1.0634  3.4511  1.9645
   34POPC   C39 4612   2.539   2.780   9.270  0.1420 -0.0134 -0.5059
   34POPC   H9X 4613   2.475   2.694   9.300 -0.8240  1.0215  0.4880
   34POPC   H9Y 4614   2.640   2.766   9.315 -0.4980 -2.6815  0.2555
   34POPC  C310 4615   2.540   2.779   9.118  0.0692  0.3521  0.4901
   34POPC  H10X 4616   2.607   2.862   9.087  2.6115 -1.1909  1.5111
   34POPC  H10Y 4617   2.439   2.795   9.076  0.9392 -0.4617 -2.1169
   34POPC  C311 4618   2.598   2.648   9.054 -0.2859 -1.0923 -0.4943
   34POPC  H11X 4619   2.531   2.567   9.091 -1.0721 -0.5126 -0.6306
   34POPC  H11Y 4620   2.700   2.634   9.096 -0.9353 -0.4902  1.4054
   34POPC  C312 4621   2.607   2.639   8.900  0.0111  0.4411 -0.0290
   34POPC  H12X 4622   2.509   2.612   8.856  0.6445  1.2171 -2.0236
   34POPC  H12Y 4623   2.676   2.556   8.874  0.4622  0.2294  1.7108
   34POPC  C313 4624   2.640   2.779   8.837 -0.4124  0.2442  0.2775
   34POPC  H13X 4625   2.735   2.818   8.880 -0.4582  0.5765  0.0800
   34POPC  H13Y 4626   2.551   2.839   8.866 -1.0432  1.2772 -3.2860
   34POPC  C314 4627   2.659   2.789   8.683  0.3579 -0.6074 -0.3734
   34POPC  H14X 4628   2.683   2.891   8.646 -0.5993 -1.0064 -2.2478
   34POPC  H14Y 4629   2.562   2.764   8.633 -1.2062  0.4159  1.9788
   34POPC  C315 4630   2.766   2.693   8.641 -0.3309 -0.3363  0.5721
   34POPC  H15X 4631   2.723   2.591   8.648 -1.0387 -0.2863 -2.1010
   34POPC  H15Y 4632   2.857   2.693   8.706  0.6557 -0.8280 -0.7650
   34POPC  C316 4633   2.812   2.719   8.495 -0.6482  0.5014 -0.6506
   34POPC  H16X 4634   2.730   2.704   8.421 -0.5774 -1.8499 -0.3379
   34POPC  H16Y 4635   2.894   2.650   8.464 -0.3209 -1.5887  4.0044
   34POPC  H16Z 4636   2.859   2.819   8.489  0.2206  0.2769  1.4159
   35POPC     N 4637   2.598   0.836  10.873  0.4096 -0.3317  0.4488
   35POPC   C12 4638   2.561   0.697  10.936 -0.9535 -0.0359 -0.3270
   35POPC  H12A 4639   2.544   0.708  11.042  1.1356  1.6832 -0.1000
   35POPC  H12B 4640   2.652   0.639  10.937 -0.8275  0.0778 -2.1734
   35POPC   C13 4641   2.629   0.824  10.728 -0.1401  0.2120  0.5793
   35POPC  H13A 4642   2.542   0.786  10.676 -2.0130  1.7725  2.4073
   35POPC  H13B 4643   2.644   0.920  10.681  2.7820 -1.5358 -2.4189
   35POPC  H13C 4644   2.704   0.752  10.700 -2.0019 -0.5913 -2.9196
   35POPC   C14 4645   2.492   0.936  10.886 -0.1081  0.4037  0.2546
   35POPC  H14A 4646   2.407   0.902  10.829  2.2264 -2.0751 -2.0490
   35POPC  H14B 4647   2.475   0.953  10.991  3.2006  2.0966  0.6442
   35POPC  H14C 4648   2.519   1.032  10.844  0.2678  0.0314 -0.3858
   35POPC   C15 4649   2.719   0.891  10.932  0.1040  0.5410 -0.5434
   35POPC  H15A 4650   2.693   0.911  11.035 -1.4366 -0.0173 -0.8040
   35POPC  H15B 4651   2.752   0.988  10.896 -0.3904  0.9478  0.0726
   35POPC  H15C 4652   2.795   0.815  10.928  0.9422  1.3339 -0.1951
   35POPC   C11 4653   2.446   0.616  10.874  0.5862 -0.5822  0.4409
   35POPC  H11A 4654   2.476   0.589  10.771 -0.8780  0.5575 -0.3244
   35POPC  H11B 4655   2.353   0.676  10.880  0.6616 -0.0617 -2.4878
   35POPC     P 4656   2.532   0.372  10.942 -0.0400 -0.2625  0.5163
   35POPC   O13 4657   2.481   0.263  11.025  0.0702  0.5462  0.6292
   35POPC   O14 4658   2.673   0.417  10.954 -0.1317  0.3816 -1.0477
   35POPC   O12 4659   2.426   0.500  10.959  0.2474 -0.6319 -0.5977
   35POPC   O11 4660   2.508   0.322  10.794 -0.4427  0.1983 -0.1096
   35POPC    C1 4661   2.382   0.295  10.736  0.3386  0.0279 -0.0067
   35POPC    HA 4662   2.307   0.369  10.771 -0.7678  0.2328 -2.5399
   35POPC    HB 4663   2.354   0.191  10.764  0.1287  0.1311  0.1674
   35POPC    C2 4664   2.381   0.306  10.582 -0.8922  0.5082 -0.1047
   35POPC    HS 4665   2.436   0.217  10.545 -0.8898  0.5816 -0.2797
   35POPC   O21 4666   2.434   0.432  10.543 -0.0049 -0.2997 -0.2482
   35POPC   C21 4667   2.559   0.435  10.512 -0.4030 -0.1151 -0.8098
   35POPC   O22 4668   2.646   0.351  10.532  0.0759  0.1203  0.1341
   35POPC   C22 4669   2.592   0.566  10.439  0.6096  0.2914  0.1744
   35POPC   H2R 4670   2.584   0.647  10.514 -0.9525  0.7474 -0.4327
   35POPC   H2S 4671   2.497   0.584  10.384  0.9744  0.8070 -0.2937
   35POPC    C3 4672   2.237   0.312  10.540 -0.0006 -0.1778 -0.3538
   35POPC    HX 4673   2.187   0.402  10.583 -0.8502 -1.0354  0.5044
   35POPC    HY 4674   2.176   0.237  10.594 -0.9173  0.0413 -1.0714
   35POPC   O31 4675   2.217   0.287  10.398 -0.8934 -0.0089  0.2590
   35POPC   C31 4676   2.200   0.398  10.328  0.5200  0.1834 -0.0592
   35POPC   O32 4677   2.159   0.503  10.373 -0.8096 -0.3590 -0.0878
   35POPC   C32 4678   2.240   0.375  10.183 -0.0305  0.3378  0.3886
   35POPC   H2X 4679   2.194   0.278  10.153 -0.9710  0.3712  1.6304
   35POPC   H2Y 4680   2.349   0.356  10.177 -0.4725 -2.2650 -0.3405
   35POPC   C23 4681   2.712   0.565  10.355 -0.2211  0.3491 -0.3419
   35POPC   H3R 4682   2.679   0.503  10.270 -0.5461  0.1627 -0.0842
   35POPC   H3S 4683   2.800   0.510  10.394  1.3269  0.4538 -3.4040
   35POPC   C24 4684   2.743   0.712  10.321 -0.2223  0.2262  0.2687
   35POPC   H4R 4685   2.820   0.700  10.241 -0.1226  2.7049 -0.0822
   35POPC   H4S 4686   2.796   0.758  10.408  0.7782 -2.7787  1.3916
   35POPC   C25 4687   2.634   0.805  10.263 -0.1807 -0.6253 -0.3966
   35POPC   H5R 4688   2.687   0.899  10.237 -2.9760  1.0234 -0.5700
   35POPC   H5S 4689   2.566   0.843  10.342 -0.0627  0.4233 -0.7846
   35POPC   C26 4690   2.548   0.752  10.149  0.0729 -0.2165  0.2936
   35POPC   H6R 4691   2.483   0.831  10.106 -0.1659  0.2420  1.4550
   35POPC   H6S 4692   2.471   0.679  10.181 -1.6177  1.6340  0.6457
   35POPC   C27 4693   2.628   0.706  10.026  0.0169 -0.3845 -0.1439
   35POPC   H7R 4694   2.687   0.614  10.046  2.1215  1.2134  1.3622
   35POPC   H7S 4695   2.699   0.787   9.999  2.1721 -1.8448  0.8326
   35POPC   C28 4696   2.537   0.684   9.906 -1.2211  0.1812  0.3801
   35POPC   H8R 4697   2.480   0.590   9.922 -0.6805 -1.4186 -4.9541
   35POPC   H8S 4698   2.600   0.647   9.822 -1.7355  1.6274 -0.6900
   35POPC   C29 4699   2.467   0.800   9.835 -0.4767 -0.8133 -0.0953
   35POPC   H91 4700   2.373   0.831   9.884 -2.6728 -1.6331 -3.4547
   35POPC  C210 4701   2.518   0.885   9.745  0.0394  0.1326  0.2145
   35POPC  H101 4702   2.457   0.975   9.729 -2.6243 -1.3041  1.5874
   35POPC  C211 4703   2.653   0.884   9.674  0.3530  0.0007  0.5665
   35POPC  H11R 4704   2.724   0.815   9.725  1.5207  0.4950 -0.3419
   35POPC  H11S 4705   2.685   0.991   9.676 -1.0251  0.4430  0.6526
   35POPC  C212 4706   2.638   0.837   9.524  0.2115  0.6920 -0.4501
   35POPC  H12R 4707   2.603   0.732   9.521 -1.0936  1.0201  1.3379
   35POPC  H12S 4708   2.743   0.836   9.489 -0.8978  2.3773 -4.4043
   35POPC  C213 4709   2.551   0.924   9.434  0.1325 -0.4363  0.0638
   35POPC  H13R 4710   2.586   1.027   9.456 -1.2519 -0.3514  2.2278
   35POPC  H13S 4711   2.449   0.921   9.479  0.8075  0.1993  1.7459
   35POPC  C214 4712   2.565   0.904   9.283 -0.1325  0.1753  0.0591
   35POPC  H14R 4713   2.667   0.871   9.251 -0.4084 -0.0158 -0.6457
   35POPC  H14S 4714   2.544   0.999   9.228  1.6699  0.0147 -0.9916
   35POPC  C215 4715   2.471   0.797   9.225  0.1708  0.4153  0.3631
   35POPC  H15R 4716   2.365   0.811   9.256 -0.0576  0.5427 -0.4378
   35POPC  H15S 4717   2.509   0.698   9.258  2.8630  1.1790 -0.2060
   35POPC  C216 4718   2.472   0.817   9.068 -0.4449  0.3404  0.4744
   35POPC  H16R 4719   2.578   0.806   9.038 -0.3166  0.7886  0.7542
   35POPC  H16S 4720   2.440   0.920   9.043  2.1959  1.1336  0.1016
   35POPC  C217 4721   2.394   0.708   8.996 -0.1732 -0.0454 -0.6201
   35POPC  H17R 4722   2.430   0.610   9.034  0.5411  0.7222  0.7532
   35POPC  H17S 4723   2.422   0.724   8.889  0.8843 -1.1778 -0.5430
   35POPC  C218 4724   2.242   0.714   9.017 -0.8840 -0.4572  0.4161
   35POPC  H18R 4725   2.207   0.817   8.997  3.4196  0.9368 -1.2450
   35POPC  H18S 4726   2.199   0.669   9.109  0.1012  0.6613  1.4600
   35POPC  H18T 4727   2.198   0.664   8.928 -0.1587  2.4471 -1.7002
   35POPC   C33 4728   2.195   0.498  10.089  2.1542 -0.2003  0.3539
   35POPC   H3X 4729   2.230   0.476   9.986 -1.1761  1.5135 -1.2875
   35POPC   H3Y 4730   2.231   0.595  10.130 -1.6053  1.0814  0.9899
   35POPC   C34 4731   2.039   0.507  10.075 -0.6944 -0.0421  0.0714
   35POPC   H4X 4732   2.001   0.533  10.176  1.1114  1.9280  0.3235
   35POPC   H4Y 4733   2.008   0.407  10.039  0.5665  0.3011 -2.1721
   35POPC   C35 4734   1.995   0.613   9.976  0.0303 -0.3095 -0.6127
   35POPC   H5X 4735   1.981   0.714  10.021  2.3778 -0.7448  1.3095
   35POPC   H5Y 4736   1.893   0.582   9.944  0.8385 -2.7203 -1.0207
   35POPC   C36 4737   2.065   0.616   9.837 -0.1489 -0.1582  0.4962
   35POPC   H6X 4738   2.092   0.513   9.806  0.2844  0.4823 -1.3275
   35POPC   H6Y 4739   2.169   0.654   9.848  0.6605 -1.2373 -2.3868
   35POPC   C37 4740   1.984   0.680   9.725 -0.0657  0.6118  0.8402
   35POPC   H7X 4741   1.967   0.788   9.749  0.2415  1.0716 -0.8746
   35POPC   H7Y 4742   1.891   0.622   9.708  0.4742  0.0193 -0.1579
   35POPC   C38 4743   2.053   0.682   9.590  0.2876  0.7305  0.3973
   35POPC   H8X 4744   2.107   0.586   9.575 -0.9473 -0.4715  3.0033
   35POPC   H8Y 4745   2.133   0.757   9.574  0.7644 -0.4916 -4.6282
   35POPC   C39 4746   1.938   0.704   9.481 -0.5386 -0.7647  0.7909
   35POPC   H9X 4747   1.862   0.780   9.510  0.7564 -0.0268  2.4160
   35POPC   H9Y 4748   1.892   0.604   9.469 -0.9666 -0.2870 -2.6590
   35POPC  C310 4749   1.989   0.738   9.334  0.1856 -0.0791 -0.5792
   35POPC  H10X 4750   2.019   0.639   9.294 -0.1561 -0.1033 -0.7795
   35POPC  H10Y 4751   2.075   0.809   9.335 -2.2524  3.1422 -1.7939
   35POPC  C311 4752   1.875   0.804   9.261  0.3213  0.2361 -0.4145
   35POPC  H11X 4753   1.796   0.865   9.309 -0.6383 -0.2775 -1.3053
   35POPC  H11Y 4754   1.812   0.729   9.209 -1.8820  0.6169  1.5209
   35POPC  C312 4755   1.923   0.899   9.147  0.1960  0.2306 -0.4205
   35POPC  H12X 4756   2.003   0.853   9.086  1.1025  1.0650  0.1208
   35POPC  H12Y 4757   1.974   0.992   9.180  1.6064 -1.1320  1.4643
   35POPC  C313 4758   1.808   0.944   9.059 -0.0836 -0.4861  0.3193
   35POPC  H13X 4759   1.727   0.999   9.113 -1.3553 -1.3823 -0.5993
   35POPC  H13Y 4760   1.748   0.857   9.025 -2.7765  0.6161  1.8942
   35POPC  C314 4761   1.856   1.033   8.944 -1.0748 -0.4661  0.1098
   35POPC  H14X 4762   1.938   0.991   8.882 -0.4844  1.7425 -0.6998
   35POPC  H14Y 4763   1.896   1.128   8.986  0.4591 -0.5619 -1.0497
   35POPC  C315 4764   1.749   1.066   8.834 -0.5826 -0.4190  0.3986
   35POPC  H15X 4765   1.665   1.095   8.901 -0.0601  0.4626  0.7066
   35POPC  H15Y 4766   1.725   0.976   8.775  0.4176 -0.1747 -0.4217
   35POPC  C316 4767   1.803   1.172   8.737 -0.4953 -0.5632 -0.2179
   35POPC  H16X 4768   1.758   1.175   8.635 -0.5388  0.7557 -0.1759
   35POPC  H16Y 4769   1.912   1.156   8.724 -0.4273 -0.3017  0.0245
   35POPC  H16Z 4770   1.778   1.267   8.790 -1.8428  0.4718 -2.5207
   36POPC     N 4771   0.923   0.154  11.048  0.4025 -0.2916 -0.0937
   36POPC   C12 4772   1.017   0.043  11.013  0.5941 -0.2459  0.3455
   36POPC  H12A 4773   1.026  -0.024  11.097  2.8669 -1.0449 -0.4383
   36POPC  H12B 4774   1.116   0.078  10.985 -0.5204  2.8219 -0.1906
   36POPC   C13 4775   0.970   0.230  11.165  0.0501 -0.3989  0.2186
   36POPC  H13A 4776   0.912   0.320  11.176  0.7738 -0.0771  1.6443
   36POPC  H13B 4777   0.966   0.169  11.255 -1.0393 -4.2573 -2.1967
   36POPC  H13C 4778   1.070   0.268  11.148  0.2662 -0.4265  1.3369
   36POPC   C14 4779   0.913   0.254  10.935  0.1271 -0.0635  0.4069
   36POPC  H14A 4780   0.836   0.329  10.944 -0.8475 -0.8834 -0.7334
   36POPC  H14B 4781   1.006   0.304  10.914 -0.7406  1.8614  0.9909
   36POPC  H14C 4782   0.888   0.202  10.843 -0.6081 -1.9042  1.5782
   36POPC   C15 4783   0.790   0.109  11.075  0.4187  0.4178  0.3352
   36POPC  H15A 4784   0.748   0.057  10.990 -0.3517 -0.7755  1.4093
   36POPC  H15B 4785   0.722   0.187  11.104 -1.1449 -1.2639  1.3819
   36POPC  H15C 4786   0.802   0.047  11.162  3.2519 -0.3854 -0.5167
   36POPC   C11 4787   0.965  -0.052  10.897 -0.1010 -0.0540  0.0293
   36POPC  H11A 4788   0.866  -0.090  10.930 -0.6095 -0.9604 -2.3495
   36POPC  H11B 4789   1.031  -0.140  10.883  2.6623  1.4027  2.5836
   36POPC     P 4790   0.863  -0.025  10.659  0.0153  0.1307 -0.3175
   36POPC   O13 4791   0.913   0.035  10.535 -0.5289 -0.2012  0.1324
   36POPC   O14 4792   0.722   0.005  10.687 -0.1998  0.1439  0.6362
   36POPC   O12 4793   0.949   0.023  10.782  0.0959 -0.0332  0.3046
   36POPC   O11 4794   0.891  -0.184  10.659  0.1699 -0.2164 -0.0133
   36POPC    C1 4795   1.016  -0.234  10.620 -0.5029  0.4123  0.6454
   36POPC    HA 4796   1.030  -0.333  10.668 -1.7524  0.8402  1.9416
   36POPC    HB 4797   1.106  -0.172  10.637 -0.7585  1.5189 -1.6288
   36POPC    C2 4798   1.009  -0.276  10.475  0.1150 -0.1183  0.0307
   36POPC    HS 4799   0.974  -0.187  10.419  0.5165 -2.6807 -4.8766
   36POPC   O21 4800   0.910  -0.381  10.469  0.0723 -0.0286  0.1565
   36POPC   C21 4801   0.852  -0.391  10.346 -0.1263 -0.2426 -0.3088
   36POPC   O22 4802   0.868  -0.313  10.253 -0.6190  0.1033 -0.3379
   36POPC   C22 4803   0.764  -0.511  10.347 -0.6304  0.8365 -0.1868
   36POPC   H2R 4804   0.680  -0.493  10.418 -1.7345 -0.8540 -1.0072
   36POPC   H2S 4805   0.819  -0.603  10.378 -0.2237  1.2958  0.4800
   36POPC    C3 4806   1.148  -0.325  10.427  0.1009  0.2710 -0.4705
   36POPC    HX 4807   1.169  -0.411  10.493  1.5060  0.8860 -0.0789
   36POPC    HY 4808   1.224  -0.245  10.443  0.4314  0.5510 -2.9051
   36POPC   O31 4809   1.162  -0.367  10.292 -0.1794 -0.2810  1.0088
   36POPC   C31 4810   1.162  -0.272  10.198  0.2665  0.2084 -0.0842
   36POPC   O32 4811   1.170  -0.150  10.216  0.0977 -0.1853  0.3708
   36POPC   C32 4812   1.151  -0.343  10.059  0.0745 -0.7168 -0.3062
   36POPC   H2X 4813   1.046  -0.374  10.038  0.6546 -3.3813  0.4442
   36POPC   H2Y 4814   1.210  -0.435  10.074  1.2487  0.0228 -0.2685
   36POPC   C23 4815   0.689  -0.535  10.214 -0.3249 -0.5908  0.1492
   36POPC   H3R 4816   0.635  -0.444  10.181 -0.6727 -0.8033  0.1297
   36POPC   H3S 4817   0.617  -0.619  10.224  0.4551 -1.3641 -0.6103
   36POPC   C24 4818   0.784  -0.577  10.109  0.1485 -0.1008 -0.3758
   36POPC   H4R 4819   0.836  -0.672  10.135  0.3872  0.2630  0.5422
   36POPC   H4S 4820   0.860  -0.495  10.108  0.4304 -0.3622 -0.3414
   36POPC   C25 4821   0.729  -0.582   9.969  0.1125 -0.5475  0.5572
   36POPC   H5R 4822   0.710  -0.478   9.933 -0.8736 -1.2286 -1.0006
   36POPC   H5S 4823   0.636  -0.642   9.964 -0.5417  0.5418 -1.3420
   36POPC   C26 4824   0.838  -0.638   9.861  0.5509 -0.3096 -0.1733
   36POPC   H6R 4825   0.864  -0.737   9.905  0.1892  0.4488  1.8781
   36POPC   H6S 4826   0.926  -0.572   9.877  0.8986 -0.5541 -1.0073
   36POPC   C27 4827   0.784  -0.647   9.723 -0.2821  0.0543  0.8566
   36POPC   H7R 4828   0.760  -0.544   9.688  0.2831 -0.1959 -0.3284
   36POPC   H7S 4829   0.681  -0.688   9.722  0.0242 -0.7520 -0.1013
   36POPC   C28 4830   0.877  -0.718   9.628  0.1568 -0.0239  1.3245
   36POPC   H8R 4831   0.896  -0.824   9.657 -3.5448 -1.5810 -1.1617
   36POPC   H8S 4832   0.968  -0.655   9.620 -0.2785  0.3948 -4.3037
   36POPC   C29 4833   0.810  -0.736   9.490 -0.4065  0.3296  0.3040
   36POPC   H91 4834   0.707  -0.774   9.495 -1.1500  1.8312 -1.8246
   36POPC  C210 4835   0.856  -0.702   9.368 -0.3264  0.5220  0.0273
   36POPC  H101 4836   0.789  -0.722   9.283  0.9144  0.9503 -1.0899
   36POPC  C211 4837   0.986  -0.630   9.350  0.3794 -1.0830  0.3342
   36POPC  H11R 4838   1.064  -0.660   9.424  1.6443 -0.2880 -0.6384
   36POPC  H11S 4839   0.981  -0.524   9.381  2.1229 -0.7969 -0.2784
   36POPC  C212 4840   1.027  -0.639   9.204 -0.0296 -0.0210 -0.7451
   36POPC  H12R 4841   1.115  -0.573   9.189 -0.7694  1.7627  2.0569
   36POPC  H12S 4842   0.948  -0.609   9.132 -0.4556  2.6208  0.7038
   36POPC  C213 4843   1.050  -0.785   9.160 -0.5567  0.2572  0.1584
   36POPC  H13R 4844   0.955  -0.842   9.155 -1.4055  1.6647 -0.3760
   36POPC  H13S 4845   1.122  -0.834   9.228  0.2646  3.4224  1.7643
   36POPC  C214 4846   1.108  -0.793   9.018  0.0083  0.0672 -0.3679
   36POPC  H14R 4847   1.187  -0.717   9.007 -0.1248  0.0592 -1.4871
   36POPC  H14S 4848   1.035  -0.780   8.936 -0.3398 -2.6451 -0.5933
   36POPC  C215 4849   1.178  -0.927   8.991 -0.3046  0.3717  0.2219
   36POPC  H15R 4850   1.242  -0.948   9.080  1.2053  1.3045 -0.5995
   36POPC  H15S 4851   1.239  -0.917   8.898  0.6925  0.3922  0.8549
   36POPC  C216 4852   1.077  -1.042   8.968  0.4232 -0.2574 -0.1723
   36POPC  H16R 4853   1.010  -1.013   8.884 -0.3249  0.5405  0.6787
   36POPC  H16S 4854   1.020  -1.060   9.062  0.6522 -0.9570 -0.1629
   36POPC  C217 4855   1.144  -1.173   8.931 -0.3645 -0.3548  0.3181
   36POPC  H17R 4856   1.173  -1.227   9.023 -0.3953 -1.2251 -0.1686
   36POPC  H17S 4857   1.241  -1.158   8.878  1.2463 -0.3653  3.0667
   36POPC  C218 4858   1.046  -1.255   8.853 -0.8879 -0.1619  0.0798
   36POPC  H18R 4859   1.085  -1.352   8.814  0.8538  0.7853 -0.6641
   36POPC  H18S 4860   1.027  -1.209   8.754  0.4165  0.3716  0.0623
   36POPC  H18T 4861   0.945  -1.270   8.896 -0.1305  0.9976  2.4040
   36POPC   C33 4862   1.211  -0.267   9.934 -0.5655 -0.4600 -0.0952
   36POPC   H3X 4863   1.313  -0.228   9.953 -1.0877  0.5892  0.6265
   36POPC   H3Y 4864   1.147  -0.176   9.921  0.8442  0.5593 -0.1745
   36POPC   C34 4865   1.204  -0.343   9.800  0.5329 -0.3177 -0.1299
   36POPC   H4X 4866   1.098  -0.360   9.775  0.0036 -1.7490  2.6934
   36POPC   H4Y 4867   1.258  -0.440   9.808  1.8084  0.2266 -1.5456
   36POPC   C35 4868   1.252  -0.267   9.678 -0.3301 -0.2831 -0.4715
   36POPC   H5X 4869   1.361  -0.247   9.685 -0.7204  2.2385 -0.7946
   36POPC   H5Y 4870   1.201  -0.170   9.666 -0.8316 -0.5910 -0.8627
   36POPC   C36 4871   1.226  -0.350   9.555 -0.0045  1.0760  0.3627
   36POPC   H6X 4872   1.117  -0.374   9.547  0.1095  0.0343  1.6383
   36POPC   H6Y 4873   1.265  -0.453   9.558  0.3306  1.0314 -2.5694
   36POPC   C37 4874   1.281  -0.285   9.433 -0.3295 -0.7719 -0.1102
   36POPC   H7X 4875   1.390  -0.306   9.424 -0.5547 -2.4089  0.5597
   36POPC   H7Y 4876   1.261  -0.177   9.446 -0.0737 -0.8067  0.6070
   36POPC   C38 4877   1.223  -0.331   9.295 -0.0847 -0.9928  0.5297
   36POPC   H8X 4878   1.116  -0.307   9.282  0.1495 -1.1235 -2.2562
   36POPC   H8Y 4879   1.256  -0.436   9.281  4.5993  0.4769 -1.9677
   36POPC   C39 4880   1.284  -0.255   9.172 -0.3431 -0.5193 -0.0208
   36POPC   H9X 4881   1.389  -0.285   9.152 -0.2324 -0.3169  0.2421
   36POPC   H9Y 4882   1.279  -0.150   9.207  0.1162 -0.5922  0.2769
   36POPC  C310 4883   1.210  -0.269   9.042  0.7132  0.2104 -0.3768
   36POPC  H10X 4884   1.116  -0.209   9.046  1.1674  0.9442 -0.5650
   36POPC  H10Y 4885   1.184  -0.376   9.031 -0.4553  0.2783  1.3218
   36POPC  C311 4886   1.274  -0.235   8.910 -0.2266 -0.1015  0.2351
   36POPC  H11X 4887   1.375  -0.280   8.906  1.2682  2.6643  2.9904
   36POPC  H11Y 4888   1.274  -0.128   8.879 -1.6266 -0.7145 -2.1916
   36POPC  C312 4889   1.182  -0.282   8.786 -0.6378  0.4235 -0.8756
   36POPC  H12X 4890   1.076  -0.253   8.803 -0.4738  0.1976  0.7108
   36POPC  H12Y 4891   1.185  -0.392   8.803  2.7950  0.5689  0.3137
   36POPC  C313 4892   1.235  -0.240   8.652 -0.7055 -0.5822  0.2221
   36POPC  H13X 4893   1.217  -0.315   8.572 -0.9999  1.5696 -1.8270
   36POPC  H13Y 4894   1.344  -0.216   8.649 -1.0171  0.9811  0.6414
   36POPC  C314 4895   1.170  -0.117   8.592  0.1793 -0.5107  0.1322
   36POPC  H14X 4896   1.191  -0.029   8.656  2.2942 -2.2297  1.9977
   36POPC  H14Y 4897   1.062  -0.144   8.593 -0.1353  0.6484  1.8950
   36POPC  C315 4898   1.212  -0.084   8.450 -0.3163  0.0140 -0.2051
   36POPC  H15X 4899   1.158   0.008   8.419 -0.1209 -0.0180 -0.6417
   36POPC  H15Y 4900   1.177  -0.172   8.393  0.1626 -1.0919  1.1596
   36POPC  C316 4901   1.363  -0.059   8.427 -0.0457  0.0743 -0.1663
   36POPC  H16X 4902   1.421  -0.153   8.422 -1.7215 -1.0587  0.6639
   36POPC  H16Y 4903   1.407  -0.003   8.512  0.7520 -0.8533  0.0521
   36POPC  H16Z 4904   1.366  -0.000   8.333  1.3706 -1.9763 -1.4835
   37POPC     N 4905   0.648   0.554   6.490  0.8021 -0.4059 -0.1027
   37POPC   C12 4906   0.615   0.477   6.623  0.0021  0.0013  0.0362
   37POPC  H12A 4907   0.526   0.522   6.664 -0.2235  0.7151 -1.1949
   37POPC  H12B 4908   0.696   0.497   6.692  0.6529  0.1491 -0.7536
   37POPC   C13 4909   0.656   0.702   6.512 -0.2672  0.1563 -0.0764
   37POPC  H13A 4910   0.671   0.754   6.419 -2.2984 -0.9343 -1.0910
   37POPC  H13B 4911   0.565   0.747   6.548  0.0578  0.6278  0.1644
   37POPC  H13C 4912   0.735   0.731   6.579 -0.3085  1.1268 -0.4385
   37POPC   C14 4913   0.776   0.505   6.428 -1.1940  0.6822  0.4992
   37POPC  H14A 4914   0.811   0.552   6.337  0.1801 -1.2430 -0.0201
   37POPC  H14B 4915   0.857   0.503   6.498 -1.4909  0.4651  0.8371
   37POPC  H14C 4916   0.765   0.406   6.387  3.4167  0.8616 -1.8348
   37POPC   C15 4917   0.534   0.535   6.387  0.1611  1.0199 -0.1104
   37POPC  H15A 4918   0.541   0.439   6.338 -0.9064 -0.3311  2.2054
   37POPC  H15B 4919   0.515   0.612   6.313 -1.9695 -0.8472 -1.6392
   37POPC  H15C 4920   0.440   0.522   6.439  0.3396 -1.5451 -0.3055
   37POPC   C11 4921   0.591   0.323   6.621  0.2091 -0.2147  0.5274
   37POPC  H11A 4922   0.511   0.292   6.550  2.0395 -0.2548 -1.6345
   37POPC  H11B 4923   0.552   0.306   6.724  0.8575  2.5352  1.3040
   37POPC     P 4924   0.833   0.250   6.685 -0.3655  0.0253  0.1378
   37POPC   O13 4925   0.937   0.339   6.627  0.0643  0.6636  0.2031
   37POPC   O14 4926   0.870   0.112   6.714  0.0137  0.7200 -0.3819
   37POPC   O12 4927   0.713   0.260   6.587 -0.2356 -0.0981  0.9026
   37POPC   O11 4928   0.765   0.315   6.814  0.1266 -0.2294  1.0201
   37POPC    C1 4929   0.851   0.400   6.895 -0.2380 -0.3205 -0.5318
   37POPC    HA 4930   0.839   0.503   6.855  0.0694 -0.5356 -1.2006
   37POPC    HB 4931   0.958   0.367   6.890 -1.2033 -3.7673 -1.9381
   37POPC    C2 4932   0.820   0.394   7.045 -0.2784  0.5023  0.1917
   37POPC    HS 4933   0.888   0.468   7.092 -1.6261  0.5111  2.2700
   37POPC   O21 4934   0.830   0.258   7.087  0.3558  0.6668 -0.4041
   37POPC   C21 4935   0.956   0.218   7.105  0.1444  0.1585 -0.3330
   37POPC   O22 4936   1.054   0.282   7.083 -0.5203  0.0856  0.3564
   37POPC   C22 4937   0.956   0.075   7.168 -0.0729 -0.0043 -0.0207
   37POPC   H2R 4938   1.050   0.018   7.154  0.0597  0.3671 -0.6576
   37POPC   H2S 4939   0.890   0.010   7.107 -1.9849  1.2108  0.6465
   37POPC    C3 4940   0.684   0.445   7.081  1.1563  0.8160  0.3978
   37POPC    HX 4941   0.613   0.367   7.046  1.2371  0.8396  0.1866
   37POPC    HY 4942   0.670   0.544   7.032  1.4631  2.5288  3.4837
   37POPC   O31 4943   0.680   0.456   7.226  0.1337  0.0615  0.1108
   37POPC   C31 4944   0.565   0.449   7.292  0.7314 -0.1159  0.8191
   37POPC   O32 4945   0.456   0.470   7.237 -0.8384  0.7053  0.6866
   37POPC   C32 4946   0.586   0.371   7.427 -0.1040 -0.0960 -0.2360
   37POPC   H2X 4947   0.666   0.299   7.399 -1.8211 -2.1534 -0.2060
   37POPC   H2Y 4948   0.491   0.316   7.445 -0.3811  0.5030  0.1478
   37POPC   C23 4949   0.919   0.087   7.319  0.2502  0.2838  0.7629
   37POPC   H3R 4950   0.866  -0.007   7.345 -1.1584  0.4817 -1.1750
   37POPC   H3S 4951   0.842   0.167   7.329 -0.2264 -0.0689 -0.0752
   37POPC   C24 4952   1.048   0.113   7.402 -0.3436 -0.1981 -0.8072
   37POPC   H4R 4953   1.088   0.210   7.365  0.5612  0.2800  1.2676
   37POPC   H4S 4954   1.118   0.029   7.385  1.0255  1.0237 -1.3745
   37POPC   C25 4955   1.019   0.115   7.546 -0.6544 -0.0124 -0.3362
   37POPC   H5R 4956   0.995   0.013   7.584  2.3830 -0.5003  0.5255
   37POPC   H5S 4957   0.926   0.174   7.563 -1.3787  0.1237 -4.0009
   37POPC   C26 4958   1.141   0.156   7.630 -0.3823 -0.2996  0.0454
   37POPC   H6R 4959   1.122   0.161   7.739  0.9356 -1.1144  0.3326
   37POPC   H6S 4960   1.159   0.262   7.603 -0.1898 -0.1809  0.6413
   37POPC   C27 4961   1.272   0.076   7.611 -0.4638 -0.8463  0.1570
   37POPC   H7R 4962   1.314   0.076   7.508  1.0712 -0.2659  0.7615
   37POPC   H7S 4963   1.256  -0.030   7.641 -0.9438 -0.8619 -0.1399
   37POPC   C28 4964   1.375   0.137   7.696 -0.0844  0.1937 -0.3339
   37POPC   H8R 4965   1.328   0.171   7.791 -1.5411  0.6743 -1.1801
   37POPC   H8S 4966   1.410   0.232   7.650 -1.6948  0.4941 -1.0219
   37POPC   C29 4967   1.504   0.071   7.723  0.4162 -0.2779 -0.1099
   37POPC   H91 4968   1.571   0.074   7.635  0.6549  0.1414  0.0831
   37POPC  C210 4969   1.558   0.027   7.841  0.2158 -0.0932 -0.4547
   37POPC  H101 4970   1.661  -0.010   7.832 -0.3801 -1.5228 -1.8028
   37POPC  C211 4971   1.499   0.025   7.982  0.4173 -0.6531  0.6615
   37POPC  H11R 4972   1.392  -0.001   7.986 -0.2028  0.1754 -4.3481
   37POPC  H11S 4973   1.504   0.117   8.043 -2.7146  0.1447 -0.1304
   37POPC  C212 4974   1.554  -0.093   8.064  0.6966  0.2188  0.1613
   37POPC  H12R 4975   1.548  -0.183   7.999  0.5625 -0.6306  1.3195
   37POPC  H12S 4976   1.487  -0.106   8.151 -0.8525  0.8492 -0.9051
   37POPC  C213 4977   1.699  -0.078   8.111 -0.2277 -0.5605  0.4204
   37POPC  H13R 4978   1.765  -0.054   8.025 -1.5006 -0.9316 -0.7044
   37POPC  H13S 4979   1.736  -0.172   8.156  1.6359 -0.1162 -0.1112
   37POPC  C214 4980   1.705   0.025   8.219  1.0048  0.6848 -0.2418
   37POPC  H14R 4981   1.646  -0.012   8.306  2.2446  0.1115  0.3733
   37POPC  H14S 4982   1.662   0.118   8.176  0.5465 -0.3066 -2.0580
   37POPC  C215 4983   1.847   0.037   8.290  0.1309  0.5390 -0.0063
   37POPC  H15R 4984   1.921   0.027   8.208 -2.2759 -0.8900 -2.1904
   37POPC  H15S 4985   1.871  -0.042   8.364  0.7178  2.1570  1.5757
   37POPC  C216 4986   1.882   0.175   8.357  0.3378 -0.4758 -0.4013
   37POPC  H16R 4987   1.825   0.171   8.453 -0.0457  0.3928 -0.5857
   37POPC  H16S 4988   1.847   0.256   8.290 -0.1647  1.8586  2.4915
   37POPC  C217 4989   2.024   0.202   8.397 -0.7901  0.3330 -0.0997
   37POPC  H17R 4990   2.086   0.221   8.307 -0.9416  0.9198 -0.0833
   37POPC  H17S 4991   2.080   0.116   8.440 -0.3446  0.5449 -0.2451
   37POPC  C218 4992   2.038   0.311   8.510 -0.7814  0.9541 -0.4496
   37POPC  H18R 4993   1.958   0.286   8.584  1.0034  1.7573  1.8610
   37POPC  H18S 4994   2.011   0.410   8.468 -0.4377  0.9651 -0.6432
   37POPC  H18T 4995   2.127   0.299   8.576 -0.5418 -0.3396 -0.9721
   37POPC   C33 4996   0.617   0.469   7.548  0.3319 -0.2261  0.2797
   37POPC   H3X 4997   0.538   0.547   7.551 -0.5447 -0.8885 -2.4002
   37POPC   H3Y 4998   0.718   0.511   7.533 -0.1996  1.1411  0.3788
   37POPC   C34 4999   0.620   0.398   7.679  0.0713  0.7049 -0.0931
   37POPC   H4X 5000   0.692   0.317   7.703 -0.8123  0.6970  3.0145
   37POPC   H4Y 5001   0.517   0.360   7.697  1.1411 -2.0434  0.7444
   37POPC   C35 5002   0.644   0.491   7.793  0.9758 -0.2082 -0.4947
   37POPC   H5X 5003   0.577   0.579   7.787  0.4337 -0.5121  0.6484
   37POPC   H5Y 5004   0.749   0.525   7.784  0.3252  1.5950 -1.8239
   37POPC   C36 5005   0.629   0.424   7.928  0.0715 -0.1589  0.0164
   37POPC   H6X 5006   0.702   0.341   7.928 -0.8463 -0.9869 -0.3937
   37POPC   H6Y 5007   0.523   0.391   7.925 -0.5913  1.8036 -0.0209
   37POPC   C37 5008   0.649   0.514   8.052  0.1342  0.3359  0.1053
   37POPC   H7X 5009   0.587   0.606   8.048  1.4265  1.2456  0.3585
   37POPC   H7Y 5010   0.751   0.558   8.055  0.4485 -0.4184  0.5502
   37POPC   C38 5011   0.633   0.441   8.181 -0.0263  0.5289 -0.0218
   37POPC   H8X 5012   0.722   0.375   8.186 -0.1904  0.3085 -0.0433
   37POPC   H8Y 5013   0.553   0.365   8.187 -0.5584  0.8554 -2.1620
   37POPC   C39 5014   0.608   0.534   8.302 -0.9746  1.3155  0.5215
   37POPC   H9X 5015   0.692   0.606   8.316 -0.7595  0.8014  2.2094
   37POPC   H9Y 5016   0.625   0.463   8.386 -0.4963 -0.1121 -0.7425
   37POPC  C310 5017   0.477   0.611   8.308 -0.1559  0.0432 -0.1991
   37POPC  H10X 5018   0.484   0.701   8.243  0.6306 -0.6868 -1.1370
   37POPC  H10Y 5019   0.446   0.640   8.411  2.1914  0.5476  0.4094
   37POPC  C311 5020   0.362   0.525   8.262  0.0326 -0.3146  0.9462
   37POPC  H11X 5021   0.335   0.438   8.326  1.1669 -0.5454  1.1298
   37POPC  H11Y 5022   0.374   0.483   8.159 -1.7225  0.9410  0.1735
   37POPC  C312 5023   0.227   0.603   8.258  0.7381 -0.2325  0.1439
   37POPC  H12X 5024   0.236   0.691   8.191 -0.7286 -0.3778 -0.2934
   37POPC  H12Y 5025   0.194   0.628   8.361  1.3117 -0.1654  0.3134
   37POPC  C313 5026   0.111   0.516   8.194  0.0944  0.2900 -0.0146
   37POPC  H13X 5027   0.019   0.570   8.226 -0.0321 -0.0349  0.1715
   37POPC  H13Y 5028   0.105   0.414   8.239 -1.3808  0.0698 -0.6440
   37POPC  C314 5029   0.122   0.501   8.049  0.2408 -0.2477  0.4830
   37POPC  H14X 5030   0.086   0.399   8.022 -1.3865  0.1067  1.1559
   37POPC  H14Y 5031   0.230   0.511   8.024  0.0969  0.6608  0.1733
   37POPC  C315 5032   0.035   0.603   7.973  0.0574 -0.6095 -0.4976
   37POPC  H15X 5033   0.054   0.705   8.012 -0.7034 -0.8322  0.4994
   37POPC  H15Y 5034  -0.069   0.569   7.995  0.0626 -0.9490 -0.9992
   37POPC  C316 5035   0.058   0.595   7.824 -0.1104 -0.4525 -0.1920
   37POPC  H16X 5036  -0.019   0.652   7.768  0.2682  0.3333  0.0625
   37POPC  H16Y 5037   0.052   0.488   7.796  0.9496 -0.4319 -0.5570
   37POPC  H16Z 5038   0.163   0.629   7.805  0.1566 -1.6255 -0.9151
   38POPC     N 5039   1.559   4.613   6.309  0.0422  0.0605  0.3875
   38POPC   C12 5040   1.435   4.545   6.363  0.0425  0.3222 -0.9333
   38POPC  H12A 5041   1.360   4.617   6.393 -0.5259 -0.7805  0.4189
   38POPC  H12B 5042   1.465   4.490   6.451  0.1726  0.4893 -0.8738
   38POPC   C13 5043   1.653   4.517   6.243 -0.0975  0.0080 -0.2668
   38POPC  H13A 5044   1.727   4.579   6.194  1.0349 -1.8250 -1.0275
   38POPC  H13B 5045   1.708   4.459   6.316  1.1034  2.6127  1.0543
   38POPC  H13C 5046   1.601   4.451   6.174  0.7265  1.3615 -2.2846
   38POPC   C14 5047   1.541   4.723   6.208  0.4686  0.5962 -0.2375
   38POPC  H14A 5048   1.636   4.763   6.176  0.4510  0.2890 -0.6733
   38POPC  H14B 5049   1.495   4.682   6.120  0.0442 -2.2291  1.1754
   38POPC  H14C 5050   1.478   4.802   6.245  0.9890  0.6202  0.6300
   38POPC   C15 5051   1.636   4.675   6.417  0.3017  0.2381 -0.7395
   38POPC  H15A 5052   1.583   4.751   6.473 -1.4475 -2.1593  1.1334
   38POPC  H15B 5053   1.720   4.720   6.368  0.5732 -2.0392 -2.5203
   38POPC  H15C 5054   1.679   4.593   6.474 -0.9860  0.3572  0.4943
   38POPC   C11 5055   1.362   4.438   6.271 -0.1701 -0.1972  0.0447
   38POPC  H11A 5056   1.340   4.484   6.172  0.3035  1.3256  0.6176
   38POPC  H11B 5057   1.259   4.418   6.308 -0.4231  0.7238 -0.1400
   38POPC     P 5058   1.417   4.208   6.371  0.5279  0.1180 -0.3735
   38POPC   O13 5059   1.549   4.155   6.406 -0.5751  0.6026 -0.0305
   38POPC   O14 5060   1.313   4.116   6.315 -0.1524 -0.6924  0.2387
   38POPC   O12 5061   1.431   4.314   6.256 -0.1488 -0.0462  0.4872
   38POPC   O11 5062   1.357   4.294   6.492 -0.3463  0.3107 -0.2717
   38POPC    C1 5063   1.270   4.240   6.589  0.2490  0.0401  0.4876
   38POPC    HA 5064   1.187   4.174   6.557  0.3088 -0.0964  0.6150
   38POPC    HB 5065   1.211   4.323   6.632 -0.9016 -0.9777  0.9257
   38POPC    C2 5066   1.349   4.176   6.704  0.2573 -0.0113  1.3853
   38POPC    HS 5067   1.389   4.082   6.661 -1.5319  0.1340 -0.7843
   38POPC   O21 5068   1.260   4.154   6.818  0.3583 -0.1779 -0.0515
   38POPC   C21 5069   1.217   4.033   6.817  0.1572 -0.4218  0.0756
   38POPC   O22 5070   1.222   3.958   6.723  0.0630  0.0791 -0.1727
   38POPC   C22 5071   1.136   3.999   6.941 -0.3646  0.0873 -0.2403
   38POPC   H2R 5072   1.053   3.931   6.911 -2.3595  1.7740  1.1424
   38POPC   H2S 5073   1.089   4.090   6.984 -2.7162 -0.2972 -1.7563
   38POPC    C3 5074   1.476   4.268   6.737  0.1961 -0.7819 -0.1763
   38POPC    HX 5075   1.451   4.376   6.738  1.0327 -0.5612  1.6465
   38POPC    HY 5076   1.549   4.257   6.654 -0.4970 -3.3758 -0.5422
   38POPC   O31 5077   1.528   4.216   6.869  0.4363  0.0221  0.0743
   38POPC   C31 5078   1.569   4.308   6.952 -0.4457  0.1603 -0.0273
   38POPC   O32 5079   1.560   4.428   6.936 -0.2389 -0.6578  0.5459
   38POPC   C32 5080   1.623   4.237   7.070 -0.1956 -0.7547  0.1648
   38POPC   H2X 5081   1.714   4.180   7.044  0.8426  1.0403 -0.2807
   38POPC   H2Y 5082   1.534   4.182   7.108 -1.5160 -0.4818 -2.3018
   38POPC   C23 5083   1.233   3.928   7.047 -0.4461 -1.0785 -0.3314
   38POPC   H3R 5084   1.314   4.002   7.068 -1.8896  0.7431 -0.8462
   38POPC   H3S 5085   1.284   3.842   6.999  1.2067 -0.7524  0.7461
   38POPC   C24 5086   1.171   3.869   7.181 -0.0638 -0.2146  0.4708
   38POPC   H4R 5087   1.104   3.786   7.150  1.3276 -1.6865  1.2634
   38POPC   H4S 5088   1.103   3.947   7.221  2.1594  0.4299  3.2971
   38POPC   C25 5089   1.279   3.838   7.279 -0.1243  0.5128 -0.3573
   38POPC   H5R 5090   1.352   3.921   7.290  1.0195 -0.3137 -1.4531
   38POPC   H5S 5091   1.335   3.750   7.242 -0.6806 -0.6903  1.4710
   38POPC   C26 5092   1.220   3.802   7.425  0.8604  0.1333 -0.2445
   38POPC   H6R 5093   1.300   3.753   7.484  1.3459  1.1007 -0.0860
   38POPC   H6S 5094   1.131   3.738   7.406  0.9799  0.3295 -1.5532
   38POPC   C27 5095   1.172   3.925   7.505  0.5489  0.1546  0.1486
   38POPC   H7R 5096   1.100   3.977   7.437 -2.6633 -2.6280  1.1201
   38POPC   H7S 5097   1.253   3.990   7.542  0.1170  0.9550 -0.2831
   38POPC   C28 5098   1.073   3.888   7.612 -0.4873  0.2030 -0.5132
   38POPC   H8R 5099   1.123   3.809   7.672 -2.1986 -1.1556 -0.7932
   38POPC   H8S 5100   0.981   3.851   7.562 -1.3431  0.6445  0.6669
   38POPC   C29 5101   1.025   4.004   7.695  0.2367 -0.4187  0.4203
   38POPC   H91 5102   0.970   4.086   7.646 -4.5987 -2.0188  2.5576
   38POPC  C210 5103   1.022   4.019   7.828  0.2611  0.1812  0.5334
   38POPC  H101 5104   0.987   4.108   7.881  0.8698 -0.3030  1.7838
   38POPC  C211 5105   1.065   3.918   7.929 -0.1138 -0.0615  0.4162
   38POPC  H11R 5106   1.168   3.939   7.965  0.6490  0.2718 -1.8447
   38POPC  H11S 5107   1.070   3.814   7.889  0.1078  0.0065  0.2681
   38POPC  C212 5108   0.967   3.905   8.041 -0.3559 -0.5866  0.5171
   38POPC  H12R 5109   0.872   3.868   7.998  2.1542 -4.1994 -2.5398
   38POPC  H12S 5110   0.948   4.005   8.086 -0.1556  0.3585 -1.3841
   38POPC  C213 5111   1.003   3.804   8.144  0.6280 -0.5080 -0.0230
   38POPC  H13R 5112   1.090   3.845   8.198  2.3481 -1.1334 -2.1671
   38POPC  H13S 5113   1.035   3.703   8.111 -0.9117 -0.9912 -0.1516
   38POPC  C214 5114   0.879   3.784   8.238 -0.1687  1.2642 -0.4669
   38POPC  H14R 5115   0.791   3.751   8.180  0.6143 -1.1622 -0.3714
   38POPC  H14S 5116   0.851   3.882   8.283 -2.9819  0.0666  0.6290
   38POPC  C215 5117   0.916   3.685   8.346 -0.4195  0.5501 -0.1817
   38POPC  H15R 5118   0.989   3.745   8.405  0.2393 -0.4874  0.0876
   38POPC  H15S 5119   0.969   3.593   8.311  1.7115  1.8241 -0.4800
   38POPC  C216 5120   0.803   3.642   8.438  0.3569  0.3172 -0.4506
   38POPC  H16R 5121   0.717   3.591   8.389 -0.8151  1.3899  0.4219
   38POPC  H16S 5122   0.747   3.733   8.470 -0.5593 -1.0367  2.0857
   38POPC  C217 5123   0.860   3.562   8.555  0.6979  0.0173  0.3472
   38POPC  H17R 5124   0.942   3.622   8.600  0.7312 -1.0511  1.7855
   38POPC  H17S 5125   0.905   3.472   8.509 -0.1561 -0.1534 -0.1810
   38POPC  C218 5126   0.763   3.502   8.656 -0.1767 -0.3759 -0.4743
   38POPC  H18R 5127   0.820   3.454   8.739  0.5955  0.9320 -0.2241
   38POPC  H18S 5128   0.705   3.417   8.614  1.1812 -0.5254 -2.1433
   38POPC  H18T 5129   0.700   3.577   8.708 -1.8975 -0.9924 -1.5574
   38POPC   C33 5130   1.667   4.344   7.172 -0.1793  0.2648  0.8252
   38POPC   H3X 5131   1.587   4.421   7.188 -1.6449 -0.5493 -1.9960
   38POPC   H3Y 5132   1.752   4.391   7.119 -1.2979 -2.5872 -4.0933
   38POPC   C34 5133   1.706   4.291   7.309 -0.2678 -0.4216  0.0972
   38POPC   H4X 5134   1.788   4.351   7.354 -0.6497  0.2038 -0.0258
   38POPC   H4Y 5135   1.749   4.190   7.292 -0.0961 -0.2829 -0.3081
   38POPC   C35 5136   1.595   4.274   7.417 -0.7481  0.0922 -0.0181
   38POPC   H5X 5137   1.531   4.197   7.369 -0.0016 -0.6856  0.2088
   38POPC   H5Y 5138   1.542   4.369   7.440  1.5970  1.8148 -1.3016
   38POPC   C36 5139   1.654   4.230   7.554  0.6480 -0.0572 -0.0692
   38POPC   H6X 5140   1.704   4.321   7.593 -0.3612  0.3046  0.4049
   38POPC   H6Y 5141   1.734   4.155   7.539  1.1076  0.1622  1.1842
   38POPC   C37 5142   1.551   4.175   7.649  0.1452  0.1432 -0.9055
   38POPC   H7X 5143   1.529   4.073   7.611  1.4254 -0.3083 -0.4909
   38POPC   H7Y 5144   1.460   4.239   7.644  0.8998  1.5018  1.2589
   38POPC   C38 5145   1.595   4.170   7.797 -0.4031  0.7442  0.0590
   38POPC   H8X 5146   1.618   4.272   7.836  0.6334  0.9843 -1.0971
   38POPC   H8Y 5147   1.696   4.124   7.804  0.4668  2.7408  1.9833
   38POPC   C39 5148   1.509   4.089   7.890 -0.4377 -0.3870  0.8876
   38POPC   H9X 5149   1.492   3.989   7.846 -0.4180 -0.6351  1.4329
   38POPC   H9Y 5150   1.408   4.134   7.895 -0.3460 -0.0601 -0.0475
   38POPC  C310 5151   1.570   4.077   8.037  0.0142 -0.3196 -0.4346
   38POPC  H10X 5152   1.534   4.168   8.090  1.5937 -0.5727  1.1915
   38POPC  H10Y 5153   1.681   4.082   8.039 -0.0200  0.7599  1.1607
   38POPC  C311 5154   1.527   3.949   8.115  0.1757  0.2712 -0.5015
   38POPC  H11X 5155   1.585   3.868   8.066 -1.6349 -1.6649  0.4216
   38POPC  H11Y 5156   1.420   3.930   8.094 -0.2930  0.6797  1.3953
   38POPC  C312 5157   1.542   3.944   8.267 -0.7923  0.1293  0.4354
   38POPC  H12X 5158   1.528   4.041   8.319  2.1754  0.3478  1.0513
   38POPC  H12Y 5159   1.646   3.922   8.300 -0.8383  0.6697  0.9629
   38POPC  C313 5160   1.443   3.849   8.322  0.0234  0.2826 -0.6752
   38POPC  H13X 5161   1.478   3.744   8.309  2.9072  0.9400  0.9331
   38POPC  H13Y 5162   1.343   3.870   8.278  1.0294  0.5825 -2.9759
   38POPC  C314 5163   1.419   3.864   8.476 -0.2011 -0.4195  0.5026
   38POPC  H14X 5164   1.442   3.970   8.499  2.2665 -0.8028  0.0529
   38POPC  H14Y 5165   1.498   3.810   8.532 -0.3424 -1.2727 -0.0930
   38POPC  C315 5166   1.279   3.822   8.514 -0.4365  0.1180  0.4888
   38POPC  H15X 5167   1.203   3.872   8.451 -1.0431  0.7161  1.6574
   38POPC  H15Y 5168   1.261   3.844   8.622 -1.1426  1.9495  0.0378
   38POPC  C316 5169   1.268   3.669   8.503 -0.0886  0.5068 -0.3934
   38POPC  H16X 5170   1.243   3.651   8.396 -2.3352 -0.6813  0.2884
   38POPC  H16Y 5171   1.179   3.630   8.556 -0.7430  1.6782 -0.5983
   38POPC  H16Z 5172   1.362   3.614   8.525  0.8421  1.6237 -1.4002
   39POPC     N 5173   0.620   1.108   5.865  0.3904 -0.0645  0.2867
   39POPC   C12 5174   0.626   1.130   6.012 -0.0781  0.1562  0.0026
   39POPC  H12A 5175   0.696   1.207   6.043 -1.4800  2.4811 -2.2179
   39POPC  H12B 5176   0.663   1.039   6.057 -2.7515 -1.0950 -0.1916
   39POPC   C13 5177   0.624   1.241   5.792  0.5433  0.4891 -0.8324
   39POPC  H13A 5178   0.717   1.288   5.820 -0.4805  0.5104  3.2853
   39POPC  H13B 5179   0.622   1.225   5.685  0.0487 -1.4809 -0.5762
   39POPC  H13C 5180   0.543   1.303   5.828  0.8411 -1.4969  4.0689
   39POPC   C14 5181   0.742   1.033   5.823 -0.2100 -0.1564  0.3945
   39POPC  H14A 5182   0.837   1.065   5.864 -0.0727 -0.2781  0.1757
   39POPC  H14B 5183   0.748   0.928   5.846  2.6085  0.2623  2.0578
   39POPC  H14C 5184   0.733   1.039   5.715 -0.4612  1.8712  0.4913
   39POPC   C15 5185   0.497   1.033   5.831  0.0441  0.2713 -0.5014
   39POPC  H15A 5186   0.417   1.097   5.796  0.7347  0.7644 -1.2046
   39POPC  H15B 5187   0.468   0.964   5.909  0.8660 -2.0298 -2.1299
   39POPC  H15C 5188   0.520   0.971   5.746  0.0201  0.0089 -0.3168
   39POPC   C11 5189   0.496   1.142   6.102 -0.5090 -0.0577  0.2336
   39POPC  H11A 5190   0.433   1.212   6.044  0.7136  1.5911  0.8120
   39POPC  H11B 5191   0.529   1.186   6.199  1.4763  0.4274 -0.6120
   39POPC     P 5192   0.482   0.915   6.245  0.1324  0.0751 -0.1696
   39POPC   O13 5193   0.628   0.885   6.226  0.6604 -0.4076 -0.1480
   39POPC   O14 5194   0.391   0.804   6.267 -0.1371 -0.2890  0.0220
   39POPC   O12 5195   0.440   1.015   6.115  0.2549 -0.0029  0.0041
   39POPC   O11 5196   0.464   1.009   6.370  0.3857 -0.3140  0.2137
   39POPC    C1 5197   0.338   1.031   6.437  0.3218 -0.0733 -0.4042
   39POPC    HA 5198   0.323   0.968   6.528 -2.2234 -0.9272 -1.3072
   39POPC    HB 5199   0.255   1.014   6.365 -0.9358 -0.0416  0.9762
   39POPC    C2 5200   0.323   1.180   6.488 -0.1906 -0.1313  0.5247
   39POPC    HS 5201   0.299   1.253   6.408 -0.9812 -1.7447 -0.7749
   39POPC   O21 5202   0.455   1.220   6.533 -0.2794  0.1181  0.3383
   39POPC   C21 5203   0.476   1.342   6.560  0.8958  0.2330  0.1867
   39POPC   O22 5204   0.399   1.436   6.533  0.0059  0.0603  0.3759
   39POPC   C22 5205   0.610   1.358   6.626  0.3100  0.0449 -0.6474
   39POPC   H2R 5206   0.663   1.432   6.562 -0.8174  1.9998  0.5778
   39POPC   H2S 5207   0.669   1.264   6.634 -0.4120 -0.2445  2.2839
   39POPC    C3 5208   0.214   1.193   6.595  0.1841  0.4272  0.1982
   39POPC    HX 5209   0.112   1.176   6.553 -0.4253 -1.5127  2.2992
   39POPC    HY 5210   0.214   1.300   6.627 -0.6330  0.5022 -0.0213
   39POPC   O31 5211   0.230   1.101   6.696 -0.0471 -0.7439 -0.4122
   39POPC   C31 5212   0.270   1.139   6.824 -0.5807 -0.4126  0.6387
   39POPC   O32 5213   0.264   1.255   6.856  0.1070 -0.3608 -0.2082
   39POPC   C32 5214   0.335   1.021   6.903  0.8870  0.0435 -0.0237
   39POPC   H2X 5215   0.268   0.934   6.884  1.4001 -1.2191  3.3122
   39POPC   H2Y 5216   0.432   0.997   6.855  0.9046  0.1183 -0.0254
   39POPC   C23 5217   0.594   1.399   6.774 -0.1980 -0.1020  0.0521
   39POPC   H3R 5218   0.523   1.332   6.826  0.1756 -1.6459 -1.3437
   39POPC   H3S 5219   0.551   1.501   6.781 -0.3179 -0.2199  1.1047
   39POPC   C24 5220   0.717   1.407   6.875  0.4633  0.1060 -0.5288
   39POPC   H4R 5221   0.695   1.492   6.943 -0.5294 -1.5385  1.3055
   39POPC   H4S 5222   0.812   1.420   6.818  1.2606  1.7280  1.0629
   39POPC   C25 5223   0.750   1.288   6.966  0.3235  0.6228 -0.1642
   39POPC   H5R 5224   0.860   1.297   6.977  0.4473  1.9517 -1.9870
   39POPC   H5S 5225   0.724   1.200   6.903 -3.1104  0.6039  1.0817
   39POPC   C26 5226   0.663   1.281   7.094 -0.0569  0.1024  1.3293
   39POPC   H6R 5227   0.677   1.178   7.133 -0.5734 -1.2893 -1.8541
   39POPC   H6S 5228   0.559   1.312   7.068 -0.0722 -0.2853  0.9405
   39POPC   C27 5229   0.714   1.382   7.201  0.0722  0.4007 -0.2614
   39POPC   H7R 5230   0.680   1.484   7.175  0.7241  1.0378  1.2705
   39POPC   H7S 5231   0.823   1.367   7.216  0.1191  0.7514 -0.2465
   39POPC   C28 5232   0.637   1.360   7.336 -0.1322  0.4358  0.5448
   39POPC   H8R 5233   0.527   1.362   7.322 -0.3077  1.0694  1.8968
   39POPC   H8S 5234   0.661   1.447   7.400 -0.0679  0.6715  0.2044
   39POPC   C29 5235   0.674   1.236   7.416 -0.2671 -0.6502  0.3018
   39POPC   H91 5236   0.685   1.145   7.356  0.8763  0.5354 -1.3848
   39POPC  C210 5237   0.704   1.238   7.550 -0.1919 -0.3968  0.3954
   39POPC  H101 5238   0.719   1.140   7.599  1.2202 -0.3528  0.1002
   39POPC  C211 5239   0.709   1.359   7.638 -0.6908  0.3031 -0.0948
   39POPC  H11R 5240   0.775   1.434   7.589  1.2063 -0.5241  1.0917
   39POPC  H11S 5241   0.754   1.330   7.735 -1.8976 -0.5710  0.2260
   39POPC  C212 5242   0.572   1.417   7.671  0.2710 -0.8445  0.0967
   39POPC  H12R 5243   0.520   1.451   7.579  0.0524 -0.9330  0.1854
   39POPC  H12S 5244   0.582   1.509   7.733 -1.3135  1.5948 -2.9964
   39POPC  C213 5245   0.476   1.318   7.741  0.1056 -0.4175  0.1159
   39POPC  H13R 5246   0.536   1.242   7.796 -0.6505 -0.5679  0.7646
   39POPC  H13S 5247   0.408   1.267   7.669  1.3903 -0.1037 -1.3513
   39POPC  C214 5248   0.394   1.383   7.865 -0.4787 -0.2294  0.1117
   39POPC  H14R 5249   0.314   1.318   7.907 -0.9408 -1.5620 -2.6256
   39POPC  H14S 5250   0.339   1.464   7.812  0.5886 -1.4869 -3.1997
   39POPC  C215 5251   0.481   1.432   7.985 -0.1191 -1.1365  0.4052
   39POPC  H15R 5252   0.567   1.490   7.946  0.0553  0.0045  2.3593
   39POPC  H15S 5253   0.529   1.345   8.033 -0.9605 -1.9495 -0.1935
   39POPC  C216 5254   0.410   1.507   8.099 -0.3297 -0.1544 -0.1979
   39POPC  H16R 5255   0.319   1.558   8.061 -1.9081 -1.3331  1.8152
   39POPC  H16S 5256   0.480   1.580   8.143 -1.0053 -0.3279  1.2311
   39POPC  C217 5257   0.375   1.417   8.215 -0.2099  0.3427  0.0246
   39POPC  H17R 5258   0.469   1.363   8.236  0.2208  0.9109 -0.3962
   39POPC  H17S 5259   0.301   1.340   8.183 -0.7273  0.1634  1.6015
   39POPC  C218 5260   0.331   1.493   8.342  0.5439  0.6092  0.5759
   39POPC  H18R 5261   0.409   1.565   8.374 -0.0016  1.6937 -0.4357
   39POPC  H18S 5262   0.317   1.418   8.422  3.6635  1.5496  2.1491
   39POPC  H18T 5263   0.238   1.552   8.327  1.6324  2.0308 -0.9324
   39POPC   C33 5264   0.347   1.055   7.049  0.4286  0.6726  0.2117
   39POPC   H3X 5265   0.249   1.066   7.099  1.3030  0.9403  1.9412
   39POPC   H3Y 5266   0.398   1.153   7.057 -1.5075  1.6347  1.2758
   39POPC   C34 5267   0.415   0.946   7.138  0.4615  0.1594  1.0113
   39POPC   H4X 5268   0.511   0.914   7.091 -0.1262 -0.9309  0.5147
   39POPC   H4Y 5269   0.347   0.859   7.127 -2.9412  2.6708  0.7119
   39POPC   C35 5270   0.418   0.967   7.288 -0.5635 -0.4392 -0.1386
   39POPC   H5X 5271   0.329   1.027   7.318 -1.1729 -0.7577 -1.2644
   39POPC   H5Y 5272   0.505   1.025   7.326  0.7278 -1.8864 -0.7719
   39POPC   C36 5273   0.415   0.838   7.367  0.1159 -0.0312 -1.0742
   39POPC   H6X 5274   0.509   0.783   7.347 -0.3923 -0.4551 -2.3909
   39POPC   H6Y 5275   0.333   0.778   7.324  0.0460  0.0536 -1.0595
   39POPC   C37 5276   0.385   0.869   7.515 -0.5183  0.4657  0.3137
   39POPC   H7X 5277   0.354   0.777   7.569 -3.1674  1.0216 -0.1068
   39POPC   H7Y 5278   0.303   0.943   7.530  1.1528  2.3903  0.3956
   39POPC   C38 5279   0.511   0.924   7.580  0.1360  0.0769 -0.6292
   39POPC   H8X 5280   0.547   1.015   7.528  1.1730  0.6811  1.0612
   39POPC   H8Y 5281   0.592   0.849   7.591  1.5764  1.5549 -0.9083
   39POPC   C39 5282   0.476   0.971   7.730 -0.7809 -0.0912  0.1060
   39POPC   H9X 5283   0.397   1.049   7.725  0.0648  0.7494 -0.7125
   39POPC   H9Y 5284   0.561   1.031   7.770 -1.7836  0.9835  0.7037
   39POPC  C310 5285   0.445   0.862   7.830  0.1288  0.5316  0.2395
   39POPC  H10X 5286   0.532   0.795   7.848 -0.5955  0.2619  3.4424
   39POPC  H10Y 5287   0.364   0.790   7.803  1.3202 -1.8088  2.4105
   39POPC  C311 5288   0.415   0.926   7.963  0.1117  0.0058  0.0544
   39POPC  H11X 5289   0.390   0.847   8.037 -0.0463  0.4208  0.4510
   39POPC  H11Y 5290   0.326   0.992   7.970  0.1809 -0.0486  2.1824
   39POPC  C312 5291   0.541   0.986   8.030 -0.4839 -0.6848 -0.0962
   39POPC  H12X 5292   0.582   1.076   7.980  1.7645 -1.4384  0.2467
   39POPC  H12Y 5293   0.629   0.921   8.050 -0.1615 -0.0148  0.7599
   39POPC  C313 5294   0.503   1.039   8.171 -0.1345  0.8665  1.1915
   39POPC  H13X 5295   0.430   0.971   8.222 -1.3860 -0.1638 -1.7329
   39POPC  H13Y 5296   0.458   1.140   8.163  0.3105  1.1420  2.0293
   39POPC  C314 5297   0.626   1.065   8.257  0.1043 -0.1269  0.3829
   39POPC  H14X 5298   0.702   1.129   8.208 -0.9321  3.2509  2.8626
   39POPC  H14Y 5299   0.677   0.968   8.275  0.1300 -0.6280 -2.0003
   39POPC  C315 5300   0.603   1.128   8.398 -0.3214  0.4237 -0.2661
   39POPC  H15X 5301   0.521   1.072   8.448 -0.6208 -0.7749 -1.9994
   39POPC  H15Y 5302   0.572   1.235   8.388  2.6474  1.3413 -0.6993
   39POPC  C316 5303   0.727   1.129   8.483 -0.2888  0.0291  0.0424
   39POPC  H16X 5304   0.731   1.026   8.525 -2.6005 -0.1874 -0.1358
   39POPC  H16Y 5305   0.715   1.212   8.556 -0.1577 -1.0912  1.3732
   39POPC  H16Z 5306   0.820   1.163   8.433 -0.8082  1.2073 -0.1456
   40POPC     N 5307   3.930   6.119   6.240 -0.5844 -0.0465 -0.5268
   40POPC   C12 5308   3.931   6.141   6.395 -0.5010  0.0713 -0.0553
   40POPC  H12A 5309   3.982   6.058   6.441 -0.5543 -0.8016 -1.5273
   40POPC  H12B 5310   3.832   6.153   6.437  0.6372 -1.7239  3.5634
   40POPC   C13 5311   4.058   6.060   6.192 -0.0526 -0.2061 -0.3062
   40POPC  H13A 5312   4.137   6.132   6.213  0.6820 -1.2446  0.6088
   40POPC  H13B 5313   4.077   5.967   6.242 -0.3298  0.0016  0.1957
   40POPC  H13C 5314   4.060   6.037   6.086 -0.0045 -0.8816 -0.1575
   40POPC   C14 5315   3.823   6.016   6.201  0.0536  0.0642 -0.2663
   40POPC  H14A 5316   3.731   6.036   6.254 -0.0040 -1.0814  0.1056
   40POPC  H14B 5317   3.797   6.013   6.096  0.7279 -1.5914 -0.4275
   40POPC  H14C 5318   3.855   5.922   6.245 -2.8745 -0.4939  0.8613
   40POPC   C15 5319   3.907   6.249   6.173  0.1605  0.0344 -0.3060
   40POPC  H15A 5320   3.897   6.248   6.065 -2.3579  0.0499 -0.1246
   40POPC  H15B 5321   3.981   6.317   6.212 -1.3424  0.3882  2.1707
   40POPC  H15C 5322   3.809   6.280   6.207 -0.2112 -1.8013  0.3955
   40POPC   C11 5323   4.020   6.264   6.459  0.1205 -0.1759  0.2690
   40POPC  H11A 5324   4.038   6.238   6.566  0.3189 -0.9811  0.0479
   40POPC  H11B 5325   3.958   6.356   6.454 -0.0210 -0.2581  0.5084
   40POPC     P 5326   4.276   6.200   6.411 -0.0665  0.1543  0.2360
   40POPC   O13 5327   4.361   6.192   6.286  0.0598 -0.4492 -0.4234
   40POPC   O14 5328   4.244   6.067   6.468  0.1573 -0.6935 -0.0169
   40POPC   O12 5329   4.137   6.291   6.392  0.3565  0.1115 -0.3101
   40POPC   O11 5330   4.362   6.275   6.519  0.4236 -0.5582 -0.0229
   40POPC    C1 5331   4.348   6.417   6.524 -0.1346 -0.5665 -0.1770
   40POPC    HA 5332   4.265   6.464   6.466 -0.5014 -0.7034  0.2368
   40POPC    HB 5333   4.434   6.473   6.479 -0.3989 -0.0122 -0.0074
   40POPC    C2 5334   4.329   6.456   6.670  0.1968  0.1316 -0.6394
   40POPC    HS 5335   4.356   6.564   6.672  2.7593 -0.4632  0.3577
   40POPC   O21 5336   4.425   6.385   6.742 -0.0990 -0.4070 -0.1010
   40POPC   C21 5337   4.475   6.442   6.852 -0.0724 -0.4965 -0.3434
   40POPC   O22 5338   4.461   6.560   6.887  0.5504 -0.2703  0.3183
   40POPC   C22 5339   4.573   6.350   6.918  0.5922 -0.4409 -0.2743
   40POPC   H2R 5340   4.649   6.324   6.841  3.4765  2.8988  1.1296
   40POPC   H2S 5341   4.524   6.252   6.938 -0.7698  0.4415  0.8320
   40POPC    C3 5342   4.190   6.410   6.719  0.9045  0.2860 -0.2215
   40POPC    HX 5343   4.187   6.300   6.701  1.2133  0.4202 -1.1383
   40POPC    HY 5344   4.112   6.460   6.658  0.5800 -1.0785 -0.9592
   40POPC   O31 5345   4.165   6.458   6.857  0.2523  0.1298 -0.5592
   40POPC   C31 5346   4.140   6.362   6.945 -0.5653 -0.4317  1.3021
   40POPC   O32 5347   4.101   6.245   6.918 -0.2715 -0.4591 -0.0471
   40POPC   C32 5348   4.176   6.409   7.083 -0.5058 -0.0251  0.3012
   40POPC   H2X 5349   4.100   6.485   7.113  1.1631  0.7735  2.9150
   40POPC   H2Y 5350   4.274   6.460   7.076 -0.3796 -0.4014 -0.8275
   40POPC   C23 5351   4.646   6.406   7.043  0.1833 -0.3476  0.7981
   40POPC   H3R 5352   4.700   6.501   7.028 -0.8810 -0.0404 -1.5800
   40POPC   H3S 5353   4.722   6.327   7.063  0.1260 -0.5257  0.3223
   40POPC   C24 5354   4.565   6.390   7.180  0.3401  0.1178  0.4144
   40POPC   H4R 5355   4.500   6.300   7.177 -0.1780  0.4393 -3.6987
   40POPC   H4S 5356   4.496   6.475   7.197  0.1340 -0.1084  0.7204
   40POPC   C25 5357   4.668   6.379   7.295  0.3808  0.1316 -0.4577
   40POPC   H5R 5358   4.734   6.467   7.310 -0.4169  0.7356 -0.3897
   40POPC   H5S 5359   4.725   6.288   7.269 -0.4959 -0.5252 -0.1144
   40POPC   C26 5360   4.610   6.343   7.434 -0.5075  0.2121  0.3569
   40POPC   H6R 5361   4.572   6.239   7.433  0.4662 -0.1851 -1.8070
   40POPC   H6S 5362   4.529   6.416   7.451  0.3181  0.7856  2.0484
   40POPC   C27 5363   4.720   6.326   7.547 -0.7245  0.1508 -0.4415
   40POPC   H7R 5364   4.781   6.419   7.544  0.1286 -0.3925 -0.3692
   40POPC   H7S 5365   4.772   6.232   7.520  2.0910  1.6109 -0.5238
   40POPC   C28 5366   4.654   6.311   7.689 -0.2099  0.5468  0.3038
   40POPC   H8R 5367   4.734   6.267   7.752 -0.6956  2.9976  2.8124
   40POPC   H8S 5368   4.570   6.238   7.685  0.9119 -0.7508 -0.2749
   40POPC   C29 5369   4.605   6.439   7.749 -0.3895  0.1373 -0.0026
   40POPC   H91 5370   4.553   6.512   7.686  0.1515  1.3630  0.9197
   40POPC  C210 5371   4.635   6.466   7.877  0.4292 -0.4935 -0.7922
   40POPC  H101 5372   4.626   6.573   7.899 -1.4550 -0.9392  0.7992
   40POPC  C211 5373   4.708   6.392   7.980 -0.1081 -0.3420 -0.5258
   40POPC  H11R 5374   4.735   6.290   7.948  2.8680 -0.5824  2.2433
   40POPC  H11S 5375   4.645   6.375   8.070 -1.5562 -1.1865 -1.6426
   40POPC  C212 5376   4.839   6.472   8.019  1.1644  0.0573 -0.0054
   40POPC  H12R 5377   4.819   6.581   8.018 -1.2938 -0.3470 -0.1707
   40POPC  H12S 5378   4.914   6.468   7.938  0.8495  1.1560 -0.3689
   40POPC  C213 5379   4.889   6.430   8.162  0.5282  0.0941  0.0428
   40POPC  H13R 5380   4.972   6.497   8.193 -0.6089  1.8542 -0.5813
   40POPC  H13S 5381   4.924   6.329   8.130 -0.1247  0.4529 -1.9551
   40POPC  C214 5382   4.796   6.420   8.291  0.0267  0.5852  0.2228
   40POPC  H14R 5383   4.701   6.370   8.260  0.4668  0.1678 -0.4661
   40POPC  H14S 5384   4.766   6.524   8.316  0.5530  1.2271 -1.6826
   40POPC  C215 5385   4.865   6.332   8.402  0.3535  0.0327  0.3706
   40POPC  H15R 5386   4.974   6.323   8.381  0.2212 -0.5040 -0.1226
   40POPC  H15S 5387   4.818   6.231   8.404 -0.5413  0.4146 -0.5902
   40POPC  C216 5388   4.840   6.393   8.547  0.0294 -0.4841  0.1681
   40POPC  H16R 5389   4.842   6.502   8.528 -1.5595 -0.4516  0.0104
   40POPC  H16S 5390   4.921   6.370   8.620 -0.6652  0.0310  1.1305
   40POPC  C217 5391   4.704   6.360   8.599 -0.0724 -0.2234 -0.5308
   40POPC  H17R 5392   4.683   6.253   8.624  0.6785 -0.4998 -1.0396
   40POPC  H17S 5393   4.631   6.389   8.521 -1.5140 -1.0821  0.4502
   40POPC  C218 5394   4.657   6.454   8.715 -0.0661 -0.0714  0.4731
   40POPC  H18R 5395   4.740   6.472   8.787  1.6738  0.5509 -1.5800
   40POPC  H18S 5396   4.573   6.398   8.762  1.8194 -1.8848  1.8714
   40POPC  H18T 5397   4.625   6.556   8.687  3.0432  1.2332  1.2655
   40POPC   C33 5398   4.189   6.299   7.185  0.0776 -0.4671 -0.5096
   40POPC   H3X 5399   4.263   6.222   7.155  0.0651 -0.3812 -0.7618
   40POPC   H3Y 5400   4.097   6.238   7.199  1.2509 -1.6297  3.9715
   40POPC   C34 5401   4.237   6.345   7.322  0.1274 -0.7014 -0.1940
   40POPC   H4X 5402   4.173   6.435   7.331 -0.8209 -1.3388 -0.4637
   40POPC   H4Y 5403   4.342   6.381   7.315 -0.0482 -0.0808  0.2743
   40POPC   C35 5404   4.226   6.251   7.438  0.3038 -0.1938  0.2524
   40POPC   H5X 5405   4.303   6.171   7.426 -0.4811 -1.0179  0.5557
   40POPC   H5Y 5406   4.124   6.207   7.443  0.4009 -0.5523 -0.5960
   40POPC   C36 5407   4.258   6.309   7.572  0.0911  0.2203 -0.1780
   40POPC   H6X 5408   4.185   6.389   7.598 -1.1827 -1.3576  1.3338
   40POPC   H6Y 5409   4.361   6.349   7.565 -0.0975  0.6420 -0.6493
   40POPC   C37 5410   4.265   6.204   7.688  0.3612 -0.0983  0.1593
   40POPC   H7X 5411   4.345   6.129   7.670 -0.6752 -1.5443  1.2824
   40POPC   H7Y 5412   4.166   6.153   7.685  0.2694  0.0643  0.3736
   40POPC   C38 5413   4.290   6.254   7.823 -0.8072 -0.5446 -0.3190
   40POPC   H8X 5414   4.194   6.293   7.863  0.0468  0.2909  0.9979
   40POPC   H8Y 5415   4.361   6.339   7.809 -0.0421 -1.4455 -2.4202
   40POPC   C39 5416   4.342   6.152   7.921 -0.0668  0.7558 -0.2392
   40POPC   H9X 5417   4.446   6.117   7.901 -0.3257  0.3667 -0.9155
   40POPC   H9Y 5418   4.278   6.062   7.916  2.6503 -1.3323  0.4118
   40POPC  C310 5419   4.341   6.213   8.067  0.1669  0.4026  0.0088
   40POPC  H10X 5420   4.241   6.240   8.107 -0.1883 -0.9178  0.0802
   40POPC  H10Y 5421   4.392   6.311   8.061 -1.6846  1.3329 -2.2086
   40POPC  C311 5422   4.409   6.141   8.186  0.4377 -0.3899  0.1718
   40POPC  H11X 5423   4.404   6.211   8.272 -1.4432 -0.9471  0.5608
   40POPC  H11Y 5424   4.512   6.115   8.154 -0.1037 -2.0430 -0.3441
   40POPC  C312 5425   4.333   6.019   8.224  0.2530  1.5769  0.0010
   40POPC  H12X 5426   4.320   5.949   8.138 -1.1204  1.6820  0.1130
   40POPC  H12Y 5427   4.230   6.051   8.248 -0.8202 -0.6180 -1.2833
   40POPC  C313 5428   4.391   5.945   8.349 -0.3753  0.5867  0.4558
   40POPC  H13X 5429   4.492   5.922   8.309 -1.1630  2.0238 -2.7164
   40POPC  H13Y 5430   4.346   5.849   8.381  0.7254  0.0176  0.3600
   40POPC  C314 5431   4.416   6.025   8.477 -0.0206  0.0312  0.2575
   40POPC  H14X 5432   4.323   6.055   8.530 -0.7574  0.2783 -1.1514
   40POPC  H14Y 5433   4.484   6.110   8.456  0.2832  0.1146  1.4851
   40POPC  C315 5434   4.484   5.920   8.583  0.5245 -0.4747  0.0583
   40POPC  H15X 5435   4.556   5.856   8.527  0.5447 -0.3624 -0.0450
   40POPC  H15Y 5436   4.416   5.852   8.639  1.3956  0.2627  2.1028
   40POPC  C316 5437   4.574   6.010   8.672  0.3047 -0.2441 -0.1395
   40POPC  H16X 5438   4.660   6.049   8.614 -1.9762  3.9428 -1.0862
   40POPC  H16Y 5439   4.602   5.954   8.763 -1.8951 -2.2564 -0.5888
   40POPC  H16Z 5440   4.520   6.101   8.704  0.2490 -0.7522  1.2470
   41CHL1    C3 5441   6.245   2.144  10.095  0.3744 -0.1269 -1.0267
   41CHL1    H3 5442   6.350   2.140  10.059  0.2966 -2.6456 -1.1263
   41CHL1    O3 5443   6.250   2.141  10.238  0.9028  0.0002  0.2903
   41CHL1   H3' 5444   6.235   2.228  10.276  1.6915  0.0697  0.4724
   41CHL1    C4 5445   6.175   2.272  10.047  0.5169 -0.5780 -0.2679
   41CHL1   H4A 5446   6.078   2.286  10.101  0.8138  1.0720 -0.1179
   41CHL1   H4B 5447   6.231   2.361  10.083 -2.9823  2.2533 -1.2254
   41CHL1    C5 5448   6.151   2.279   9.902 -0.3638 -0.9643 -0.9731
   41CHL1    C6 5449   6.203   2.382   9.830 -0.8600  0.3683 -0.4538
   41CHL1    H6 5450   6.251   2.466   9.882 -0.6111 -0.2236  0.2891
   41CHL1    C7 5451   6.199   2.374   9.682 -0.3277 -0.1676 -0.5628
   41CHL1   H7A 5452   6.162   2.473   9.650  0.5695  0.8340  1.3385
   41CHL1   H7B 5453   6.306   2.374   9.649 -0.1028  1.5481  0.0794
   41CHL1    C8 5454   6.123   2.263   9.615  0.2548  0.2608  0.2627
   41CHL1    H8 5455   6.016   2.294   9.621  0.2882  0.6511 -0.9163
   41CHL1   C14 5456   6.157   2.242   9.470 -0.3469  0.0162 -0.3459
   41CHL1   H14 5457   6.262   2.206   9.460 -0.4523 -0.2697 -0.4271
   41CHL1   C15 5458   6.149   2.367   9.380 -1.2938  0.1730 -0.4888
   41CHL1  H15A 5459   6.071   2.435   9.420 -2.3389 -0.9120 -0.6192
   41CHL1  H15B 5460   6.242   2.426   9.389 -1.1199 -0.3113  1.2101
   41CHL1   C16 5461   6.136   2.309   9.236  0.6208 -0.3458  0.7134
   41CHL1  H16A 5462   6.044   2.354   9.192  0.8969 -2.5740 -2.5172
   41CHL1  H16B 5463   6.222   2.334   9.171  0.2842 -2.5914 -0.7112
   41CHL1   C17 5464   6.117   2.159   9.250 -0.0869  0.3382 -0.1920
   41CHL1   H17 5465   6.221   2.120   9.247  0.2645  1.1771  0.5378
   41CHL1   C13 5466   6.073   2.134   9.398 -0.0324  0.0556  0.8709
   41CHL1   C18 5467   5.919   2.166   9.407  0.2353  0.4376  0.0880
   41CHL1  H18A 5468   5.878   2.169   9.511  2.6770 -2.4935  1.2706
   41CHL1  H18B 5469   5.901   2.264   9.358 -0.1036 -0.0933 -0.8916
   41CHL1  H18C 5470   5.866   2.088   9.348  0.1957  2.3530 -2.5970
   41CHL1   C12 5471   6.102   2.007   9.459 -0.1036 -0.2944 -0.5133
   41CHL1  H12A 5472   6.037   1.928   9.415 -0.2205 -0.3782 -0.1897
   41CHL1  H12B 5473   6.204   1.972   9.430 -1.0343 -2.1851 -1.7841
   41CHL1   C11 5474   6.076   2.022   9.611  0.0705  0.1819 -0.0259
   41CHL1  H11A 5475   5.966   2.030   9.625  0.0150 -1.3662  0.5630
   41CHL1  H11B 5476   6.097   1.921   9.650  0.0063 -0.6610 -2.0315
   41CHL1    C9 5477   6.146   2.138   9.689 -0.2275  0.1441  0.9021
   41CHL1    H9 5478   6.254   2.115   9.678  0.4729  2.9648  1.2909
   41CHL1   C10 5479   6.114   2.155   9.831  0.4849  0.0465 -0.4600
   41CHL1   C19 5480   5.964   2.155   9.855 -0.4132  0.4276  0.4245
   41CHL1  H19A 5481   5.916   2.248   9.820  0.2239 -0.0628 -1.9629
   41CHL1  H19B 5482   5.913   2.064   9.816 -0.1207 -0.4781  2.0570
   41CHL1  H19C 5483   5.942   2.156   9.963  1.7487  0.1933  0.9151
   41CHL1    C1 5484   6.173   2.025   9.892 -0.0065  0.2709 -0.4750
   41CHL1   H1A 5485   6.109   1.941   9.858 -0.6800  0.5720  0.0413
   41CHL1   H1B 5486   6.278   1.992   9.875  0.7643  0.7041  2.6999
   41CHL1    C2 5487   6.176   2.016  10.045  0.5185 -0.5100  0.4780
   41CHL1   H2A 5488   6.249   1.938  10.075 -0.1733 -0.3557  2.7387
   41CHL1   H2B 5489   6.077   1.999  10.091  1.2783 -2.3005  1.5438
   41CHL1   C20 5490   6.040   2.085   9.131 -0.5518  0.7416  0.1084
   41CHL1   H20 5491   5.930   2.094   9.141 -0.5020  1.6883 -0.1418
   41CHL1   C21 5492   6.083   1.934   9.136 -0.5437 -0.5448 -1.0476
   41CHL1  H21A 5493   6.046   1.871   9.052 -1.0922 -0.9215 -0.5333
   41CHL1  H21B 5494   6.033   1.891   9.226  2.5366  0.9636  1.5939
   41CHL1  H21C 5495   6.192   1.915   9.144 -0.2641  0.2664 -2.5243
   41CHL1   C22 5496   6.086   2.135   9.002  0.2461 -0.0669  0.2009
   41CHL1  H22A 5497   6.055   2.241   8.988 -0.1639 -0.2208 -0.0917
   41CHL1  H22B 5498   6.197   2.137   9.008  0.1587 -0.5673  3.2047
   41CHL1   C23 5499   6.052   2.072   8.871 -1.0931 -0.1404  0.2562
   41CHL1  H23A 5500   6.097   2.125   8.784  0.9667  1.3200  2.1146
   41CHL1  H23B 5501   6.104   1.974   8.877  1.6101  1.1812 -0.1524
   41CHL1   C24 5502   5.905   2.030   8.863  0.1116 -0.7088  0.1282
   41CHL1  H24A 5503   5.885   1.982   8.765  0.2113  1.4662 -1.0166
   41CHL1  H24B 5504   5.876   1.957   8.942 -0.5366  0.3278  0.8844
   41CHL1   C25 5505   5.804   2.147   8.871 -0.7311 -0.3171  0.2041
   41CHL1   H25 5506   5.830   2.187   8.971 -1.9961  1.1581 -0.0164
   41CHL1   C26 5507   5.839   2.262   8.770  0.0567 -0.2744 -0.3296
   41CHL1  H26A 5508   5.922   2.323   8.811  0.2791 -2.7721  3.4186
   41CHL1  H26B 5509   5.868   2.219   8.671  2.1580  0.7478 -0.2150
   41CHL1  H26C 5510   5.751   2.326   8.749 -2.1028 -2.7563  0.5750
   41CHL1   C27 5511   5.654   2.105   8.868 -0.1603 -0.3913  0.1900
   41CHL1  H27A 5512   5.636   2.011   8.811 -1.2635 -0.5299  0.7342
   41CHL1  H27B 5513   5.621   2.073   8.969 -0.8062  0.0293  0.1202
   41CHL1  H27C 5514   5.585   2.185   8.833 -0.0493  0.5505  2.0258
   42CHL1    C3 5515   2.682   3.780   9.844  0.0598  0.0784 -0.5468
   42CHL1    H3 5516   2.728   3.877   9.815 -0.0056  0.6863  1.2552
   42CHL1    O3 5517   2.615   3.808   9.964  0.4625 -0.1851  0.0939
   42CHL1   H3' 5518   2.589   3.723  10.000 -0.1880  0.2495  0.7092
   42CHL1    C4 5519   2.575   3.745   9.738 -0.1860  0.3186 -0.1493
   42CHL1   H4A 5520   2.509   3.668   9.784 -0.4501  0.7112  0.1406
   42CHL1   H4B 5521   2.505   3.832   9.734 -0.2158  0.3068  0.0958
   42CHL1    C5 5522   2.635   3.700   9.606 -0.3810 -0.4599 -0.2683
   42CHL1    C6 5523   2.610   3.752   9.491 -0.0388 -0.0801  0.1377
   42CHL1    H6 5524   2.559   3.850   9.490 -1.8335 -0.9459  1.5059
   42CHL1    C7 5525   2.664   3.706   9.353  0.4730  0.2942 -0.7091
   42CHL1   H7A 5526   2.585   3.710   9.276 -1.4465 -0.9689  1.0550
   42CHL1   H7B 5527   2.729   3.788   9.318  0.5627  0.6085  0.1556
   42CHL1    C8 5528   2.716   3.564   9.365 -0.5459  0.2657 -0.0383
   42CHL1    H8 5529   2.623   3.512   9.395  0.2059 -0.9631  0.2610
   42CHL1   C14 5530   2.792   3.513   9.239 -0.3139 -0.7095 -0.0426
   42CHL1   H14 5531   2.878   3.582   9.229 -0.7438  0.2504  2.2526
   42CHL1   C15 5532   2.718   3.521   9.106 -0.3944  0.3006  0.2627
   42CHL1  H15A 5533   2.608   3.509   9.117 -0.4212  1.4380  1.5559
   42CHL1  H15B 5534   2.732   3.618   9.053 -0.8940 -0.4512 -1.3024
   42CHL1   C16 5535   2.781   3.411   9.017 -0.3398 -0.4578 -0.3988
   42CHL1  H16A 5536   2.693   3.350   8.990 -2.4854  1.7181  1.2188
   42CHL1  H16B 5537   2.830   3.460   8.930  0.6791 -1.8112 -0.6188
   42CHL1   C17 5538   2.892   3.347   9.105  0.0484  0.5576  1.0060
   42CHL1   H17 5539   2.982   3.409   9.087 -1.1230  2.2688  0.8298
   42CHL1   C13 5540   2.844   3.371   9.247 -0.5270 -0.3975 -0.5766
   42CHL1   C18 5541   2.720   3.286   9.281 -0.3005  0.5983 -0.1213
   42CHL1  H18A 5542   2.667   3.302   9.377 -1.4899  0.6459 -0.7605
   42CHL1  H18B 5543   2.640   3.284   9.204  0.0317 -2.0306 -0.4900
   42CHL1  H18C 5544   2.751   3.180   9.281  1.1333  0.9980 -0.0616
   42CHL1   C12 5545   2.949   3.371   9.357 -0.2242 -0.1960 -0.1341
   42CHL1  H12A 5546   2.990   3.271   9.381 -0.0870 -0.3423 -0.9388
   42CHL1  H12B 5547   3.029   3.434   9.311 -3.4263  1.9943 -3.2765
   42CHL1   C11 5548   2.896   3.415   9.490  0.6614 -0.7084  0.4051
   42CHL1  H11A 5549   2.822   3.339   9.521 -0.5342 -0.7223 -2.2553
   42CHL1  H11B 5550   2.974   3.421   9.570  0.7237 -1.6213  0.4267
   42CHL1    C9 5551   2.816   3.553   9.484 -0.3895  0.4108  0.3782
   42CHL1    H9 5552   2.891   3.635   9.475  1.4294 -0.9956  1.7984
   42CHL1   C10 5553   2.745   3.582   9.622 -0.7307 -0.8313  0.4383
   42CHL1   C19 5554   2.671   3.460   9.670 -0.4085 -0.0096 -0.2324
   42CHL1  H19A 5555   2.748   3.393   9.713 -0.3975  1.0940  1.5730
   42CHL1  H19B 5556   2.599   3.475   9.753 -0.1887 -1.4994  0.2657
   42CHL1  H19C 5557   2.617   3.409   9.588 -2.9946  0.6362  0.9726
   42CHL1    C1 5558   2.848   3.622   9.724 -0.7920 -0.1251  0.3521
   42CHL1   H1A 5559   2.926   3.550   9.754 -1.7494  0.0892  3.8352
   42CHL1   H1B 5560   2.896   3.708   9.674 -0.3756 -0.8854 -0.5878
   42CHL1    C2 5561   2.787   3.668   9.861  0.0704 -0.4876  0.0438
   42CHL1   H2A 5562   2.882   3.686   9.916  1.9019 -1.6668 -2.5514
   42CHL1   H2B 5563   2.744   3.583   9.918 -1.8859  0.2752 -0.1929
   42CHL1   C20 5564   2.909   3.200   9.063  0.5044 -0.1618  0.8259
   42CHL1   H20 5565   2.811   3.150   9.074 -0.0844  0.4217 -1.3603
   42CHL1   C21 5566   3.019   3.127   9.142 -0.2622  0.2706  0.8628
   42CHL1  H21A 5567   3.108   3.193   9.150  0.1810 -0.5012  3.2799
   42CHL1  H21B 5568   3.042   3.025   9.103  0.4456  0.2258  1.3804
   42CHL1  H21C 5569   2.996   3.108   9.249 -2.0342  1.2112  0.6794
   42CHL1   C22 5570   2.944   3.185   8.913 -0.5051  0.0312  0.0282
   42CHL1  H22A 5571   2.906   3.274   8.858  0.1246  1.0940  1.2485
   42CHL1  H22B 5572   3.055   3.196   8.915 -0.3845 -0.9356 -0.5643
   42CHL1   C23 5573   2.902   3.057   8.838  0.3378 -0.4726 -0.6081
   42CHL1  H23A 5574   2.920   2.971   8.907 -3.2366 -0.6388  0.3141
   42CHL1  H23B 5575   2.791   3.059   8.832  0.3538  1.8494 -0.9524
   42CHL1   C24 5576   2.969   3.027   8.706  0.4369 -0.8503  1.1447
   42CHL1  H24A 5577   3.078   3.019   8.729  1.5813  1.6034 -2.4627
   42CHL1  H24B 5578   2.929   2.936   8.657  1.0420 -0.0219 -0.9963
   42CHL1   C25 5579   2.977   3.136   8.586  1.2448  0.0862  0.2803
   42CHL1   H25 5580   3.028   3.224   8.631 -0.2730  0.6165  1.0435
   42CHL1   C26 5581   3.066   3.086   8.466  0.8143 -0.4915 -0.3346
   42CHL1  H26A 5582   3.062   3.162   8.385 -1.2810  0.9125  0.9952
   42CHL1  H26B 5583   3.165   3.053   8.505  1.7930  1.1006 -1.3625
   42CHL1  H26C 5584   3.022   2.998   8.414  0.6853  0.4830 -1.9410
   42CHL1   C27 5585   2.836   3.177   8.529 -0.6360  0.1454 -0.1577
   42CHL1  H27A 5586   2.778   3.090   8.493  1.1214 -1.7797  1.4150
   42CHL1  H27B 5587   2.777   3.211   8.617 -0.6561 -1.4909  0.4973
   42CHL1  H27C 5588   2.852   3.250   8.447  1.9968  0.3030  0.4093
   43CHL1    C3 5589   0.012   3.066   9.942 -0.0803  0.2826  0.2303
   43CHL1    H3 5590  -0.053   3.153   9.919 -1.3031 -0.7295 -0.2504
   43CHL1    O3 5591   0.020   3.046  10.084  0.2815  0.7641 -0.5805
   43CHL1   H3' 5592  -0.072   3.056  10.110  0.1945 -0.2021 -0.4743
   43CHL1    C4 5593  -0.064   2.952   9.880  0.5625 -0.8409  0.2679
   43CHL1   H4A 5594  -0.014   2.855   9.900 -0.7426 -1.4320  0.7807
   43CHL1   H4B 5595  -0.156   2.939   9.941  0.0507 -0.3830 -0.3934
   43CHL1    C5 5596  -0.089   2.977   9.729 -0.5544 -0.4878  0.2105
   43CHL1    C6 5597  -0.211   2.987   9.688  0.7114 -0.0683 -0.2965
   43CHL1    H6 5598  -0.295   2.976   9.759 -0.4763 -0.1310 -1.6743
   43CHL1    C7 5599  -0.247   3.016   9.548  0.6228 -0.1615 -0.5178
   43CHL1   H7A 5600  -0.330   2.948   9.519  0.5911 -0.0134 -0.7840
   43CHL1   H7B 5601  -0.273   3.122   9.525  0.9890 -0.4714 -2.6375
   43CHL1    C8 5602  -0.125   2.983   9.458 -0.3161  0.1851  0.3250
   43CHL1    H8 5603  -0.118   2.872   9.454 -0.1071  0.1535  1.2143
   43CHL1   C14 5604  -0.155   3.043   9.314 -0.7955 -0.2046 -0.3804
   43CHL1   H14 5605  -0.173   3.150   9.340  1.2097  0.6013 -2.1067
   43CHL1   C15 5606  -0.280   3.003   9.249 -0.3930  0.5898 -0.1641
   43CHL1  H15A 5607  -0.281   2.893   9.261 -1.0194  0.7630  1.5256
   43CHL1  H15B 5608  -0.369   3.052   9.292 -1.3372 -1.3341  0.1612
   43CHL1   C16 5609  -0.265   3.035   9.099 -0.5394 -0.1030 -0.0152
   43CHL1  H16A 5610  -0.297   2.948   9.038  0.6530 -0.2189 -0.4899
   43CHL1  H16B 5611  -0.323   3.128   9.078 -0.8147 -0.0785  0.8021
   43CHL1   C17 5612  -0.114   3.063   9.074 -0.0328 -0.0218  0.3146
   43CHL1   H17 5613  -0.095   3.172   9.063  0.6311  0.3222  3.8707
   43CHL1   C13 5614  -0.042   3.034   9.214  0.2212 -0.1060 -0.9333
   43CHL1   C18 5615  -0.001   2.888   9.208 -0.2483  0.0812  0.0936
   43CHL1  H18A 5616  -0.074   2.824   9.155  0.9502 -0.5175 -0.8967
   43CHL1  H18B 5617   0.093   2.897   9.148 -0.0234  1.9377  0.6607
   43CHL1  H18C 5618   0.021   2.839   9.305  0.3891 -0.7314 -0.4435
   43CHL1   C12 5619   0.073   3.128   9.261 -0.9060  0.0081 -0.1389
   43CHL1  H12A 5620   0.163   3.121   9.197 -0.3189 -1.1834  0.7740
   43CHL1  H12B 5621   0.054   3.238   9.262  0.9157  0.3723 -1.7021
   43CHL1   C11 5622   0.117   3.077   9.402  0.1194  0.0900  0.1874
   43CHL1  H11A 5623   0.170   2.980   9.386 -0.9468 -0.6423  0.9707
   43CHL1  H11B 5624   0.194   3.144   9.445  1.9015 -0.2101 -2.3098
   43CHL1    C9 5625   0.002   3.054   9.507  0.5683  0.1999 -0.0511
   43CHL1    H9 5626  -0.034   3.157   9.530  1.5739  0.3369  0.9595
   43CHL1   C10 5627   0.044   3.000   9.648  0.1460 -0.1848 -0.0077
   43CHL1   C19 5628   0.113   2.870   9.635  0.2439 -0.3709  0.7678
   43CHL1  H19A 5629   0.125   2.821   9.734  0.0741 -0.2285  0.8619
   43CHL1  H19B 5630   0.069   2.801   9.560  1.7242 -0.0363 -0.4544
   43CHL1  H19C 5631   0.211   2.881   9.586 -1.1010  1.4427 -1.7161
   43CHL1    C1 5632   0.122   3.112   9.721 -0.1976  0.3770  0.0761
   43CHL1   H1A 5633   0.217   3.122   9.664  0.8763 -0.4672  1.6316
   43CHL1   H1B 5634   0.073   3.211   9.728 -0.8231 -0.0193  1.4562
   43CHL1    C2 5635   0.158   3.082   9.872  0.0559 -0.0798 -0.8991
   43CHL1   H2A 5636   0.207   3.167   9.925 -0.8079 -0.0761 -0.0865
   43CHL1   H2B 5637   0.204   2.981   9.872  2.0071  0.6908  1.5174
   43CHL1   C20 5638  -0.076   3.001   8.936  0.7663  0.9985  0.1835
   43CHL1   H20 5639  -0.062   2.891   8.944  0.5811  0.7285 -2.3241
   43CHL1   C21 5640   0.067   3.044   8.895  1.0214 -0.3356 -0.5847
   43CHL1  H21A 5641   0.052   3.148   8.861 -3.3953 -0.5775  0.0657
   43CHL1  H21B 5642   0.106   2.991   8.805  0.9579  0.5243 -1.1252
   43CHL1  H21C 5643   0.138   3.041   8.981  0.0920  1.3335  0.2959
   43CHL1   C22 5644  -0.183   3.031   8.818  0.3194  0.0610 -0.0390
   43CHL1  H22A 5645  -0.283   2.990   8.842  0.8060 -0.1228  1.8966
   43CHL1  H22B 5646  -0.200   3.140   8.807 -1.1734 -0.0119  1.2138
   43CHL1   C23 5647  -0.135   2.962   8.683 -0.0803 -0.0695 -0.1719
   43CHL1  H23A 5648  -0.055   3.003   8.617 -0.6763 -3.3865 -3.2638
   43CHL1  H23B 5649  -0.109   2.865   8.731  0.4905  1.0871  1.9947
   43CHL1   C24 5650  -0.251   2.948   8.579  0.3475 -0.0144  0.2563
   43CHL1  H24A 5651  -0.341   2.912   8.633 -1.3419  1.3256 -1.5686
   43CHL1  H24B 5652  -0.267   3.051   8.543 -0.8668  0.4099  1.8908
   43CHL1   C25 5653  -0.213   2.854   8.468 -0.3579  0.1287  0.1357
   43CHL1   H25 5654  -0.111   2.882   8.432 -0.6088  1.7042  0.5673
   43CHL1   C26 5655  -0.213   2.711   8.511 -0.3622 -0.4119 -0.6751
   43CHL1  H26A 5656  -0.221   2.643   8.423  0.2137  0.9451 -1.8087
   43CHL1  H26B 5657  -0.122   2.683   8.569  0.5674  0.6854 -1.5551
   43CHL1  H26C 5658  -0.300   2.692   8.577  1.9072 -1.8630  2.1376
   43CHL1   C27 5659  -0.314   2.877   8.356 -0.1792 -0.4357  0.2766
   43CHL1  H27A 5660  -0.309   2.978   8.311 -1.8875 -0.7082 -0.5959
   43CHL1  H27B 5661  -0.297   2.809   8.270  2.7296  1.0856 -0.4834
   43CHL1  H27C 5662  -0.417   2.859   8.392 -0.0829  0.1010  0.8387
   44CHL1    C3 5663   5.370   3.216  10.043  0.1674 -0.4012 -0.3157
   44CHL1    H3 5664   5.440   3.278   9.984 -1.4620  1.9126  0.0619
   44CHL1    O3 5665   5.357   3.256  10.176  0.8304 -0.1257  0.2495
   44CHL1   H3' 5666   5.286   3.199  10.207 -1.4020  2.1563 -0.2624
   44CHL1    C4 5667   5.242   3.235   9.967  0.9551 -0.0759 -0.0059
   44CHL1   H4A 5668   5.153   3.190  10.016 -0.2979  1.8912 -0.3339
   44CHL1   H4B 5669   5.214   3.343   9.964  0.1111 -0.2902  0.0186
   44CHL1    C5 5670   5.241   3.200   9.818  0.3368 -0.7304 -0.1452
   44CHL1    C6 5671   5.224   3.283   9.716  0.3988 -0.6089 -0.7457
   44CHL1    H6 5672   5.197   3.387   9.738  0.0349 -0.6904 -0.8035
   44CHL1    C7 5673   5.228   3.238   9.570 -0.0089 -0.3142 -0.0771
   44CHL1   H7A 5674   5.157   3.283   9.498 -0.3007 -0.9975 -0.2294
   44CHL1   H7B 5675   5.330   3.265   9.536  0.8025 -1.7912  1.0666
   44CHL1    C8 5676   5.235   3.084   9.548 -0.7188  0.1904 -0.2644
   44CHL1    H8 5677   5.133   3.045   9.566 -0.5477 -0.3583 -0.4874
   44CHL1   C14 5678   5.274   3.047   9.405 -0.0119 -0.2471 -0.1470
   44CHL1   H14 5679   5.383   3.063   9.390 -0.3050 -0.1918 -2.6624
   44CHL1   C15 5680   5.205   3.125   9.295  0.2789  0.7273 -0.2016
   44CHL1  H15A 5681   5.097   3.117   9.320  0.0974 -0.4208 -1.2681
   44CHL1  H15B 5682   5.250   3.223   9.270  1.9944 -0.0563 -0.3230
   44CHL1   C16 5683   5.232   3.036   9.168 -0.1203 -0.2046 -0.9696
   44CHL1  H16A 5684   5.135   3.023   9.115 -0.3136 -0.4484 -0.5602
   44CHL1  H16B 5685   5.289   3.095   9.093 -0.1768  2.2254  0.7727
   44CHL1   C17 5686   5.309   2.910   9.215  0.1470 -1.0142  0.2400
   44CHL1   H17 5687   5.415   2.943   9.209 -0.5144  1.0525 -1.2222
   44CHL1   C13 5688   5.276   2.896   9.369  0.3533  0.0416 -0.1810
   44CHL1   C18 5689   5.136   2.849   9.385  1.0001  0.7578 -0.4179
   44CHL1  H18A 5690   5.094   2.869   9.486 -2.2300  0.0847 -1.5273
   44CHL1  H18B 5691   5.065   2.898   9.316 -0.3820 -0.9029 -0.2511
   44CHL1  H18C 5692   5.139   2.739   9.372 -0.8005  0.5518  0.5754
   44CHL1   C12 5693   5.379   2.839   9.470  0.4516 -0.0777 -0.2021
   44CHL1  H12A 5694   5.370   2.728   9.464  1.4079 -0.1108 -1.4920
   44CHL1  H12B 5695   5.486   2.853   9.445  1.3670 -0.9899  2.8352
   44CHL1   C11 5696   5.349   2.875   9.617  0.2313 -0.1073 -0.2639
   44CHL1  H11A 5697   5.252   2.822   9.632 -0.7495  0.8406 -2.6155
   44CHL1  H11B 5698   5.424   2.830   9.685  0.3126  1.1940  0.5262
   44CHL1    C9 5699   5.331   3.027   9.647  0.6313  0.2843  0.6490
   44CHL1    H9 5700   5.431   3.075   9.637 -0.1043  1.7995  0.3511
   44CHL1   C10 5701   5.288   3.052   9.800 -0.7750  0.2450  0.3533
   44CHL1   C19 5702   5.175   2.962   9.839  0.1786 -0.2627  0.5960
   44CHL1  H19A 5703   5.118   2.960   9.743  2.5261 -0.8948 -0.8584
   44CHL1  H19B 5704   5.223   2.865   9.862  2.5465  0.2802 -1.5947
   44CHL1  H19C 5705   5.119   2.994   9.929 -0.6925  3.1238 -0.9917
   44CHL1    C1 5706   5.412   3.031   9.887 -0.5589  0.5086 -0.5536
   44CHL1   H1A 5707   5.445   2.925   9.893 -1.8426  0.0827 -0.6559
   44CHL1   H1B 5708   5.493   3.078   9.827  0.7237 -2.0444 -0.9367
   44CHL1    C2 5709   5.408   3.069  10.035  0.2260  0.0810 -0.3796
   44CHL1   H2A 5710   5.509   3.054  10.079  0.2740  0.9280 -0.1809
   44CHL1   H2B 5711   5.329   3.010  10.085  1.1499  0.0283  1.0625
   44CHL1   C20 5712   5.295   2.786   9.124  0.1178  0.2818  0.1178
   44CHL1   H20 5713   5.194   2.741   9.120  1.6244 -3.3412 -0.5121
   44CHL1   C21 5714   5.383   2.674   9.190 -0.4129 -0.3793 -0.2071
   44CHL1  H21A 5715   5.323   2.614   9.262 -0.0542 -0.3216  0.1402
   44CHL1  H21B 5716   5.480   2.711   9.228 -0.5407  1.9543 -1.9089
   44CHL1  H21C 5717   5.412   2.602   9.110 -0.2556 -1.9361  1.1967
   44CHL1   C22 5718   5.333   2.813   8.976  0.0399  0.4320  0.5001
   44CHL1  H22A 5719   5.290   2.904   8.927  3.0454  2.6524  1.7313
   44CHL1  H22B 5720   5.442   2.828   8.986  0.2142  0.1843 -0.8013
   44CHL1   C23 5721   5.314   2.692   8.885  0.0945  0.5403 -0.2603
   44CHL1  H23A 5722   5.370   2.603   8.922  1.5055  1.0459 -1.1102
   44CHL1  H23B 5723   5.208   2.663   8.899  0.2719  0.0964  0.2145
   44CHL1   C24 5724   5.331   2.719   8.742  0.4243 -0.1750  0.6506
   44CHL1  H24A 5725   5.251   2.791   8.713  2.3202  1.5034 -0.6122
   44CHL1  H24B 5726   5.430   2.760   8.715 -0.3775  0.5506 -1.3521
   44CHL1   C25 5727   5.309   2.583   8.668 -0.1418  0.6642  0.4977
   44CHL1   H25 5728   5.236   2.524   8.728 -1.9075  0.5012 -1.6753
   44CHL1   C26 5729   5.233   2.600   8.526 -0.0756 -0.6913  0.3811
   44CHL1  H26A 5730   5.137   2.655   8.540 -0.2854 -0.7642 -0.6872
   44CHL1  H26B 5731   5.297   2.662   8.461 -0.9060  1.0312  1.1195
   44CHL1  H26C 5732   5.215   2.507   8.469  0.0865 -0.7290  0.3919
   44CHL1   C27 5733   5.435   2.504   8.646 -0.4500  0.8618 -0.2050
   44CHL1  H27A 5734   5.511   2.550   8.579  1.9105 -2.2500  0.0738
   44CHL1  H27B 5735   5.487   2.475   8.740 -1.8070  0.0697  0.3372
   44CHL1  H27C 5736   5.404   2.408   8.599 -2.2995  0.7855  1.0552
   45CHL1    C3 5737   1.464   1.414  10.305 -0.1409  0.2928 -0.5931
   45CHL1    H3 5738   1.475   1.324  10.370 -0.2791  0.8580  0.2302
   45CHL1    O3 5739   1.481   1.535  10.381  0.0703  0.0126 -0.0835
   45CHL1   H3' 5740   1.573   1.528  10.410  0.3630  1.7666 -0.4613
   45CHL1    C4 5741   1.580   1.421  10.200 -0.1625  0.6106  0.2822
   45CHL1   H4A 5742   1.586   1.525  10.162 -2.1549  0.2248 -1.2669
   45CHL1   H4B 5743   1.673   1.408  10.260 -0.3089  0.9153  0.5783
   45CHL1    C5 5744   1.571   1.310  10.098 -0.0370 -0.0484 -0.1045
   45CHL1    C6 5745   1.671   1.217  10.084 -0.5647  0.3672 -0.6375
   45CHL1    H6 5746   1.752   1.228  10.159 -3.1476  2.2789  2.1039
   45CHL1    C7 5747   1.677   1.111   9.979 -0.8905 -0.2263  0.3366
   45CHL1   H7A 5748   1.772   1.113   9.923  0.1873  0.3354  2.0942
   45CHL1   H7B 5749   1.678   1.007  10.019 -0.3033 -0.9151 -1.3838
   45CHL1    C8 5750   1.554   1.115   9.869 -0.2409  0.0759 -0.2568
   45CHL1    H8 5751   1.534   1.006   9.853  0.5058 -0.4375  2.0543
   45CHL1   C14 5752   1.595   1.182   9.733  0.5701  0.4551 -0.1730
   45CHL1   H14 5753   1.646   1.277   9.761  0.3465  0.2746  0.8842
   45CHL1   C15 5754   1.701   1.086   9.664  0.1218 -0.3302 -0.8394
   45CHL1  H15A 5755   1.789   1.130   9.613 -0.0095 -1.3558 -1.9726
   45CHL1  H15B 5756   1.727   0.999   9.728 -1.4410 -1.4305 -1.6231
   45CHL1   C16 5757   1.623   1.022   9.551  0.2639  0.5073  0.1848
   45CHL1  H16A 5758   1.665   1.049   9.451 -0.2623 -0.3277 -0.2721
   45CHL1  H16B 5759   1.641   0.913   9.545 -1.3220  0.1945  0.6772
   45CHL1   C17 5760   1.476   1.062   9.573 -0.1701 -0.5230  0.4833
   45CHL1   H17 5761   1.437   0.990   9.648 -2.9575  0.3809  0.0311
   45CHL1   C13 5762   1.477   1.199   9.637 -0.1978  0.4370 -0.5770
   45CHL1   C18 5763   1.507   1.318   9.539  0.0166  0.2044  0.1453
   45CHL1  H18A 5764   1.413   1.345   9.485  1.2442  3.4976 -0.5960
   45CHL1  H18B 5765   1.531   1.410   9.596  0.7051  0.1364 -0.0306
   45CHL1  H18C 5766   1.592   1.303   9.468  0.8534  2.2352  0.6522
   45CHL1   C12 5767   1.337   1.240   9.701  0.0002 -0.0845  0.2716
   45CHL1  H12A 5768   1.333   1.349   9.724 -2.2193  0.6049 -2.7573
   45CHL1  H12B 5769   1.263   1.219   9.621  1.7718  0.7991 -1.6750
   45CHL1   C11 5770   1.307   1.170   9.837 -0.6027  0.3359  0.3849
   45CHL1  H11A 5771   1.211   1.209   9.877 -1.5759 -2.3531  0.8737
   45CHL1  H11B 5772   1.297   1.065   9.803  1.8122  0.9722 -2.8445
   45CHL1    C9 5773   1.426   1.177   9.932 -0.1909  0.2039 -0.1544
   45CHL1    H9 5774   1.402   1.098  10.007 -0.9255 -0.1903 -0.7904
   45CHL1   C10 5775   1.443   1.310  10.014 -0.0707  0.2002  0.1961
   45CHL1   C19 5776   1.429   1.438   9.930 -0.5047  1.1280  1.0500
   45CHL1  H19A 5777   1.321   1.438   9.904 -0.6211 -2.9498  0.8080
   45CHL1  H19B 5778   1.456   1.533   9.980  2.2085  1.2205 -0.4293
   45CHL1  H19C 5779   1.493   1.441   9.840 -0.8698  0.9594  0.7789
   45CHL1    C1 5780   1.331   1.306  10.120  0.3648 -0.4001 -0.7319
   45CHL1   H1A 5781   1.238   1.324  10.063 -0.4681 -1.2286  0.3124
   45CHL1   H1B 5782   1.332   1.211  10.179  2.9120 -0.5762 -0.9332
   45CHL1    C2 5783   1.336   1.414  10.226  0.7172  0.0500 -0.3505
   45CHL1   H2A 5784   1.242   1.405  10.285 -0.2251  2.0213 -1.4267
   45CHL1   H2B 5785   1.332   1.513  10.175  1.3577  0.3828  0.2419
   45CHL1   C20 5786   1.382   1.052   9.456  0.7043  0.3293  0.2499
   45CHL1   H20 5787   1.340   1.152   9.430  1.1946  0.7068  0.8765
   45CHL1   C21 5788   1.265   0.955   9.494 -0.2547  0.1481 -0.6041
   45CHL1  H21A 5789   1.297   0.860   9.541 -0.7711 -0.0033 -0.5579
   45CHL1  H21B 5790   1.198   0.933   9.408  1.6109 -0.7084 -1.9251
   45CHL1  H21C 5791   1.205   1.001   9.575  3.6243  0.3995  2.4104
   45CHL1   C22 5792   1.435   1.013   9.315 -0.6080 -0.1229  0.2116
   45CHL1  H22A 5793   1.504   1.093   9.282  0.6347 -1.6651 -1.1755
   45CHL1  H22B 5794   1.499   0.923   9.332 -1.6813 -0.8046  0.7420
   45CHL1   C23 5795   1.345   0.980   9.194 -0.8669  0.3766  0.4944
   45CHL1  H23A 5796   1.287   0.886   9.208 -2.5225  0.8418 -2.4184
   45CHL1  H23B 5797   1.289   1.076   9.187  0.8399  1.3476 -0.2448
   45CHL1   C24 5798   1.438   0.950   9.074  0.1828  0.6874  0.5927
   45CHL1  H24A 5799   1.501   1.041   9.061 -0.6735  1.9217  3.9583
   45CHL1  H24B 5800   1.513   0.878   9.112  0.4085  0.1872 -0.7489
   45CHL1   C25 5801   1.375   0.893   8.943  0.3624  0.1707  0.3331
   45CHL1   H25 5802   1.463   0.856   8.887  0.6687  0.9096  0.3073
   45CHL1   C26 5803   1.270   0.776   8.961 -0.0501  0.5801  0.4658
   45CHL1  H26A 5804   1.216   0.751   8.867  1.2643  1.7146 -0.6346
   45CHL1  H26B 5805   1.312   0.680   8.998 -1.2945 -0.8486 -1.6360
   45CHL1  H26C 5806   1.199   0.813   9.038 -0.3707  0.9468  0.0039
   45CHL1   C27 5807   1.309   1.003   8.855 -0.5087  1.0628  0.8931
   45CHL1  H27A 5808   1.388   1.078   8.830  1.0941 -1.5034 -2.5930
   45CHL1  H27B 5809   1.272   0.964   8.758  2.0494  0.3151  0.1456
   45CHL1  H27C 5810   1.224   1.058   8.901  0.2328  2.5646  0.5327
   46CHL1    C3 5811   4.418   0.359  10.001 -0.6293  0.7108 -0.5498
   46CHL1    H3 5812   4.314   0.371   9.962 -1.4625 -3.3214 -0.0162
   46CHL1    O3 5813   4.449   0.395  10.132  0.2669  0.4452 -0.4022
   46CHL1   H3' 5814   4.430   0.489  10.144 -0.4123  0.3624 -0.8056
   46CHL1    C4 5815   4.426   0.209   9.991 -0.1789  0.2988  0.2704
   46CHL1   H4A 5816   4.524   0.168  10.025  0.3392  1.8013  0.6263
   46CHL1   H4B 5817   4.353   0.154  10.055 -0.0011  0.0148  0.2323
   46CHL1    C5 5818   4.411   0.150   9.846  0.3585  0.6808 -0.4068
   46CHL1    C6 5819   4.331   0.052   9.813 -0.5577 -0.5311  0.5635
   46CHL1    H6 5820   4.267   0.009   9.891  1.2163 -3.7601  0.3986
   46CHL1    C7 5821   4.331  -0.016   9.678 -1.2928  0.0724 -0.6539
   46CHL1   H7A 5822   4.326  -0.125   9.697 -0.8415  0.5187  2.7353
   46CHL1   H7B 5823   4.238   0.010   9.625 -1.7131 -0.4676 -0.1953
   46CHL1    C8 5824   4.451   0.016   9.579  0.5769 -0.3659  0.2134
   46CHL1    H8 5825   4.542  -0.036   9.615 -0.1413 -0.6817  1.6719
   46CHL1   C14 5826   4.420  -0.018   9.433 -0.2364 -0.1209 -0.3424
   46CHL1   H14 5827   4.335   0.049   9.406 -1.6291 -1.5854  0.2797
   46CHL1   C15 5828   4.371  -0.162   9.401 -0.1311  0.3716  0.3555
   46CHL1  H15A 5829   4.443  -0.236   9.441 -0.6538 -0.3054  0.0521
   46CHL1  H15B 5830   4.270  -0.175   9.445 -0.8613 -0.4447 -1.4867
   46CHL1   C16 5831   4.381  -0.170   9.247 -0.2881 -0.2074  0.6930
   46CHL1  H16A 5832   4.424  -0.265   9.209  2.0987  0.8174  0.6423
   46CHL1  H16B 5833   4.284  -0.139   9.203 -0.1203 -0.5293  0.0990
   46CHL1   C17 5834   4.464  -0.053   9.199 -0.1696 -0.4873  0.4386
   46CHL1   H17 5835   4.400   0.031   9.164  0.3203 -0.2939 -0.0112
   46CHL1   C13 5836   4.526   0.006   9.331  0.1126 -0.3400 -0.0352
   46CHL1   C18 5837   4.652  -0.077   9.372 -0.2535 -0.0980 -0.0582
   46CHL1  H18A 5838   4.638  -0.186   9.356  1.2965 -0.3961  0.4852
   46CHL1  H18B 5839   4.734  -0.041   9.306  0.4092 -0.3226  0.6345
   46CHL1  H18C 5840   4.686  -0.062   9.477 -1.4124 -3.5212  0.9241
   46CHL1   C12 5841   4.551   0.160   9.335 -0.7117  0.0147  0.7547
   46CHL1  H12A 5842   4.650   0.190   9.294 -0.6971 -0.6036  0.3279
   46CHL1  H12B 5843   4.468   0.222   9.294 -1.3652  0.9094  3.2490
   46CHL1   C11 5844   4.566   0.212   9.482  0.2294 -0.3713  0.5879
   46CHL1  H11A 5845   4.673   0.199   9.507  0.3923  0.1495  0.1929
   46CHL1  H11B 5846   4.546   0.321   9.469 -0.2636 -0.6898 -1.8156
   46CHL1    C9 5847   4.474   0.164   9.596 -0.4991 -0.8584 -0.0142
   46CHL1    H9 5848   4.378   0.216   9.572 -1.6493 -1.3751  2.9727
   46CHL1   C10 5849   4.504   0.216   9.737 -0.3257  0.4119  0.2236
   46CHL1   C19 5850   4.649   0.183   9.778  0.2895  0.5433 -0.1298
   46CHL1  H19A 5851   4.670   0.215   9.882 -1.4127  2.1666 -0.2348
   46CHL1  H19B 5852   4.660   0.073   9.790 -0.8013  0.4524  0.1856
   46CHL1  H19C 5853   4.733   0.231   9.724  2.1284 -0.8418  1.3505
   46CHL1    C1 5854   4.482   0.364   9.751  0.0733  0.1539 -0.4388
   46CHL1   H1A 5855   4.555   0.406   9.678 -0.1045 -1.6403 -1.7145
   46CHL1   H1B 5856   4.379   0.386   9.715  0.0490  1.1642  0.2215
   46CHL1    C2 5857   4.505   0.428   9.892 -0.2169 -0.9215 -0.5848
   46CHL1   H2A 5858   4.471   0.533   9.897 -0.3636 -1.0102  0.6284
   46CHL1   H2B 5859   4.612   0.419   9.921  0.3807  0.4131 -2.2348
   46CHL1   C20 5860   4.559  -0.090   9.083  0.2328  0.0905 -0.2346
   46CHL1   H20 5861   4.627  -0.167   9.125 -0.6753 -0.2622  0.6420
   46CHL1   C21 5862   4.633   0.045   9.044  0.4878 -0.1179 -0.2632
   46CHL1  H21A 5863   4.718   0.072   9.109  1.7591 -1.0377 -1.4874
   46CHL1  H21B 5864   4.552   0.119   9.024  0.1715 -0.7172 -1.2997
   46CHL1  H21C 5865   4.682   0.026   8.946  0.9206 -2.1323  0.2847
   46CHL1   C22 5866   4.480  -0.140   8.958  0.4936 -0.4274 -0.0244
   46CHL1  H22A 5867   4.549  -0.184   8.883 -1.6473 -1.7080 -1.3854
   46CHL1  H22B 5868   4.414  -0.226   8.984 -0.1081 -0.4135 -1.4309
   46CHL1   C23 5869   4.385  -0.040   8.883 -0.8796  0.9676  0.0163
   46CHL1  H23A 5870   4.308  -0.008   8.956 -0.0247  0.5536  1.1233
   46CHL1  H23B 5871   4.448   0.046   8.851 -0.2375  0.4374 -0.1771
   46CHL1   C24 5872   4.329  -0.107   8.758  0.0182 -0.1268  0.6566
   46CHL1  H24A 5873   4.411  -0.130   8.687 -3.4089 -0.0922 -3.7848
   46CHL1  H24B 5874   4.279  -0.203   8.779  0.6562 -0.8011 -0.7954
   46CHL1   C25 5875   4.228  -0.008   8.684 -0.3813 -0.1244 -0.0400
   46CHL1   H25 5876   4.147   0.007   8.759  1.6275  0.8629  2.0748
   46CHL1   C26 5877   4.303   0.121   8.635  0.3544  0.2734 -0.1232
   46CHL1  H26A 5878   4.396   0.084   8.588  1.1565  0.0641  1.5669
   46CHL1  H26B 5879   4.242   0.181   8.564 -0.9271  0.9724  1.5093
   46CHL1  H26C 5880   4.325   0.187   8.721  2.6753  0.2533 -0.6546
   46CHL1   C27 5881   4.167  -0.087   8.563  0.1892  0.1218 -0.8059
   46CHL1  H27A 5882   4.132  -0.190   8.584  0.3834  0.1791 -0.1753
   46CHL1  H27B 5883   4.073  -0.033   8.536 -0.6484 -0.4608  0.7858
   46CHL1  H27C 5884   4.237  -0.089   8.477 -0.0571  0.1261 -1.0067
   47CHL1    C3 5885   6.390   3.326   9.891  0.0876  0.3557 -0.1407
   47CHL1    H3 5886   6.493   3.302   9.856  0.4274 -0.6953  1.4527
   47CHL1    O3 5887   6.401   3.327  10.032  0.0531 -0.0254  0.0419
   47CHL1   H3' 5888   6.328   3.275  10.068 -0.2010  0.5566  0.3774
   47CHL1    C4 5889   6.337   3.456   9.850 -0.4931  0.4723 -0.1375
   47CHL1   H4A 5890   6.237   3.465   9.897 -0.0471 -0.2752  1.0183
   47CHL1   H4B 5891   6.404   3.532   9.897 -0.2546  0.4017 -0.3590
   47CHL1    C5 5892   6.330   3.457   9.696  0.2560  0.2572  0.1725
   47CHL1    C6 5893   6.382   3.556   9.621  0.0274  0.9120 -0.0771
   47CHL1    H6 5894   6.441   3.636   9.667  0.0385  1.4098 -0.9250
   47CHL1    C7 5895   6.372   3.557   9.470  0.0936  0.7575 -0.1711
   47CHL1   H7A 5896   6.354   3.660   9.434  0.1751  1.0325  0.5748
   47CHL1   H7B 5897   6.469   3.522   9.429 -0.3841 -1.8901  0.7358
   47CHL1    C8 5898   6.264   3.456   9.414  0.4528 -0.1787 -0.1680
   47CHL1    H8 5899   6.166   3.504   9.439 -0.6422 -0.8148 -2.8958
   47CHL1   C14 5900   6.276   3.442   9.266 -1.0731 -0.0550  0.2760
   47CHL1   H14 5901   6.374   3.391   9.250 -0.6490  1.6126 -3.3657
   47CHL1   C15 5902   6.297   3.566   9.183 -0.5317  0.0565 -0.3167
   47CHL1  H15A 5903   6.247   3.655   9.227 -1.0179 -0.3646 -0.0207
   47CHL1  H15B 5904   6.404   3.597   9.181 -0.8970  1.3801 -0.6006
   47CHL1   C16 5905   6.236   3.530   9.047 -0.1050 -0.7050 -0.2750
   47CHL1  H16A 5906   6.138   3.583   9.037 -0.5531 -1.8883 -3.2565
   47CHL1  H16B 5907   6.311   3.555   8.970  0.0443 -3.1686 -1.0091
   47CHL1   C17 5908   6.197   3.374   9.048 -0.0897 -0.0067 -0.5983
   47CHL1   H17 5909   6.290   3.317   9.025 -0.6797 -1.3451  0.1886
   47CHL1   C13 5910   6.174   3.351   9.202  0.0975 -0.6262  0.5179
   47CHL1   C18 5911   6.033   3.395   9.238  0.6718 -0.0481 -0.7082
   47CHL1  H18A 5912   6.000   3.393   9.344 -0.2555  0.7564 -0.9797
   47CHL1  H18B 5913   6.002   3.496   9.207 -0.0223  0.3764  1.1970
   47CHL1  H18C 5914   5.962   3.336   9.176  0.0607  1.1579 -1.1859
   47CHL1   C12 5915   6.210   3.212   9.256 -0.1704  0.8182  0.2660
   47CHL1  H12A 5916   6.155   3.135   9.197  0.0444  1.7440 -1.1855
   47CHL1  H12B 5917   6.315   3.202   9.219 -0.5321 -1.1307 -0.3571
   47CHL1   C11 5918   6.192   3.199   9.407  0.6745 -0.0081 -0.3323
   47CHL1  H11A 5919   6.082   3.207   9.423  0.5503 -0.6625 -0.8266
   47CHL1  H11B 5920   6.230   3.103   9.448 -0.1018  0.6376  2.0715
   47CHL1    C9 5921   6.268   3.319   9.483 -0.1477  0.1271 -0.5288
   47CHL1    H9 5922   6.373   3.288   9.462 -0.4770 -0.3591 -1.5382
   47CHL1   C10 5923   6.248   3.334   9.633  0.2990  0.2624 -0.7317
   47CHL1   C19 5924   6.107   3.364   9.656 -0.0379 -0.4340  0.4148
   47CHL1  H19A 5925   6.081   3.456   9.599  2.8923  0.8359  0.9391
   47CHL1  H19B 5926   6.033   3.286   9.631  0.7967 -1.8131  2.0225
   47CHL1  H19C 5927   6.089   3.391   9.762  0.9850  0.5548  0.3618
   47CHL1    C1 5928   6.298   3.198   9.697  0.7176  0.1136  0.2911
   47CHL1   H1A 5929   6.230   3.116   9.668 -0.6685  1.0718  0.7135
   47CHL1   H1B 5930   6.387   3.156   9.646  0.6918  1.1780 -0.6531
   47CHL1    C2 5931   6.300   3.208   9.850  0.1958  1.1664  0.7736
   47CHL1   H2A 5932   6.337   3.110   9.886 -1.1496 -0.0908 -1.0873
   47CHL1   H2B 5933   6.197   3.232   9.885 -0.0738 -1.2889  1.8242
   47CHL1   C20 5934   6.094   3.335   8.945 -0.4710  0.1766 -0.6081
   47CHL1   H20 5935   6.002   3.378   8.990  0.8560 -0.5562  3.1784
   47CHL1   C21 5936   6.078   3.180   8.931  0.4830 -0.0618  0.2629
   47CHL1  H21A 5937   5.997   3.173   8.856  0.3574  2.8410 -0.0062
   47CHL1  H21B 5938   6.044   3.135   9.027  0.4266 -0.6413 -0.0263
   47CHL1  H21C 5939   6.174   3.142   8.888  0.6906  2.7007 -2.0659
   47CHL1   C22 5940   6.105   3.406   8.815 -0.3832 -0.2261  0.0019
   47CHL1  H22A 5941   6.027   3.378   8.741  0.8384 -1.1472 -0.9891
   47CHL1  H22B 5942   6.092   3.515   8.833  1.4119  0.2800 -1.4487
   47CHL1   C23 5943   6.244   3.376   8.742  0.7980  0.2881 -0.3077
   47CHL1  H23A 5944   6.324   3.363   8.818 -0.2043  0.5508  0.8115
   47CHL1  H23B 5945   6.232   3.275   8.697 -2.0361  0.4577 -0.1035
   47CHL1   C24 5946   6.283   3.463   8.627 -0.3458 -0.2719  0.6366
   47CHL1  H24A 5947   6.230   3.434   8.533 -0.7889 -1.0563  1.1188
   47CHL1  H24B 5948   6.256   3.566   8.659  1.5476  1.1695 -2.0136
   47CHL1   C25 5949   6.435   3.471   8.610 -0.3615  0.4329  0.0014
   47CHL1   H25 5950   6.487   3.488   8.707  0.2661  1.8461 -0.5561
   47CHL1   C26 5951   6.483   3.341   8.537  0.5595 -0.4806  0.3178
   47CHL1  H26A 5952   6.592   3.321   8.547  0.6662 -0.5905 -0.9040
   47CHL1  H26B 5953   6.451   3.343   8.431 -0.9868 -0.3828  0.7661
   47CHL1  H26C 5954   6.424   3.254   8.572 -2.5720  1.4089  0.0611
   47CHL1   C27 5955   6.471   3.593   8.535  0.6025  0.0953 -0.5981
   47CHL1  H27A 5956   6.440   3.587   8.428 -0.4336 -0.7254 -0.2720
   47CHL1  H27B 5957   6.427   3.677   8.593  0.7764 -0.8783  1.0085
   47CHL1  H27C 5958   6.581   3.610   8.539  0.6033  0.0033 -0.2260
   48CHL1    C3 5959   6.611   4.658  10.114  0.4368 -0.6028 -0.0334
   48CHL1    H3 5960   6.526   4.716  10.071  1.2794  0.3681 -0.4384
   48CHL1    O3 5961   6.601   4.643  10.252 -1.1203  0.2108 -0.6366
   48CHL1   H3' 5962   6.645   4.559  10.269  1.7033  1.7237  0.3058
   48CHL1    C4 5963   6.606   4.516  10.064  0.2226  0.3634  0.2363
   48CHL1   H4A 5964   6.697   4.460  10.093  2.0564  0.4286 -4.5291
   48CHL1   H4B 5965   6.515   4.468  10.106 -0.0329 -0.0926 -0.8082
   48CHL1    C5 5966   6.610   4.525   9.908  0.4490 -0.3506  0.1273
   48CHL1    C6 5967   6.518   4.469   9.825 -0.3390  0.1816 -0.0491
   48CHL1    H6 5968   6.435   4.409   9.866 -0.9783 -0.9624 -2.7523
   48CHL1    C7 5969   6.527   4.469   9.671 -0.1595 -0.5884  0.5466
   48CHL1   H7A 5970   6.497   4.373   9.625 -4.6240  0.7397  0.1814
   48CHL1   H7B 5971   6.449   4.539   9.632 -0.2889 -0.8132  0.3995
   48CHL1    C8 5972   6.664   4.509   9.621 -0.0007 -0.0794  0.6509
   48CHL1    H8 5973   6.725   4.417   9.632 -1.1920 -1.2934 -2.0338
   48CHL1   C14 5974   6.655   4.533   9.471 -0.1826 -0.4442 -0.5149
   48CHL1   H14 5975   6.609   4.632   9.455  1.1365  0.0488 -1.4226
   48CHL1   C15 5976   6.575   4.433   9.381 -0.5465 -0.1025 -0.3416
   48CHL1  H15A 5977   6.603   4.331   9.413 -1.3903  0.1303  1.2419
   48CHL1  H15B 5978   6.464   4.441   9.391 -0.3142  0.8483  2.4103
   48CHL1   C16 5979   6.634   4.462   9.242  0.1361  0.2165  1.0340
   48CHL1  H16A 5980   6.671   4.362   9.210  1.6928  1.4307 -1.2864
   48CHL1  H16B 5981   6.548   4.503   9.184 -0.3030 -1.4324  0.4407
   48CHL1   C17 5982   6.742   4.573   9.258 -0.1926 -0.5620 -0.3178
   48CHL1   H17 5983   6.688   4.670   9.258  0.1502 -0.3655 -0.7965
   48CHL1   C13 5984   6.785   4.564   9.403  1.0640 -0.1421  0.8758
   48CHL1   C18 5985   6.879   4.442   9.404  0.0381 -0.3528  0.2194
   48CHL1  H18A 5986   6.842   4.348   9.357  0.4242  0.6348 -2.1812
   48CHL1  H18B 5987   6.969   4.468   9.345  1.2707 -1.2044  1.6548
   48CHL1  H18C 5988   6.908   4.420   9.509  0.1018 -0.5158  0.1688
   48CHL1   C12 5989   6.842   4.692   9.470 -0.8773  0.0672  0.0148
   48CHL1  H12A 5990   6.937   4.712   9.417 -0.4298  3.0992  1.7524
   48CHL1  H12B 5991   6.780   4.783   9.453  0.1905  1.0321  1.1214
   48CHL1   C11 5992   6.856   4.679   9.623  0.1384  0.1925 -0.5775
   48CHL1  H11A 5993   6.944   4.615   9.644  0.2344  0.1407 -1.1219
   48CHL1  H11B 5994   6.882   4.784   9.650 -2.2029  0.9125 -0.8933
   48CHL1    C9 5995   6.725   4.630   9.694 -0.5420  0.1785 -0.2564
   48CHL1    H9 5996   6.656   4.717   9.683 -1.2669 -0.2536  0.7921
   48CHL1   C10 5997   6.736   4.596   9.851  0.4827  0.3443  0.3594
   48CHL1   C19 5998   6.854   4.500   9.867  0.6807  0.1180 -0.1958
   48CHL1  H19A 5999   6.952   4.542   9.835  0.4516  1.2406  0.5065
   48CHL1  H19B 6000   6.869   4.454   9.967 -2.3481 -1.0692 -0.1883
   48CHL1  H19C 6001   6.848   4.412   9.801 -1.6395 -0.4698  0.7207
   48CHL1    C1 6002   6.764   4.729   9.933 -0.0700 -0.6165 -0.8477
   48CHL1   H1A 6003   6.862   4.770   9.900  0.9277 -1.9907  0.2942
   48CHL1   H1B 6004   6.686   4.804   9.906  1.5319  0.4279 -2.9108
   48CHL1    C2 6005   6.750   4.709  10.082 -0.2502  0.5835 -0.4990
   48CHL1   H2A 6006   6.766   4.798  10.147  1.4562  1.7183 -2.3517
   48CHL1   H2B 6007   6.825   4.631  10.108 -0.0960  1.1900  0.9927
   48CHL1   C20 6008   6.846   4.587   9.150  0.2944  0.2615  0.0559
   48CHL1   H20 6009   6.936   4.624   9.203  0.3495 -0.1836  0.2765
   48CHL1   C21 6010   6.813   4.700   9.047  0.3552  0.1828 -0.3093
   48CHL1  H21A 6011   6.780   4.791   9.103  1.8254  0.4707  0.1157
   48CHL1  H21B 6012   6.724   4.663   8.991  0.5342 -2.0850  0.8004
   48CHL1  H21C 6013   6.902   4.726   8.987  1.5657  0.8193  1.6707
   48CHL1   C22 6014   6.878   4.459   9.074 -0.1772  0.0875  0.0073
   48CHL1  H22A 6015   6.850   4.360   9.116 -0.4349 -1.4173 -3.4000
   48CHL1  H22B 6016   6.825   4.457   8.976 -1.1025  1.4723  0.4544
   48CHL1   C23 6017   7.029   4.446   9.034  0.2015 -0.2241  0.3984
   48CHL1  H23A 6018   7.064   4.550   9.016 -1.9772  0.3333 -0.9689
   48CHL1  H23B 6019   7.075   4.401   9.125 -0.2230  1.2424  1.3682
   48CHL1   C24 6020   7.041   4.353   8.916  0.2039  0.0847 -0.2292
   48CHL1  H24A 6021   6.979   4.266   8.946 -1.8839  0.2456 -3.5094
   48CHL1  H24B 6022   6.989   4.393   8.826 -0.2228 -0.0264 -0.0328
   48CHL1   C25 6023   7.190   4.315   8.896 -0.1677  0.0284  0.2171
   48CHL1   H25 6024   7.232   4.279   8.993  1.1377 -0.6028 -0.5534
   48CHL1   C26 6025   7.186   4.202   8.794 -0.2449  0.5649  0.6720
   48CHL1  H26A 6026   7.284   4.151   8.783 -1.5038 -1.4362 -2.3231
   48CHL1  H26B 6027   7.118   4.119   8.823  0.6062 -0.3245  0.2030
   48CHL1  H26C 6028   7.164   4.254   8.698  1.2925  0.5523  0.2806
   48CHL1   C27 6029   7.286   4.427   8.847  0.3683 -0.4672  0.0594
   48CHL1  H27A 6030   7.389   4.387   8.839  0.5197 -0.1663  0.4408
   48CHL1  H27B 6031   7.261   4.473   8.749 -1.0283  2.6827  1.7307
   48CHL1  H27C 6032   7.302   4.505   8.925  1.0519 -1.4636  0.9400
   49CHL1    C3 6033   3.536   6.498   9.922  0.0444  0.6699  0.1572
   49CHL1    H3 6034   3.574   6.395   9.939 -0.2524  1.0157  3.7294
   49CHL1    O3 6035   3.550   6.551  10.049  0.3297  0.3899  0.1507
   49CHL1   H3' 6036   3.474   6.512  10.092 -0.4073  3.7214  2.3019
   49CHL1    C4 6037   3.627   6.565   9.826  0.2492  0.1539  0.2758
   49CHL1   H4A 6038   3.611   6.675   9.830  2.1298  0.4635  0.1787
   49CHL1   H4B 6039   3.732   6.563   9.861  0.4150 -0.1553 -0.2235
   49CHL1    C5 6040   3.620   6.505   9.688  0.0198 -0.0006  0.2200
   49CHL1    C6 6041   3.731   6.456   9.626 -0.0013  0.4805  0.3119
   49CHL1    H6 6042   3.827   6.464   9.680 -0.2097  0.0252  0.7640
   49CHL1    C7 6043   3.739   6.392   9.491 -0.1641 -0.0696  0.0176
   49CHL1   H7A 6044   3.823   6.441   9.436 -0.0568  1.3147  1.3351
   49CHL1   H7B 6045   3.748   6.283   9.509  1.0693  0.2509  1.7065
   49CHL1    C8 6046   3.605   6.417   9.406  0.1285  0.3494 -0.1762
   49CHL1    H8 6047   3.614   6.522   9.371 -1.4614 -0.2605 -2.6865
   49CHL1   C14 6048   3.602   6.324   9.279  0.8330 -0.0905 -0.3407
   49CHL1   H14 6049   3.602   6.221   9.321 -1.0010  0.9696  2.5555
   49CHL1   C15 6050   3.723   6.323   9.186  0.3529  0.7367 -0.2484
   49CHL1  H15A 6051   3.759   6.426   9.165 -0.8367  1.4809  1.1739
   49CHL1  H15B 6052   3.802   6.258   9.227 -1.6362 -0.5538  1.7876
   49CHL1   C16 6053   3.664   6.253   9.059 -0.1707 -0.6876 -0.4112
   49CHL1  H16A 6054   3.692   6.311   8.968  2.6273 -1.0774  0.1043
   49CHL1  H16B 6055   3.695   6.147   9.057 -1.6194 -1.1460  0.1799
   49CHL1   C17 6056   3.513   6.242   9.082 -0.3343 -0.1438 -0.0093
   49CHL1   H17 6057   3.485   6.143   9.125 -1.1076 -0.6993 -1.6855
   49CHL1   C13 6058   3.475   6.342   9.193  0.4858 -0.4654 -0.3385
   49CHL1   C18 6059   3.476   6.487   9.137 -0.1439  0.6335  0.0459
   49CHL1  H18A 6060   3.454   6.549   9.227  1.5743  0.0097  0.9495
   49CHL1  H18B 6061   3.579   6.511   9.104  0.1589 -0.5825  0.0582
   49CHL1  H18C 6062   3.394   6.503   9.064 -0.8660 -0.5194  0.5762
   49CHL1   C12 6063   3.357   6.311   9.287  0.0480 -0.1452 -0.5474
   49CHL1  H12A 6064   3.261   6.325   9.233  0.2624  5.5217 -0.0622
   49CHL1  H12B 6065   3.370   6.202   9.304  1.3536 -0.4085 -2.8716
   49CHL1   C11 6066   3.349   6.402   9.412  0.2916 -0.0037  0.0294
   49CHL1  H11A 6067   3.327   6.506   9.381 -1.9584 -0.2333  0.7133
   49CHL1  H11B 6068   3.258   6.367   9.465 -0.9831 -0.0067 -2.0490
   49CHL1    C9 6069   3.479   6.395   9.498 -0.4115  0.0555  0.2108
   49CHL1    H9 6070   3.490   6.292   9.539 -0.4886 -0.1227 -0.2098
   49CHL1   C10 6071   3.480   6.485   9.630  0.8843  0.0806  0.0952
   49CHL1   C19 6072   3.434   6.625   9.591  0.0079 -0.0993 -0.4966
   49CHL1  H19A 6073   3.445   6.685   9.684  3.0183 -2.6561  0.9679
   49CHL1  H19B 6074   3.508   6.679   9.528  0.8727  2.2438  2.3333
   49CHL1  H19C 6075   3.337   6.630   9.537  0.8813  1.3643 -2.0296
   49CHL1    C1 6076   3.367   6.439   9.731 -0.3920  0.2696  0.3101
   49CHL1   H1A 6077   3.268   6.478   9.701 -0.6211  1.7802  2.7607
   49CHL1   H1B 6078   3.360   6.328   9.719 -3.3207  0.6301 -2.8235
   49CHL1    C2 6079   3.385   6.491   9.877  0.3921  0.2684 -0.6165
   49CHL1   H2A 6080   3.313   6.445   9.947  0.3753  0.6630 -0.3733
   49CHL1   H2B 6081   3.342   6.593   9.873 -0.6577 -0.1703 -0.8551
   49CHL1   C20 6082   3.431   6.258   8.954 -0.2958  0.6670 -0.0961
   49CHL1   H20 6083   3.457   6.361   8.920  1.5989  0.0281 -0.7016
   49CHL1   C21 6084   3.282   6.246   8.984  0.3495  0.4328 -0.2376
   49CHL1  H21A 6085   3.228   6.219   8.891  1.2478 -0.4372 -0.5151
   49CHL1  H21B 6086   3.236   6.337   9.028  0.3064 -0.6159  2.0143
   49CHL1  H21C 6087   3.278   6.158   9.052  3.6306 -0.8760 -1.5105
   49CHL1   C22 6088   3.469   6.159   8.837  0.1871 -0.0578  0.1113
   49CHL1  H22A 6089   3.386   6.176   8.765 -0.6292  0.3895  1.1319
   49CHL1  H22B 6090   3.560   6.189   8.781 -0.7181 -0.4701 -1.6696
   49CHL1   C23 6091   3.470   6.013   8.871 -0.0335 -0.0380 -0.2846
   49CHL1  H23A 6092   3.545   6.002   8.952 -0.3382 -0.0638 -0.0019
   49CHL1  H23B 6093   3.378   5.967   8.913  0.0263 -0.1054 -0.2263
   49CHL1   C24 6094   3.524   5.923   8.754 -0.0639  0.2008  0.2394
   49CHL1  H24A 6095   3.618   5.976   8.725  1.1351 -0.5518  2.5435
   49CHL1  H24B 6096   3.562   5.822   8.781  1.3224 -0.3061 -3.0846
   49CHL1   C25 6097   3.436   5.896   8.625 -0.7404 -0.5146  0.1729
   49CHL1   H25 6098   3.393   5.994   8.593 -1.9409 -0.8489  0.7081
   49CHL1   C26 6099   3.522   5.849   8.511  0.3605 -0.3902  0.7237
   49CHL1  H26A 6100   3.576   5.757   8.540 -1.5754 -1.6293  0.5135
   49CHL1  H26B 6101   3.466   5.813   8.422  1.3318  0.6433 -0.3444
   49CHL1  H26C 6102   3.594   5.924   8.470 -0.5375 -0.0739 -0.2924
   49CHL1   C27 6103   3.320   5.805   8.641 -0.0858  0.8421 -0.6465
   49CHL1  H27A 6104   3.247   5.826   8.722  0.1522 -2.8238  0.6950
   49CHL1  H27B 6105   3.264   5.806   8.544 -0.0176  3.3797 -0.7443
   49CHL1  H27C 6106   3.352   5.700   8.655 -0.7187  0.7854  0.4592
   50CHL1    C3 6107   0.768   6.818  10.063  0.2272 -0.4810 -0.4594
   50CHL1    H3 6108   0.759   6.929  10.060  2.7211  0.0436  3.6134
   50CHL1    O3 6109   0.759   6.775  10.201 -0.2633  0.0249 -0.5076
   50CHL1   H3' 6110   0.788   6.684  10.198 -0.8345 -0.1482 -2.7729
   50CHL1    C4 6111   0.654   6.749   9.981 -0.2798 -0.1670 -0.0251
   50CHL1   H4A 6112   0.679   6.643  10.002 -0.6285  0.1847  2.5177
   50CHL1   H4B 6113   0.552   6.759  10.025 -0.7072  1.0951 -1.2264
   50CHL1    C5 6114   0.658   6.781   9.832  0.2795 -0.4815  0.1313
   50CHL1    C6 6115   0.549   6.820   9.768  0.3392 -0.2032  0.1612
   50CHL1    H6 6116   0.454   6.832   9.822 -0.1224 -0.8763 -0.4829
   50CHL1    C7 6117   0.533   6.841   9.623  0.5878 -0.8426 -0.1624
   50CHL1   H7A 6118   0.447   6.784   9.581  0.1023 -0.6714  0.5778
   50CHL1   H7B 6119   0.533   6.949   9.597 -1.8603 -0.6572  0.3896
   50CHL1    C8 6120   0.658   6.796   9.550 -0.8963  0.6309  1.0971
   50CHL1    H8 6121   0.650   6.685   9.556 -2.4019  0.7526  1.7713
   50CHL1   C14 6122   0.674   6.845   9.404  0.5132  0.2005 -0.2678
   50CHL1   H14 6123   0.694   6.955   9.404 -0.0915  0.3801  2.3375
   50CHL1   C15 6124   0.550   6.837   9.310  0.7981 -0.0269  0.2677
   50CHL1  H15A 6125   0.502   6.737   9.317  0.1655  0.3597  1.9408
   50CHL1  H15B 6126   0.480   6.920   9.333  0.9671  0.6279 -1.4691
   50CHL1   C16 6127   0.610   6.870   9.175 -0.6191  0.3577 -0.3567
   50CHL1  H16A 6128   0.579   6.791   9.104 -0.2940  2.4743 -3.0594
   50CHL1  H16B 6129   0.575   6.970   9.139 -1.8703  1.4345  3.3923
   50CHL1   C17 6130   0.769   6.876   9.190 -0.3464  0.2359  0.1073
   50CHL1   H17 6131   0.797   6.981   9.214 -0.3527 -0.3840  3.2463
   50CHL1   C13 6132   0.795   6.799   9.318  0.2073  0.5964  0.4343
   50CHL1   C18 6133   0.782   6.648   9.299  0.6103 -0.3298  1.1558
   50CHL1  H18A 6134   0.698   6.617   9.233  1.2411 -1.6910  0.9777
   50CHL1  H18B 6135   0.874   6.607   9.253  3.9742  3.6064  3.6986
   50CHL1  H18C 6136   0.755   6.606   9.398 -0.8768  0.4547  1.1202
   50CHL1   C12 6137   0.919   6.837   9.402  0.1741 -0.3296 -0.5642
   50CHL1  H12A 6138   1.006   6.784   9.357  1.6052  0.1675  1.4460
   50CHL1  H12B 6139   0.940   6.946   9.398  0.4780 -0.3571  0.0500
   50CHL1   C11 6140   0.916   6.780   9.545 -0.4931  0.4538 -0.0749
   50CHL1  H11A 6141   0.930   6.671   9.526  0.6773  0.7251 -0.8581
   50CHL1  H11B 6142   1.011   6.802   9.598  1.1938  0.1609 -2.7880
   50CHL1    C9 6143   0.788   6.823   9.622 -0.3245  0.1398 -0.3127
   50CHL1    H9 6144   0.799   6.933   9.633  1.5766 -0.0392 -0.1695
   50CHL1   C10 6145   0.791   6.760   9.764  0.3636 -0.2938  0.4255
   50CHL1   C19 6146   0.804   6.606   9.763 -0.5482 -0.2083 -0.1332
   50CHL1  H19A 6147   0.781   6.549   9.856  3.2366 -0.8175  0.5826
   50CHL1  H19B 6148   0.728   6.561   9.695 -1.5131  0.9919  0.1020
   50CHL1  H19C 6149   0.906   6.579   9.729 -1.1750 -1.8795 -0.8300
   50CHL1    C1 6150   0.904   6.826   9.845  0.2503  0.3521 -0.2345
   50CHL1   H1A 6151   1.004   6.796   9.808 -0.2479 -0.4107 -1.0000
   50CHL1   H1B 6152   0.885   6.936   9.844 -2.1637  0.0248 -2.5097
   50CHL1    C2 6153   0.900   6.785   9.995 -0.1042  0.3311  0.7705
   50CHL1   H2A 6154   0.982   6.835  10.050 -0.1957  0.4193  0.8266
   50CHL1   H2B 6155   0.916   6.676  10.009 -0.4262 -0.0770 -1.6395
   50CHL1   C20 6156   0.836   6.824   9.060  0.4638 -0.1081  0.1372
   50CHL1   H20 6157   0.836   6.713   9.056  0.1273 -0.0607 -1.7205
   50CHL1   C21 6158   0.981   6.879   9.058 -0.1825  0.3304 -0.3586
   50CHL1  H21A 6159   1.044   6.863   8.968 -1.1299 -0.0897 -0.9531
   50CHL1  H21B 6160   1.036   6.838   9.146 -0.8969 -1.0371 -0.5321
   50CHL1  H21C 6161   0.970   6.988   9.079 -1.2911  0.4259 -1.3493
   50CHL1   C22 6162   0.763   6.876   8.935  0.2146 -0.4099  0.3336
   50CHL1  H22A 6163   0.662   6.832   8.925 -0.0437 -0.5574  2.8204
   50CHL1  H22B 6164   0.759   6.986   8.953 -0.0673 -0.5270  0.9950
   50CHL1   C23 6165   0.845   6.867   8.807  0.4403 -0.3691  0.3852
   50CHL1  H23A 6166   0.939   6.926   8.818 -0.7025  1.7444 -0.6119
   50CHL1  H23B 6167   0.872   6.761   8.787  0.0177 -0.5450  0.7362
   50CHL1   C24 6168   0.775   6.931   8.684  0.0628 -0.5214 -0.2487
   50CHL1  H24A 6169   0.668   6.902   8.691 -0.4082  1.1315 -0.1793
   50CHL1  H24B 6170   0.781   7.042   8.685  2.1604 -0.5804 -1.5350
   50CHL1   C25 6171   0.831   6.890   8.549  0.4446  0.3793  0.7698
   50CHL1   H25 6172   0.937   6.864   8.568  0.3806  0.3096  1.0368
   50CHL1   C26 6173   0.753   6.780   8.486 -0.5050  0.2840 -0.2945
   50CHL1  H26A 6174   0.753   6.681   8.536  0.0998  0.7818  0.7296
   50CHL1  H26B 6175   0.644   6.800   8.478 -0.8533 -0.9179  0.9628
   50CHL1  H26C 6176   0.785   6.768   8.381  0.2330 -2.4446  0.1627
   50CHL1   C27 6177   0.843   7.000   8.442 -0.0738  0.1814  0.4159
   50CHL1  H27A 6178   0.892   6.972   8.347  1.5516 -0.0602  1.2810
   50CHL1  H27B 6179   0.741   7.036   8.417  0.1430 -0.1283 -0.9547
   50CHL1  H27C 6180   0.910   7.081   8.479  0.4375 -0.0127 -0.0678
   51CHL1    C3 6181   2.275   1.905  10.238 -0.2178 -0.1893  0.1808
   51CHL1    H3 6182   2.261   2.015  10.248 -0.6806 -0.2035 -0.2940
   51CHL1    O3 6183   2.277   1.854  10.370  0.4277 -0.2242  0.8122
   51CHL1   H3' 6184   2.336   1.780  10.386 -1.8885 -1.8188  2.4817
   51CHL1    C4 6185   2.165   1.840  10.154 -0.2994 -0.7784 -0.1197
   51CHL1   H4A 6186   2.181   1.731  10.169  1.8360 -0.5380 -0.2919
   51CHL1   H4B 6187   2.062   1.873  10.178 -0.8529  0.0792 -3.2565
   51CHL1    C5 6188   2.173   1.866  10.004  0.9788  0.0086  0.1554
   51CHL1    C6 6189   2.075   1.917   9.934  0.2287 -0.3469 -0.1060
   51CHL1    H6 6190   1.983   1.943   9.990  0.3419 -0.5171  0.1593
   51CHL1    C7 6191   2.083   1.940   9.779 -0.4851  0.1968 -0.0386
   51CHL1   H7A 6192   1.990   1.904   9.731 -1.2969 -1.2491  2.4418
   51CHL1   H7B 6193   2.089   2.050   9.760 -3.1115  0.7107  1.5764
   51CHL1    C8 6194   2.201   1.858   9.708  0.1461  0.3458 -0.4142
   51CHL1    H8 6195   2.162   1.754   9.701 -0.8745  0.7540 -1.1529
   51CHL1   C14 6196   2.217   1.907   9.566 -0.0086  0.3335  0.6376
   51CHL1   H14 6197   2.259   2.010   9.573 -0.1788  0.5776 -1.3491
   51CHL1   C15 6198   2.093   1.903   9.473  0.1011  0.1205 -0.7045
   51CHL1  H15A 6199   2.024   1.823   9.506 -1.3060  1.9189  0.9174
   51CHL1  H15B 6200   2.034   1.996   9.484 -0.4707 -0.3781  0.5753
   51CHL1   C16 6201   2.155   1.891   9.331  0.0136 -0.3791 -0.4558
   51CHL1  H16A 6202   2.109   1.812   9.268 -3.2378  0.6413  0.4575
   51CHL1  H16B 6203   2.139   1.991   9.285  1.4474  1.4852  2.7482
   51CHL1   C17 6204   2.306   1.887   9.348 -0.1194 -0.0313 -0.6087
   51CHL1   H17 6205   2.335   1.994   9.359  0.3266 -0.2669  0.7024
   51CHL1   C13 6206   2.331   1.834   9.490  0.5320  1.1020  0.9723
   51CHL1   C18 6207   2.308   1.679   9.476 -0.5529 -0.2673 -0.1192
   51CHL1  H18A 6208   2.321   1.631   9.576  0.1877 -0.1223 -0.1367
   51CHL1  H18B 6209   2.204   1.657   9.445  0.0071  1.9286 -4.1507
   51CHL1  H18C 6210   2.382   1.623   9.415  1.3789 -0.0063  1.8454
   51CHL1   C12 6211   2.467   1.866   9.565  0.1931  0.0552 -0.0203
   51CHL1  H12A 6212   2.548   1.797   9.531  0.0713 -0.0923 -0.0133
   51CHL1  H12B 6213   2.504   1.971   9.560 -1.9049  0.7837 -1.5453
   51CHL1   C11 6214   2.455   1.826   9.713 -0.2663 -0.1545 -0.2418
   51CHL1  H11A 6215   2.479   1.717   9.712 -0.7179 -0.2552 -0.3528
   51CHL1  H11B 6216   2.541   1.868   9.769 -1.9884 -0.4993  2.8702
   51CHL1    C9 6217   2.328   1.880   9.789  0.2408  0.0240 -0.9632
   51CHL1    H9 6218   2.335   1.991   9.786 -2.2791  0.3930  1.9011
   51CHL1   C10 6219   2.308   1.836   9.938 -0.9232  0.1494  0.1811
   51CHL1   C19 6220   2.343   1.684   9.948  0.5762 -0.1731 -0.0723
   51CHL1  H19A 6221   2.291   1.647   9.857  0.2762  0.5271 -0.1923
   51CHL1  H19B 6222   2.452   1.663   9.936  0.6598 -1.6559  2.5586
   51CHL1  H19C 6223   2.294   1.625  10.028  1.8191 -1.1324  0.0114
   51CHL1    C1 6224   2.414   1.914  10.024 -0.8061 -0.2515 -0.0233
   51CHL1   H1A 6225   2.520   1.886  10.006 -0.6136 -1.5716  2.6950
   51CHL1   H1B 6226   2.392   2.022  10.012  2.9557  0.6811  0.4142
   51CHL1    C2 6227   2.412   1.882  10.175  0.1735  0.7882  0.1320
   51CHL1   H2A 6228   2.494   1.936  10.227  1.2914  0.5731 -1.3449
   51CHL1   H2B 6229   2.430   1.773  10.178  1.2579  0.9121 -0.9798
   51CHL1   C20 6230   2.381   1.827   9.228  0.2885  0.0693  0.2040
   51CHL1   H20 6231   2.361   1.718   9.233  1.0508 -0.0344  2.0046
   51CHL1   C21 6232   2.527   1.868   9.245  0.5292  0.1429  0.1791
   51CHL1  H21A 6233   2.522   1.975   9.277  0.1105 -0.1211  1.0306
   51CHL1  H21B 6234   2.585   1.867   9.150  1.6773  2.1137  0.7811
   51CHL1  H21C 6235   2.579   1.812   9.325 -2.1999 -1.3665  1.0253
   51CHL1   C22 6236   2.322   1.872   9.090  0.0641  0.3780  0.6313
   51CHL1  H22A 6237   2.217   1.837   9.082  0.2816  0.1188 -2.2370
   51CHL1  H22B 6238   2.318   1.983   9.083  2.4471  0.4355 -0.7586
   51CHL1   C23 6239   2.402   1.827   8.970  0.7260  0.3750 -0.2516
   51CHL1  H23A 6240   2.347   1.852   8.877  0.8154  0.1232 -0.3719
   51CHL1  H23B 6241   2.495   1.886   8.959  1.1123 -0.5055 -2.1061
   51CHL1   C24 6242   2.434   1.675   8.962 -0.3945 -0.3621 -0.6987
   51CHL1  H24A 6243   2.482   1.648   9.059  1.4268  2.0651 -0.8487
   51CHL1  H24B 6244   2.349   1.604   8.957  0.0460 -0.9807  0.1508
   51CHL1   C25 6245   2.536   1.639   8.851 -0.3253  0.4520 -0.3022
   51CHL1   H25 6246   2.614   1.718   8.844  0.2287 -0.1785 -1.4915
   51CHL1   C26 6247   2.614   1.506   8.869 -0.8546 -0.0223 -0.1493
   51CHL1  H26A 6248   2.533   1.433   8.884 -1.0329  0.0084 -0.9497
   51CHL1  H26B 6249   2.675   1.481   8.780 -0.2710 -0.8949  0.4799
   51CHL1  H26C 6250   2.682   1.508   8.958 -1.7294  0.5475  0.5217
   51CHL1   C27 6251   2.468   1.643   8.712  0.4976  0.7865  0.2645
   51CHL1  H27A 6252   2.387   1.568   8.705  1.0283  0.2608 -0.5170
   51CHL1  H27B 6253   2.431   1.746   8.693 -0.1245  0.7957  1.4409
   51CHL1  H27C 6254   2.542   1.612   8.634 -0.8220  0.4198 -0.8725
   52CHL1    C3 6255   0.524   2.610   9.993 -0.3616 -0.5740  0.7636
   52CHL1    H3 6256   0.626   2.568   9.981  0.3312  1.4977 -1.2550
   52CHL1    O3 6257   0.528   2.699  10.101 -0.0170  0.0097  0.0545
   52CHL1   H3' 6258   0.448   2.700  10.153  0.4184  1.3500  0.7393
   52CHL1    C4 6259   0.467   2.688   9.875 -0.2665 -0.5307  0.6639
   52CHL1   H4A 6260   0.373   2.735   9.911 -0.1870  0.5067 -0.4116
   52CHL1   H4B 6261   0.528   2.777   9.850 -0.0860 -1.1604 -1.2904
   52CHL1    C5 6262   0.445   2.605   9.748 -0.5224 -0.7421 -0.4512
   52CHL1    C6 6263   0.519   2.616   9.638 -1.6552 -0.4913  0.6222
   52CHL1    H6 6264   0.591   2.698   9.625 -0.6642 -1.6992 -2.4975
   52CHL1    C7 6265   0.518   2.528   9.519 -0.4325  0.2184  0.6086
   52CHL1   H7A 6266   0.522   2.592   9.428 -0.2568  0.1366  0.5589
   52CHL1   H7B 6267   0.604   2.458   9.518 -1.3535 -0.9463 -0.3513
   52CHL1    C8 6268   0.383   2.441   9.522 -0.3414 -0.3567 -0.1860
   52CHL1    H8 6269   0.306   2.517   9.495 -0.1704 -0.3761 -0.7485
   52CHL1   C14 6270   0.389   2.335   9.416 -0.0308  0.1337 -0.4123
   52CHL1   H14 6271   0.471   2.261   9.432 -0.4061  0.0172  1.1140
   52CHL1   C15 6272   0.417   2.393   9.273 -0.0055 -0.5359 -0.1991
   52CHL1  H15A 6273   0.349   2.480   9.261  2.2330  1.2161 -0.6816
   52CHL1  H15B 6274   0.524   2.421   9.272 -0.0963 -0.1949 -0.5805
   52CHL1   C16 6275   0.374   2.280   9.179 -0.0912  0.1685 -0.5824
   52CHL1  H16A 6276   0.288   2.313   9.118 -0.0713  0.8857 -0.2287
   52CHL1  H16B 6277   0.448   2.237   9.108 -1.5636 -3.6336 -0.0884
   52CHL1   C17 6278   0.305   2.175   9.273 -0.0109  0.5726 -0.9653
   52CHL1   H17 6279   0.385   2.104   9.305  0.2517  0.8405 -1.0193
   52CHL1   C13 6280   0.272   2.252   9.407 -1.0717  0.7617 -0.0449
   52CHL1   C18 6281   0.142   2.319   9.390  0.5201  0.4452  0.7894
   52CHL1  H18A 6282   0.102   2.371   9.480 -0.5762  0.3500  0.3649
   52CHL1  H18B 6283   0.152   2.389   9.305 -0.6412  1.4518  1.4463
   52CHL1  H18C 6284   0.060   2.248   9.366  0.8042  0.4994 -0.3786
   52CHL1   C12 6285   0.263   2.166   9.539 -0.0075  0.1098 -0.7006
   52CHL1  H12A 6286   0.169   2.107   9.530  1.1471 -1.4764 -4.9656
   52CHL1  H12B 6287   0.341   2.087   9.533 -0.5252 -0.5583  0.8988
   52CHL1   C11 6288   0.263   2.262   9.660  0.0910 -0.0710 -0.7957
   52CHL1  H11A 6289   0.160   2.303   9.669  0.8831  1.5454  3.3833
   52CHL1  H11B 6290   0.263   2.199   9.752 -1.1613  0.8329 -0.1466
   52CHL1    C9 6291   0.368   2.379   9.663 -0.0391 -0.6219 -0.2856
   52CHL1    H9 6292   0.466   2.328   9.674  0.5332  0.2718 -1.1297
   52CHL1   C10 6293   0.356   2.481   9.776  0.2610  0.4176  0.2060
   52CHL1   C19 6294   0.205   2.531   9.763  0.1699  0.9262  0.1160
   52CHL1  H19A 6295   0.182   2.619   9.827  1.7391  0.8861  0.7997
   52CHL1  H19B 6296   0.170   2.557   9.661 -0.9175  0.2714  0.3116
   52CHL1  H19C 6297   0.141   2.451   9.805 -0.9641  1.8357  0.1536
   52CHL1    C1 6298   0.385   2.406   9.904 -0.3086  0.6128  0.4786
   52CHL1   H1A 6299   0.299   2.342   9.935 -0.6893  0.9862  0.1966
   52CHL1   H1B 6300   0.478   2.345   9.894 -1.5418 -1.3690  0.4728
   52CHL1    C2 6301   0.424   2.492  10.028  0.6459 -0.2925 -0.2729
   52CHL1   H2A 6302   0.470   2.432  10.109  3.0100  2.3822  0.5318
   52CHL1   H2B 6303   0.329   2.530  10.070  0.1548  0.7142 -2.1908
   52CHL1   C20 6304   0.198   2.088   9.198  0.6874 -0.3026 -0.2756
   52CHL1   H20 6305   0.110   2.150   9.172 -0.3245 -1.1590  1.0178
   52CHL1   C21 6306   0.138   1.977   9.290 -0.0522  0.1307  0.8604
   52CHL1  H21A 6307   0.078   2.020   9.373  0.2909  0.2667  1.0399
   52CHL1  H21B 6308   0.220   1.918   9.336  0.1097 -0.9106 -0.7089
   52CHL1  H21C 6309   0.073   1.903   9.239  0.7122  0.5664 -0.7926
   52CHL1   C22 6310   0.250   2.031   9.070  0.1125  0.2146  0.1694
   52CHL1  H22A 6311   0.246   2.110   8.992 -1.0969  0.8239  0.8198
   52CHL1  H22B 6312   0.353   1.993   9.088 -0.3696 -1.8697 -1.1460
   52CHL1   C23 6313   0.169   1.906   9.010  0.1505  0.5107 -0.2596
   52CHL1  H23A 6314   0.174   1.821   9.082 -0.6118 -1.0384 -1.9438
   52CHL1  H23B 6315   0.063   1.936   8.996 -0.0480 -0.5664 -1.2193
   52CHL1   C24 6316   0.221   1.870   8.868 -0.9845  0.2001  0.2897
   52CHL1  H24A 6317   0.240   1.963   8.811 -0.4664 -0.0209  0.0881
   52CHL1  H24B 6318   0.325   1.830   8.873 -0.4504  0.8035 -3.3032
   52CHL1   C25 6319   0.137   1.773   8.784  0.1635  0.8168  0.2728
   52CHL1   H25 6320   0.094   1.695   8.851 -3.8244 -0.7005 -3.6099
   52CHL1   C26 6321   0.028   1.850   8.706  0.3854  0.2657  0.0150
   52CHL1  H26A 6322  -0.048   1.893   8.774 -0.0924 -0.3947 -0.0890
   52CHL1  H26B 6323   0.068   1.938   8.652  0.2476 -0.3324 -1.0895
   52CHL1  H26C 6324  -0.022   1.783   8.633 -0.8675  0.3179  0.8028
   52CHL1   C27 6325   0.221   1.707   8.683  0.1273  0.1943  0.6738
   52CHL1  H27A 6326   0.283   1.618   8.709 -1.1073 -1.5762 -1.9461
   52CHL1  H27B 6327   0.155   1.663   8.605 -1.1890 -0.5979  2.1743
   52CHL1  H27C 6328   0.280   1.781   8.625 -0.1975 -1.4871 -1.9829
   53CHL1    C3 6329   6.349   1.644   9.991  1.0250 -0.3370  0.3094
   53CHL1    H3 6330   6.307   1.738   9.950 -0.0153 -0.9495 -0.0612
   53CHL1    O3 6331   6.380   1.663  10.129  0.0733  0.5534  0.0024
   53CHL1   H3' 6332   6.423   1.584  10.162  0.3951  0.1842 -1.2442
   53CHL1    C4 6333   6.248   1.532   9.974  0.3309 -0.1873  0.5810
   53CHL1   H4A 6334   6.285   1.433  10.009 -0.4148 -0.6422  0.1247
   53CHL1   H4B 6335   6.152   1.538  10.030 -0.4498 -1.9371 -0.4881
   53CHL1    C5 6336   6.215   1.526   9.830 -0.0260 -0.5997 -0.2064
   53CHL1    C6 6337   6.082   1.535   9.791  0.2333 -0.9761  0.1886
   53CHL1    H6 6338   6.006   1.554   9.868  1.8114 -0.8492  1.7867
   53CHL1    C7 6339   6.034   1.533   9.644  0.2098  0.6868  0.3316
   53CHL1   H7A 6340   5.951   1.459   9.641 -0.1854  1.0943 -3.0718
   53CHL1   H7B 6341   5.999   1.636   9.622 -1.7225 -0.3281 -1.8931
   53CHL1    C8 6342   6.141   1.478   9.553 -0.7788 -0.0070  0.9669
   53CHL1    H8 6343   6.133   1.369   9.575 -1.8185 -0.4051 -1.0519
   53CHL1   C14 6344   6.104   1.505   9.399  0.9886 -0.8717  0.0007
   53CHL1   H14 6345   6.088   1.613   9.375 -0.6408 -1.6458 -2.8447
   53CHL1   C15 6346   5.972   1.439   9.357 -0.4166 -0.0224  0.9683
   53CHL1  H15A 6347   5.963   1.340   9.408  1.1229 -0.4630  0.4251
   53CHL1  H15B 6348   5.878   1.491   9.387 -1.6743 -0.7151 -1.4394
   53CHL1   C16 6349   5.987   1.412   9.208  0.2402  0.0254 -0.3571
   53CHL1  H16A 6350   5.975   1.303   9.190 -0.1856  0.1921 -1.0970
   53CHL1  H16B 6351   5.907   1.465   9.151  0.4162  1.2713  0.5070
   53CHL1   C17 6352   6.122   1.480   9.159  0.4960 -0.4299  0.0840
   53CHL1   H17 6353   6.085   1.584   9.153 -2.6174 -1.4596 -0.2597
   53CHL1   C13 6354   6.205   1.465   9.291  0.4275 -0.4817  0.3669
   53CHL1   C18 6355   6.245   1.314   9.295  0.4438  0.1888  0.3468
   53CHL1  H18A 6356   6.318   1.286   9.216  1.3215 -3.2818  2.2015
   53CHL1  H18B 6357   6.292   1.290   9.392 -0.0629 -0.4015  0.4559
   53CHL1  H18C 6358   6.150   1.255   9.293 -1.2992  2.8324 -0.8738
   53CHL1   C12 6359   6.330   1.558   9.326  0.5247  0.4368  0.8356
   53CHL1  H12A 6360   6.410   1.537   9.252  0.9222  2.3817  0.6617
   53CHL1  H12B 6361   6.301   1.663   9.306 -0.4435 -0.1058 -0.8916
   53CHL1   C11 6362   6.385   1.533   9.465  0.3894 -0.4138  0.2502
   53CHL1  H11A 6363   6.429   1.432   9.476 -0.2541 -0.7674 -0.3947
   53CHL1  H11B 6364   6.466   1.609   9.473  1.2155 -1.1363 -0.9392
   53CHL1    C9 6365   6.277   1.544   9.584 -0.4155  0.5952  0.0928
   53CHL1    H9 6366   6.243   1.650   9.586 -1.8840  0.1591  1.3848
   53CHL1   C10 6367   6.325   1.505   9.732 -0.2947 -0.2090  0.9566
   53CHL1   C19 6368   6.380   1.360   9.734  0.4437 -0.4439 -0.0764
   53CHL1  H19A 6369   6.309   1.277   9.713 -0.9592  1.3279 -3.0389
   53CHL1  H19B 6370   6.466   1.334   9.667  1.2423 -0.3092  0.8747
   53CHL1  H19C 6371   6.428   1.328   9.829  0.7834 -0.4731 -0.2561
   53CHL1    C1 6372   6.450   1.596   9.766  0.1439  0.3869 -0.4308
   53CHL1   H1A 6373   6.536   1.547   9.716  1.0173  0.3793  1.0314
   53CHL1   H1B 6374   6.431   1.699   9.730 -1.4814  0.6953  1.1722
   53CHL1    C2 6375   6.482   1.606   9.913  0.3303  0.1913 -0.5868
   53CHL1   H2A 6376   6.571   1.669   9.935  0.8534 -0.3635 -1.0715
   53CHL1   H2B 6377   6.504   1.500   9.938 -0.5674 -0.0952 -0.9962
   53CHL1   C20 6378   6.168   1.420   9.030 -0.3123  0.7567 -0.7353
   53CHL1   H20 6379   6.174   1.309   9.038  1.5621  0.9112  0.5530
   53CHL1   C21 6380   6.307   1.478   8.996 -0.1064 -0.0551 -0.4985
   53CHL1  H21A 6381   6.336   1.455   8.891 -0.6967  2.8901 -1.4001
   53CHL1  H21B 6382   6.377   1.439   9.073 -1.5609  0.1804  0.9864
   53CHL1  H21C 6383   6.310   1.589   8.995  2.4182 -0.0678 -0.7405
   53CHL1   C22 6384   6.077   1.460   8.914 -0.4381  0.0218  0.0588
   53CHL1  H22A 6385   5.969   1.450   8.940 -0.0481 -0.8628  1.4118
   53CHL1  H22B 6386   6.073   1.570   8.896 -2.1234 -0.1365 -0.7473
   53CHL1   C23 6387   6.091   1.386   8.783 -0.3057  0.0120  0.0749
   53CHL1  H23A 6388   6.170   1.439   8.725 -2.3643  1.7286 -1.3084
   53CHL1  H23B 6389   6.119   1.279   8.796 -0.2342 -0.2044 -1.5882
   53CHL1   C24 6390   5.968   1.400   8.689  0.0640 -0.6463  0.2657
   53CHL1  H24A 6391   5.883   1.350   8.739 -0.4453 -1.1192 -1.0276
   53CHL1  H24B 6392   5.956   1.510   8.672 -0.4228 -0.6388  0.6288
   53CHL1   C25 6393   5.969   1.333   8.551 -0.0963 -0.8485 -0.2923
   53CHL1   H25 6394   6.062   1.381   8.515 -0.5594  2.0573  2.0801
   53CHL1   C26 6395   5.981   1.182   8.562  0.5861  0.4826  0.0722
   53CHL1  H26A 6396   5.997   1.146   8.458  0.0926  2.0649 -0.5858
   53CHL1  H26B 6397   6.066   1.148   8.625 -0.4279  1.3655  1.9767
   53CHL1  H26C 6398   5.889   1.148   8.613  0.2810 -0.3058 -0.9645
   53CHL1   C27 6399   5.857   1.374   8.466 -0.3150 -0.1276 -0.0666
   53CHL1  H27A 6400   5.853   1.483   8.444 -0.2364 -0.0998  0.0524
   53CHL1  H27B 6401   5.872   1.327   8.367  0.7921  0.9269 -0.4136
   53CHL1  H27C 6402   5.755   1.346   8.502  0.0154  0.1982  1.1677
   54CHL1    C3 6403   0.256   3.947  10.117  1.0714  0.3896 -0.8426
   54CHL1    H3 6404   0.333   3.866  10.117  0.0089 -0.6546 -1.5245
   54CHL1    O3 6405   0.238   3.971  10.253 -0.3136 -0.0005 -0.5424
   54CHL1   H3' 6406   0.191   3.894  10.285 -2.5998  0.7812 -1.7698
   54CHL1    C4 6407   0.310   4.077  10.048 -0.0864 -0.1888  0.4717
   54CHL1   H4A 6408   0.234   4.157  10.058  1.5812  1.2830  2.3328
   54CHL1   H4B 6409   0.400   4.115  10.101  1.1412 -1.9294 -0.2679
   54CHL1    C5 6410   0.345   4.047   9.900  0.7267  0.0644  0.0356
   54CHL1    C6 6411   0.466   4.071   9.857 -0.1107  0.5124  0.2178
   54CHL1    H6 6412   0.535   4.116   9.930  0.5501  1.7907 -1.1301
   54CHL1    C7 6413   0.498   4.065   9.709 -0.2744  0.5080 -0.1500
   54CHL1   H7A 6414   0.530   4.165   9.675  1.5419 -0.5188 -1.6890
   54CHL1   H7B 6415   0.584   3.994   9.702  1.7294  2.7897 -0.0476
   54CHL1    C8 6416   0.371   4.030   9.621  0.2184 -0.8263 -0.1794
   54CHL1    H8 6417   0.310   4.118   9.591 -0.9518 -1.6958 -0.4055
   54CHL1   C14 6418   0.407   3.970   9.492  0.0496 -0.9276  0.0368
   54CHL1   H14 6419   0.437   3.866   9.517 -0.0339 -1.1001 -0.5705
   54CHL1   C15 6420   0.529   4.024   9.409  0.2747  0.2980 -0.8615
   54CHL1  H15A 6421   0.529   4.135   9.410 -0.6170  0.3091  0.3562
   54CHL1  H15B 6422   0.625   3.990   9.453 -1.6642 -0.1213  3.5256
   54CHL1   C16 6423   0.507   3.970   9.263  0.0830  0.1317  0.4978
   54CHL1  H16A 6424   0.489   4.051   9.189 -0.9512 -1.0022 -0.5402
   54CHL1  H16B 6425   0.597   3.906   9.248 -1.1550 -1.2189 -1.7973
   54CHL1   C17 6426   0.378   3.888   9.266  0.5593 -0.2691 -0.1605
   54CHL1   H17 6427   0.402   3.786   9.302  0.4067  0.1067  1.0423
   54CHL1   C13 6428   0.291   3.946   9.385 -0.8686 -0.2366 -0.7793
   54CHL1   C18 6429   0.220   4.074   9.336 -0.4219 -0.8256  0.0717
   54CHL1  H18A 6430   0.159   4.047   9.248  0.3792 -0.8636 -0.4808
   54CHL1  H18B 6431   0.165   4.133   9.413  0.1904 -1.5295  1.0783
   54CHL1  H18C 6432   0.300   4.139   9.296  0.2174 -1.7958 -0.2523
   54CHL1   C12 6433   0.198   3.847   9.453  0.2105  0.5826  0.5390
   54CHL1  H12A 6434   0.112   3.827   9.386  0.3081  0.9182  0.3072
   54CHL1  H12B 6435   0.255   3.752   9.457 -0.8242 -0.2997 -2.8086
   54CHL1   C11 6436   0.146   3.899   9.594  0.0582  0.5597  0.0359
   54CHL1  H11A 6437   0.081   3.988   9.579 -0.7213 -0.1417 -0.9534
   54CHL1  H11B 6438   0.085   3.820   9.643 -0.0184  0.1512 -0.7056
   54CHL1    C9 6439   0.268   3.940   9.687 -0.0081 -0.2780  0.3142
   54CHL1    H9 6440   0.327   3.848   9.710 -0.1572 -0.2650  0.7635
   54CHL1   C10 6441   0.230   3.992   9.827  0.9323  0.0342 -0.0902
   54CHL1   C19 6442   0.125   4.111   9.794 -0.2795 -0.8730 -0.4031
   54CHL1  H19A 6443   0.172   4.181   9.721 -0.3890 -1.2111 -0.8037
   54CHL1  H19B 6444   0.027   4.072   9.761  0.3322 -1.3680 -1.7191
   54CHL1  H19C 6445   0.114   4.173   9.886 -0.2284 -0.7805 -0.4593
   54CHL1    C1 6446   0.155   3.877   9.906 -0.2291 -0.1101 -0.2984
   54CHL1   H1A 6447   0.061   3.854   9.853 -1.2489  1.8600  0.5324
   54CHL1   H1B 6448   0.222   3.789   9.902  2.1535  1.5059  1.1521
   54CHL1    C2 6449   0.132   3.910  10.053 -0.3300 -0.6021  0.4314
   54CHL1   H2A 6450   0.074   3.832  10.107  0.1396 -1.7335 -0.6454
   54CHL1   H2B 6451   0.068   4.001  10.050 -1.2324 -1.1922  1.3015
   54CHL1   C20 6452   0.307   3.870   9.128  0.0744  0.2540  0.1555
   54CHL1   H20 6453   0.264   3.959   9.076  0.4757  0.6614  0.5102
   54CHL1   C21 6454   0.199   3.760   9.149 -0.1818 -0.1737 -0.0233
   54CHL1  H21A 6455   0.103   3.810   9.173 -0.0655 -0.7635  1.7813
   54CHL1  H21B 6456   0.244   3.694   9.226 -1.7306  1.5688  2.4921
   54CHL1  H21C 6457   0.183   3.702   9.055 -0.8914  0.7093 -0.4711
   54CHL1   C22 6458   0.423   3.829   9.026 -0.5106 -0.3526  0.2993
   54CHL1  H22A 6459   0.515   3.891   9.028 -1.9195  1.8325  1.1793
   54CHL1  H22B 6460   0.448   3.722   9.041  1.4332 -0.0449 -0.4163
   54CHL1   C23 6461   0.367   3.833   8.886  0.6190 -0.9098  0.7677
   54CHL1  H23A 6462   0.269   3.781   8.882  0.4736 -0.6501  0.8890
   54CHL1  H23B 6463   0.344   3.937   8.854  1.5633 -0.7213  0.6782
   54CHL1   C24 6464   0.457   3.776   8.781 -0.7280 -0.3068 -0.6007
   54CHL1  H24A 6465   0.545   3.840   8.757 -1.6129  0.9659 -0.5663
   54CHL1  H24B 6466   0.499   3.681   8.820 -2.6167 -1.3139 -0.8810
   54CHL1   C25 6467   0.366   3.741   8.659  0.0478 -0.4918 -0.2976
   54CHL1   H25 6468   0.285   3.673   8.692  0.0273 -0.6287 -0.6241
   54CHL1   C26 6469   0.304   3.861   8.602  0.0141  0.2670 -0.0878
   54CHL1  H26A 6470   0.239   3.924   8.667  1.6127  1.0246  0.8338
   54CHL1  H26B 6471   0.375   3.938   8.566 -1.5746  0.0620 -4.1191
   54CHL1  H26C 6472   0.255   3.825   8.509  1.0751  1.5980 -1.2049
   54CHL1   C27 6473   0.457   3.670   8.560  0.1526 -0.7894  0.6906
   54CHL1  H27A 6474   0.545   3.732   8.532 -0.5537 -0.7974 -1.8011
   54CHL1  H27B 6475   0.489   3.574   8.605  0.7385  0.3490  2.8482
   54CHL1  H27C 6476   0.406   3.654   8.463 -0.3237  0.9207  0.6224
   55CHL1    C3 6477   4.549   6.582  10.213  0.1034  0.0869  0.1999
   55CHL1    H3 6478   4.451   6.529  10.207  0.1760 -0.1587  1.1607
   55CHL1    O3 6479   4.552   6.654  10.332 -0.1369 -0.1417 -0.9469
   55CHL1   H3' 6480   4.551   6.587  10.401  2.1426  0.5393 -0.1696
   55CHL1    C4 6481   4.668   6.488  10.210 -0.2752  0.0360  0.9050
   55CHL1   H4A 6482   4.752   6.560  10.223  0.5952 -1.1579  2.1449
   55CHL1   H4B 6483   4.657   6.422  10.298  2.1193 -1.5761  0.1019
   55CHL1    C5 6484   4.659   6.410  10.078  0.0991 -0.3536  0.0204
   55CHL1    C6 6485   4.659   6.275  10.078  0.1154 -0.7656 -1.0927
   55CHL1    H6 6486   4.662   6.217  10.172 -1.6207 -3.2722 -2.4794
   55CHL1    C7 6487   4.678   6.200   9.950  0.0452 -0.0404  0.1548
   55CHL1   H7A 6488   4.750   6.116   9.958 -1.4537 -1.4247 -0.3833
   55CHL1   H7B 6489   4.584   6.163   9.905  0.0864 -0.1793  0.1821
   55CHL1    C8 6490   4.726   6.291   9.829  0.3211 -0.2850 -0.9912
   55CHL1    H8 6491   4.829   6.324   9.853  0.9985 -3.8766  2.1119
   55CHL1   C14 6492   4.695   6.223   9.699  0.1050  0.1390 -0.7061
   55CHL1   H14 6493   4.585   6.211   9.693 -0.2427  2.1933  0.6022
   55CHL1   C15 6494   4.744   6.084   9.675  0.0244  0.4725  0.7496
   55CHL1  H15A 6495   4.846   6.074   9.717  0.4691  1.9217  0.0628
   55CHL1  H15B 6496   4.680   6.005   9.720  3.2145 -1.6010  2.0998
   55CHL1   C16 6497   4.749   6.061   9.520 -0.3019 -0.8885 -0.3704
   55CHL1  H16A 6498   4.852   6.036   9.488  0.0850  2.2427 -2.0761
   55CHL1  H16B 6499   4.673   5.985   9.491 -2.4588  1.3734 -1.0364
   55CHL1   C17 6500   4.704   6.193   9.465 -0.6549  0.1593 -0.5083
   55CHL1   H17 6501   4.594   6.176   9.453 -0.1534 -4.7160 -0.1136
   55CHL1   C13 6502   4.732   6.300   9.568 -0.1776  0.4414  0.7228
   55CHL1   C18 6503   4.884   6.334   9.562 -0.0634  0.2827 -0.0469
   55CHL1  H18A 6504   4.912   6.384   9.657 -2.5630  0.6888  0.5626
   55CHL1  H18B 6505   4.944   6.241   9.556  0.0867  0.3128  0.8273
   55CHL1  H18C 6506   4.906   6.401   9.477 -1.2272 -1.1670 -1.5638
   55CHL1   C12 6507   4.642   6.430   9.570 -0.3563  0.2226  0.5750
   55CHL1  H12A 6508   4.679   6.494   9.487  1.6214 -1.7857 -0.2040
   55CHL1  H12B 6509   4.534   6.408   9.557 -0.2108  0.0198 -0.3110
   55CHL1   C11 6510   4.666   6.506   9.701 -0.3932 -0.3018 -0.6030
   55CHL1  H11A 6511   4.775   6.529   9.701 -0.3164 -0.5150  1.1679
   55CHL1  H11B 6512   4.615   6.604   9.693 -0.3372 -0.1524  0.5995
   55CHL1    C9 6513   4.639   6.418   9.829 -0.3192  0.5281 -0.1423
   55CHL1    H9 6514   4.533   6.384   9.824  0.3828 -1.9639  0.6146
   55CHL1   C10 6515   4.664   6.501   9.950  0.3214 -0.2072 -0.5440
   55CHL1   C19 6516   4.798   6.575   9.941 -0.0990  0.0732  0.4642
   55CHL1  H19A 6517   4.876   6.506   9.902 -0.7592 -0.6482  0.3898
   55CHL1  H19B 6518   4.791   6.663   9.874 -0.8847  0.2789  0.8026
   55CHL1  H19C 6519   4.841   6.596  10.042  0.9047 -0.6348  0.2002
   55CHL1    C1 6520   4.550   6.599   9.958 -0.0666  0.4037 -0.2265
   55CHL1   H1A 6521   4.564   6.682   9.885  1.9592 -1.5365 -2.1779
   55CHL1   H1B 6522   4.455   6.545   9.940 -1.2155  2.1150  0.4204
   55CHL1    C2 6523   4.549   6.680  10.093  0.2619 -0.1317  0.4846
   55CHL1   H2A 6524   4.469   6.757  10.090 -0.9272 -1.3053  0.7521
   55CHL1   H2B 6525   4.641   6.741  10.100 -0.4195  1.1949 -1.3262
   55CHL1   C20 6526   4.750   6.209   9.315  0.0107  0.0399  0.2479
   55CHL1   H20 6527   4.861   6.211   9.307  0.0181  2.3368  0.2342
   55CHL1   C21 6528   4.694   6.337   9.255 -0.9045  0.2358  0.0033
   55CHL1  H21A 6529   4.754   6.428   9.272 -1.6601  0.9101 -0.8643
   55CHL1  H21B 6530   4.590   6.358   9.287 -0.6646 -3.5102  4.3693
   55CHL1  H21C 6531   4.685   6.330   9.144  1.9965  2.4488 -0.4824
   55CHL1   C22 6532   4.712   6.083   9.227  0.3446 -0.1992 -0.5180
   55CHL1  H22A 6533   4.772   6.001   9.270 -0.6871 -0.5615  0.2788
   55CHL1  H22B 6534   4.602   6.071   9.238  0.5580 -0.2972  2.0463
   55CHL1   C23 6535   4.744   6.076   9.075 -0.3612 -0.4332 -0.0829
   55CHL1  H23A 6536   4.729   5.970   9.046  2.0756 -0.7416 -0.4063
   55CHL1  H23B 6537   4.670   6.141   9.025 -1.0194  2.0779  3.7198
   55CHL1   C24 6538   4.894   6.105   9.054 -0.8080  0.6582  0.6426
   55CHL1  H24A 6539   4.920   6.211   9.071 -1.2045  1.1402 -1.5051
   55CHL1  H24B 6540   4.950   6.038   9.123 -0.6174  1.1988  1.0219
   55CHL1   C25 6541   4.952   6.076   8.912 -0.4013 -0.2567  0.2771
   55CHL1   H25 6542   4.897   5.984   8.884 -0.6350 -0.7686  2.2504
   55CHL1   C26 6543   4.890   6.184   8.819  0.1335 -0.3422 -0.9880
   55CHL1  H26A 6544   4.913   6.286   8.858 -0.5631 -0.1749 -1.0118
   55CHL1  H26B 6545   4.919   6.176   8.711  3.0505 -2.3793 -0.1962
   55CHL1  H26C 6546   4.780   6.178   8.827 -0.0323  0.3050 -2.4702
   55CHL1   C27 6547   5.107   6.079   8.897 -0.9228 -0.1587 -0.3843
   55CHL1  H27A 6548   5.148   6.180   8.919  0.1035 -0.2457 -1.7423
   55CHL1  H27B 6549   5.145   6.006   8.971 -0.0648 -0.3475 -0.9933
   55CHL1  H27C 6550   5.135   6.043   8.795 -0.3024 -0.6262 -0.0514
   56CHL1    C3 6551   5.475   3.762  10.018 -0.4080  0.9689  0.3905
   56CHL1    H3 6552   5.466   3.871   9.996  1.3168  0.7296 -1.9551
   56CHL1    O3 6553   5.480   3.732  10.157  0.1417 -0.1881 -0.0211
   56CHL1   H3' 6554   5.546   3.662  10.159  0.4192  0.0299 -0.9390
   56CHL1    C4 6555   5.352   3.688   9.957 -0.3521 -0.2363 -0.1554
   56CHL1   H4A 6556   5.348   3.587  10.004 -0.9197 -0.6325 -1.0213
   56CHL1   H4B 6557   5.259   3.746   9.980  0.5338  0.6051  1.4802
   56CHL1    C5 6558   5.369   3.679   9.805  0.6041  0.2099  0.1231
   56CHL1    C6 6559   5.263   3.719   9.725 -0.2319 -0.8467 -0.2170
   56CHL1    H6 6560   5.174   3.756   9.778  1.6291  0.4948  2.1948
   56CHL1    C7 6561   5.275   3.726   9.580  0.0427  0.3907 -0.2215
   56CHL1   H7A 6562   5.187   3.692   9.522  0.3750  2.0360 -1.7634
   56CHL1   H7B 6563   5.302   3.830   9.550  0.5434  0.6707  1.1228
   56CHL1    C8 6564   5.397   3.645   9.525  0.6643 -0.3980  1.0572
   56CHL1    H8 6565   5.368   3.537   9.520  1.0519 -0.4960  0.8508
   56CHL1   C14 6566   5.432   3.687   9.380 -0.3811 -0.5420  0.8508
   56CHL1   H14 6567   5.472   3.790   9.380  1.1097 -1.0959  0.4945
   56CHL1   C15 6568   5.315   3.690   9.277 -0.0913  0.4210 -0.2569
   56CHL1  H15A 6569   5.265   3.591   9.291  1.3793 -0.0083  2.9662
   56CHL1  H15B 6570   5.247   3.771   9.311  1.2671  0.8296  1.6852
   56CHL1   C16 6571   5.390   3.707   9.144 -0.5192  0.2838 -0.7234
   56CHL1  H16A 6572   5.343   3.645   9.065 -0.7749  0.5186 -0.7585
   56CHL1  H16B 6573   5.380   3.813   9.110 -1.8843 -0.4672 -2.8646
   56CHL1   C17 6574   5.544   3.673   9.161  0.5071  0.0180 -0.8545
   56CHL1   H17 6575   5.598   3.767   9.186 -0.2574  0.5158 -1.0520
   56CHL1   C13 6576   5.546   3.613   9.306 -0.8624 -0.4052  0.2557
   56CHL1   C18 6577   5.513   3.460   9.297  0.1103 -0.1745 -0.1953
   56CHL1  H18A 6578   5.509   3.403   9.392 -0.6396 -0.8519 -0.6173
   56CHL1  H18B 6579   5.418   3.445   9.242 -0.3801  1.6536  0.0988
   56CHL1  H18C 6580   5.590   3.407   9.236 -1.1187 -1.3269 -0.7899
   56CHL1   C12 6581   5.672   3.644   9.391 -0.8370  0.2868  0.2021
   56CHL1  H12A 6582   5.759   3.585   9.355 -1.1333  0.2639 -0.5056
   56CHL1  H12B 6583   5.709   3.748   9.384  1.0888 -0.4523 -1.8726
   56CHL1   C11 6584   5.644   3.598   9.536  0.6966 -0.8629 -0.5136
   56CHL1  H11A 6585   5.636   3.487   9.532 -2.3991 -0.7135 -0.8973
   56CHL1  H11B 6586   5.740   3.618   9.588  1.0803  0.7676 -1.7497
   56CHL1    C9 6587   5.523   3.667   9.603  0.6786 -0.4222  0.6225
   56CHL1    H9 6588   5.553   3.773   9.587  0.5237 -0.3097  1.0632
   56CHL1   C10 6589   5.505   3.637   9.747 -0.5263 -0.1529 -0.0171
   56CHL1   C19 6590   5.525   3.486   9.768  0.1912  0.2737 -0.0313
   56CHL1  H19A 6591   5.518   3.457   9.875  0.3745  2.0089  0.4940
   56CHL1  H19B 6592   5.454   3.428   9.704  0.2723  0.8120 -0.6216
   56CHL1  H19C 6593   5.631   3.470   9.743  0.0134  0.1140 -0.6927
   56CHL1    C1 6594   5.619   3.719   9.810 -0.0467  0.0441 -0.0489
   56CHL1   H1A 6595   5.723   3.694   9.778  0.3453 -1.7109  2.3394
   56CHL1   H1B 6596   5.609   3.827   9.783  3.2738  0.1122 -1.4586
   56CHL1    C2 6597   5.611   3.714   9.959 -0.0044  1.0156 -0.5165
   56CHL1   H2A 6598   5.696   3.770  10.003  1.8853 -1.1077 -1.3212
   56CHL1   H2B 6599   5.635   3.611   9.992 -0.6152  1.0811  0.1549
   56CHL1   C20 6600   5.608   3.608   9.036  0.0275  0.1789  0.1825
   56CHL1   H20 6601   5.560   3.510   9.016  0.0690  0.2708 -0.3855
   56CHL1   C21 6602   5.754   3.574   9.078  0.4458 -0.8861  0.2228
   56CHL1  H21A 6603   5.745   3.507   9.166 -0.2342  2.4858  2.9521
   56CHL1  H21B 6604   5.801   3.666   9.118 -3.3131  0.6527  1.5606
   56CHL1  H21C 6605   5.812   3.525   8.997  1.3660 -1.1671  1.0322
   56CHL1   C22 6606   5.607   3.702   8.915 -0.2843  0.2877  0.1710
   56CHL1  H22A 6607   5.511   3.757   8.921 -0.1368  0.7168 -1.1296
   56CHL1  H22B 6608   5.680   3.785   8.918 -0.1405  0.1448  1.9007
   56CHL1   C23 6609   5.605   3.617   8.786 -1.1560 -0.2058  0.2592
   56CHL1  H23A 6610   5.707   3.573   8.785 -0.7977  0.5833  0.9520
   56CHL1  H23B 6611   5.530   3.535   8.794 -3.1789  1.6967  2.2465
   56CHL1   C24 6612   5.565   3.695   8.667  0.0106 -0.1457  0.1384
   56CHL1  H24A 6613   5.473   3.755   8.685 -0.3893 -0.4257 -0.9254
   56CHL1  H24B 6614   5.647   3.766   8.645  0.7201 -0.5445  1.3629
   56CHL1   C25 6615   5.512   3.603   8.554 -0.8982  0.6424  0.1603
   56CHL1   H25 6616   5.435   3.540   8.604 -1.6822  2.2487  1.0534
   56CHL1   C26 6617   5.443   3.678   8.449  0.1127 -0.2142  0.3705
   56CHL1  H26A 6618   5.355   3.728   8.494 -0.4966 -0.1959 -0.7954
   56CHL1  H26B 6619   5.508   3.755   8.402 -0.6985 -0.4329 -1.1993
   56CHL1  H26C 6620   5.417   3.609   8.365  0.3890 -1.7539  1.5051
   56CHL1   C27 6621   5.620   3.514   8.490  0.5229 -0.4723  0.8341
   56CHL1  H27A 6622   5.577   3.441   8.419 -0.7707 -1.2752  2.3879
   56CHL1  H27B 6623   5.693   3.577   8.435  0.0950 -0.8831 -0.2089
   56CHL1  H27C 6624   5.683   3.467   8.570 -2.5531 -0.9402  3.1874
   57CHL1    C3 6625   0.407   1.101  10.185 -0.8194 -0.3199  0.3459
   57CHL1    H3 6626   0.517   1.104  10.170 -1.0863 -0.1362 -2.0393
   57CHL1    O3 6627   0.364   1.111  10.320 -0.6774 -0.3221  0.6825
   57CHL1   H3' 6628   0.314   1.030  10.335 -0.8597 -0.2049  0.7174
   57CHL1    C4 6629   0.343   1.210  10.099 -0.1041  0.2099 -0.9230
   57CHL1   H4A 6630   0.234   1.204  10.122 -0.0094 -0.7740 -0.7025
   57CHL1   H4B 6631   0.388   1.301  10.145 -0.4843 -0.7853  1.5310
   57CHL1    C5 6632   0.360   1.200   9.951  0.5936  0.4690  0.6938
   57CHL1    C6 6633   0.413   1.295   9.877  0.2916 -0.4078 -0.5342
   57CHL1    H6 6634   0.440   1.394   9.916 -1.9418  0.1084 -0.2055
   57CHL1    C7 6635   0.405   1.284   9.728  0.1078 -0.0614 -0.2884
   57CHL1   H7A 6636   0.360   1.374   9.681 -0.7043 -0.8098 -0.9683
   57CHL1   H7B 6637   0.507   1.262   9.691  0.4175 -1.2656  1.1681
   57CHL1    C8 6638   0.337   1.159   9.664 -0.1107 -0.5559 -0.6235
   57CHL1    H8 6639   0.228   1.178   9.656 -0.7416 -3.4452  0.2161
   57CHL1   C14 6640   0.382   1.138   9.524 -0.0916  0.6876 -0.2929
   57CHL1   H14 6641   0.488   1.107   9.530 -0.6164 -1.0180  0.9766
   57CHL1   C15 6642   0.377   1.257   9.430  0.9843  0.8308  0.1821
   57CHL1  H15A 6643   0.286   1.315   9.455  1.6049  0.6751  3.0663
   57CHL1  H15B 6644   0.458   1.332   9.442  0.4014  1.7585 -1.3727
   57CHL1   C16 6645   0.381   1.201   9.287  0.0451 -0.0989  0.4004
   57CHL1  H16A 6646   0.291   1.224   9.226  1.0482 -1.7456 -1.8523
   57CHL1  H16B 6647   0.470   1.244   9.236  0.2491  1.9569  2.3458
   57CHL1   C17 6648   0.390   1.040   9.307 -0.9216 -0.5222 -0.1325
   57CHL1   H17 6649   0.499   1.022   9.316 -0.7927  1.1918  3.4548
   57CHL1   C13 6650   0.329   1.019   9.443  0.0203 -0.4743  0.0806
   57CHL1   C18 6651   0.175   1.030   9.432  0.0582  0.1627  0.2670
   57CHL1  H18A 6652   0.141   1.102   9.355 -1.9211 -0.6611  0.3103
   57CHL1  H18B 6653   0.128   0.935   9.398  0.0326 -0.0393  0.8496
   57CHL1  H18C 6654   0.125   1.051   9.529 -2.1513  2.7297 -1.3006
   57CHL1   C12 6655   0.362   0.894   9.527  0.9582 -0.0456 -0.2487
   57CHL1  H12A 6656   0.307   0.810   9.480 -0.0145  0.3299  0.1846
   57CHL1  H12B 6657   0.470   0.875   9.508  0.6874  1.1677 -3.7527
   57CHL1   C11 6658   0.324   0.906   9.677  0.3483 -0.4202 -0.6743
   57CHL1  H11A 6659   0.213   0.896   9.680  0.4775 -1.8070  1.4959
   57CHL1  H11B 6660   0.360   0.817   9.734  0.6388  0.6109  0.7923
   57CHL1    C9 6661   0.373   1.038   9.752 -0.3247 -0.2115  1.1846
   57CHL1    H9 6662   0.484   1.030   9.761 -0.0217 -0.0067 -1.5040
   57CHL1   C10 6663   0.322   1.060   9.896  0.1509  0.2533  0.2513
   57CHL1   C19 6664   0.172   1.045   9.902  0.3244 -0.3281  0.7197
   57CHL1  H19A 6665   0.124   1.113   9.828 -0.4724 -0.0148  1.5072
   57CHL1  H19B 6666   0.137   0.941   9.886  0.1096  0.1176 -2.1707
   57CHL1  H19C 6667   0.134   1.074  10.002  0.2969  2.0173  0.0883
   57CHL1    C1 6668   0.379   0.946   9.990  0.4858 -0.5727  0.4277
   57CHL1   H1A 6669   0.352   0.846   9.949 -1.0209 -0.1128  0.2549
   57CHL1   H1B 6670   0.488   0.952   9.970  0.9053 -1.0687  2.3604
   57CHL1    C2 6671   0.366   0.964  10.137  0.1666 -0.4684 -0.3464
   57CHL1   H2A 6672   0.430   0.893  10.194 -0.8981 -0.2707  1.1518
   57CHL1   H2B 6673   0.264   0.936  10.173 -0.2118 -0.1332 -1.1365
   57CHL1   C20 6674   0.342   0.951   9.188  0.3880 -0.0856 -0.5486
   57CHL1   H20 6675   0.233   0.933   9.183  0.0429  1.8128 -0.5122
   57CHL1   C21 6676   0.384   0.804   9.205 -0.0928  0.7179  0.9301
   57CHL1  H21A 6677   0.323   0.750   9.280  1.1258  1.8251  2.8272
   57CHL1  H21B 6678   0.493   0.819   9.222  0.0654  1.6782 -0.7711
   57CHL1  H21C 6679   0.375   0.746   9.111 -0.5039  0.3928  1.1711
   57CHL1   C22 6680   0.364   1.022   9.052 -0.6606  0.8582 -0.0762
   57CHL1  H22A 6681   0.284   1.099   9.048 -1.3065  0.1772 -0.6038
   57CHL1  H22B 6682   0.458   1.078   9.034 -0.7519  0.1104 -3.8164
   57CHL1   C23 6683   0.332   0.926   8.942  0.5372 -0.1563  0.4667
   57CHL1  H23A 6684   0.421   0.860   8.938  2.2062  2.0178 -0.7163
   57CHL1  H23B 6685   0.247   0.858   8.964  0.1332  0.6434  1.4348
   57CHL1   C24 6686   0.302   1.002   8.818 -0.7058 -0.3303  0.5012
   57CHL1  H24A 6687   0.217   1.071   8.838 -0.8662 -0.5468  0.5706
   57CHL1  H24B 6688   0.388   1.071   8.800 -0.1654 -0.6261  1.9043
   57CHL1   C25 6689   0.264   0.931   8.680  0.0403 -0.4225  0.2947
   57CHL1   H25 6690   0.262   1.009   8.600  0.7763 -0.6397  0.0628
   57CHL1   C26 6691   0.360   0.817   8.633 -0.1134 -0.3765 -1.0142
   57CHL1  H26A 6692   0.456   0.861   8.667 -3.2322  3.5627  4.2388
   57CHL1  H26B 6693   0.341   0.721   8.688 -0.3898  0.3879  0.2687
   57CHL1  H26C 6694   0.345   0.801   8.525  3.8519  1.3086 -1.9965
   57CHL1   C27 6695   0.117   0.885   8.683  0.0560 -0.8234 -0.1971
   57CHL1  H27A 6696   0.098   0.823   8.593 -3.0442 -1.0359  0.4911
   57CHL1  H27B 6697   0.104   0.811   8.764  0.4365  0.0250  0.6506
   57CHL1  H27C 6698   0.046   0.971   8.690  0.7397 -0.1365 -1.2781
   58CHL1    C3 6699   3.074   1.045  10.135  0.3462 -0.0715  0.0984
   58CHL1    H3 6700   3.069   1.149  10.098 -0.7025 -0.0875  0.1716
   58CHL1    O3 6701   3.041   1.030  10.269  0.3839 -0.2951  0.0017
   58CHL1   H3' 6702   3.064   0.938  10.287  1.9296  0.0812  0.1143
   58CHL1    C4 6703   2.979   0.957  10.054 -0.4156  0.8547  0.4022
   58CHL1   H4A 6704   2.977   0.856  10.099 -1.9217  0.2481 -0.9516
   58CHL1   H4B 6705   2.881   1.003  10.078 -1.1570 -0.5338  0.0970
   58CHL1    C5 6706   3.014   0.942   9.912 -0.4295 -0.0922  0.1724
   58CHL1    C6 6707   2.935   0.981   9.815  0.1682  0.0145  1.1237
   58CHL1    H6 6708   2.838   1.029   9.836 -1.6848 -2.3218 -1.4451
   58CHL1    C7 6709   2.975   0.964   9.667  0.0173  0.3058 -1.2136
   58CHL1   H7A 6710   2.888   0.918   9.614 -0.4591 -0.6853  0.3672
   58CHL1   H7B 6711   2.997   1.065   9.626  0.2206  1.4230  1.4437
   58CHL1    C8 6712   3.098   0.867   9.634  0.5846 -0.5325 -0.5148
   58CHL1    H8 6713   3.065   0.763   9.656  0.1929 -1.0258 -3.0596
   58CHL1   C14 6714   3.137   0.871   9.492  0.2033  0.4671 -1.2347
   58CHL1   H14 6715   3.162   0.977   9.471 -1.4920  1.5275  1.5152
   58CHL1   C15 6716   3.034   0.828   9.389  0.3484 -0.3713 -0.6626
   58CHL1  H15A 6717   2.985   0.732   9.414 -0.3831  0.2661  0.4179
   58CHL1  H15B 6718   2.956   0.907   9.382  1.2448  0.9229  2.4505
   58CHL1   C16 6719   3.116   0.815   9.261  1.1028  0.0691  0.2842
   58CHL1  H16A 6720   3.095   0.714   9.219 -0.2525  0.4487 -0.0216
   58CHL1  H16B 6721   3.077   0.881   9.180 -1.1385 -1.7773 -0.2723
   58CHL1   C17 6722   3.269   0.821   9.294  0.2328  0.5833 -0.4369
   58CHL1   H17 6723   3.291   0.929   9.282 -2.7272  1.7072  2.5562
   58CHL1   C13 6724   3.266   0.800   9.450 -0.4151  0.9453 -0.3666
   58CHL1   C18 6725   3.252   0.643   9.466  0.3284 -0.6096 -0.9205
   58CHL1  H18A 6726   3.343   0.583   9.442  1.6676  0.9957 -0.1303
   58CHL1  H18B 6727   3.242   0.623   9.575 -0.5410 -0.2918 -0.9342
   58CHL1  H18C 6728   3.163   0.602   9.414  0.6264 -1.5741 -0.6939
   58CHL1   C12 6729   3.382   0.857   9.539  0.2441  0.4405  0.0502
   58CHL1  H12A 6730   3.477   0.802   9.520  0.3804 -0.1228  2.1086
   58CHL1  H12B 6731   3.397   0.966   9.521 -2.1041  0.4636 -2.2850
   58CHL1   C11 6732   3.350   0.842   9.690  0.5264  0.2428  0.0870
   58CHL1  H11A 6733   3.345   0.734   9.712  1.1750  0.5560  1.9785
   58CHL1  H11B 6734   3.435   0.885   9.748  0.9703 -1.2578  0.5785
   58CHL1    C9 6735   3.210   0.902   9.732  0.2452 -0.4912  0.4277
   58CHL1    H9 6736   3.219   1.012   9.718 -1.3016 -0.5264 -1.2019
   58CHL1   C10 6737   3.157   0.888   9.883  0.5274  0.5792 -0.0384
   58CHL1   C19 6738   3.164   0.736   9.916 -0.0931  0.5808 -0.2259
   58CHL1  H19A 6739   3.096   0.676   9.852 -0.0682 -0.0938  0.3638
   58CHL1  H19B 6740   3.269   0.704   9.899  0.0750 -1.0598  3.0380
   58CHL1  H19C 6741   3.147   0.715  10.024  1.8416  2.2051  0.4364
   58CHL1    C1 6742   3.258   0.967   9.966 -0.5390  0.4809  0.1204
   58CHL1   H1A 6743   3.349   0.904   9.956 -0.2462  1.0913 -1.3138
   58CHL1   H1B 6744   3.287   1.064   9.919  1.0913  0.4897  1.0572
   58CHL1    C2 6745   3.217   0.990  10.111 -0.1479  0.0927 -0.0522
   58CHL1   H2A 6746   3.299   1.053  10.152  0.0658  0.5060 -1.0936
   58CHL1   H2B 6747   3.207   0.891  10.160  0.7709  0.1596  0.2969
   58CHL1   C20 6748   3.350   0.734   9.202  0.6874  0.4282  0.6560
   58CHL1   H20 6749   3.310   0.632   9.219 -2.0461  1.4399  0.6848
   58CHL1   C21 6750   3.503   0.752   9.228  0.1278  0.1392 -0.1988
   58CHL1  H21A 6751   3.517   0.708   9.329  0.8286 -2.0613 -1.1976
   58CHL1  H21B 6752   3.518   0.862   9.234 -3.0827  0.5952  1.9998
   58CHL1  H21C 6753   3.580   0.709   9.161  0.1602  0.0610 -0.1130
   58CHL1   C22 6754   3.324   0.758   9.052 -0.2960 -0.8635  0.6755
   58CHL1  H22A 6755   3.218   0.771   9.019 -0.0653  1.7879  0.8170
   58CHL1  H22B 6756   3.372   0.853   9.020  1.1370 -1.0664  2.0932
   58CHL1   C23 6757   3.388   0.647   8.966 -0.3023  0.0202  0.1872
   58CHL1  H23A 6758   3.479   0.605   9.013 -0.1708 -1.2315 -1.1094
   58CHL1  H23B 6759   3.307   0.571   8.970  2.0647 -2.8009 -1.4204
   58CHL1   C24 6760   3.398   0.695   8.823  0.2053 -0.5011 -0.3687
   58CHL1  H24A 6761   3.304   0.747   8.793  0.4211 -0.4088 -0.8885
   58CHL1  H24B 6762   3.485   0.764   8.821 -0.0602  0.0971  2.7946
   58CHL1   C25 6763   3.441   0.586   8.728 -0.0991  0.9730  0.1933
   58CHL1   H25 6764   3.370   0.501   8.728 -0.0425  0.8078 -2.5970
   58CHL1   C26 6765   3.448   0.641   8.584 -0.1301  0.1085 -0.4240
   58CHL1  H26A 6766   3.523   0.723   8.574  0.3820 -0.4409 -1.2025
   58CHL1  H26B 6767   3.470   0.552   8.521  3.1315  0.1206  0.4900
   58CHL1  H26C 6768   3.347   0.680   8.562 -0.1723  1.1309  1.3485
   58CHL1   C27 6769   3.585   0.539   8.770  0.0493 -0.3125 -0.0539
   58CHL1  H27A 6770   3.590   0.503   8.876 -0.0873  1.3409  0.5409
   58CHL1  H27B 6771   3.606   0.445   8.715 -2.9584 -1.1666  0.0900
   58CHL1  H27C 6772   3.665   0.615   8.757 -1.0997  0.7735 -0.9087
   59CHL1    C3 6773   2.393   5.103  10.226  0.6422  0.5711  0.1305
   59CHL1    H3 6774   2.417   4.996  10.209 -1.4453 -0.2233  1.7911
   59CHL1    O3 6775   2.412   5.135  10.362  0.0965 -0.5561  0.4081
   59CHL1   H3' 6776   2.413   5.231  10.373 -1.8414 -0.3586 -0.6619
   59CHL1    C4 6777   2.474   5.193  10.133 -0.1149  0.3056  0.0897
   59CHL1   H4A 6778   2.465   5.303  10.146  0.6429  0.5188 -1.0003
   59CHL1   H4B 6779   2.584   5.185  10.150 -0.4735  0.2516  2.8561
   59CHL1    C5 6780   2.446   5.160   9.985 -0.9687  0.3431  0.7827
   59CHL1    C6 6781   2.550   5.122   9.904 -0.4249  0.5091 -0.3970
   59CHL1    H6 6782   2.654   5.117   9.940 -0.2981  0.0951 -0.8147
   59CHL1    C7 6783   2.533   5.082   9.762  0.2233  0.5285 -0.2498
   59CHL1   H7A 6784   2.618   5.122   9.702  0.0122  0.1727 -0.7894
   59CHL1   H7B 6785   2.538   4.972   9.752  1.9990  0.4651  0.9338
   59CHL1    C8 6786   2.390   5.121   9.711 -0.2756 -0.4063 -0.3040
   59CHL1    H8 6787   2.386   5.231   9.704 -0.5677 -0.4012 -0.0839
   59CHL1   C14 6788   2.375   5.049   9.578 -0.1483  0.0321 -0.2822
   59CHL1   H14 6789   2.388   4.940   9.595 -2.4908 -0.2997 -0.4025
   59CHL1   C15 6790   2.476   5.085   9.478 -0.3738 -0.2376  0.6352
   59CHL1  H15A 6791   2.504   5.192   9.481  0.6687 -0.5152  1.0731
   59CHL1  H15B 6792   2.561   5.017   9.499 -1.4402 -1.3785  1.4286
   59CHL1   C16 6793   2.414   5.028   9.342 -0.0065  0.8126  0.9583
   59CHL1  H16A 6794   2.427   5.107   9.265 -0.2019  0.1329  0.2170
   59CHL1  H16B 6795   2.458   4.930   9.313  3.8629  2.2863  1.2882
   59CHL1   C17 6796   2.262   5.000   9.373 -0.3699 -0.3269 -0.0049
   59CHL1   H17 6797   2.260   4.893   9.402 -2.2412  0.0001  1.2953
   59CHL1   C13 6798   2.237   5.063   9.510 -0.3365 -0.2522 -0.9328
   59CHL1   C18 6799   2.201   5.208   9.492  0.2006 -0.3441 -0.5703
   59CHL1  H18A 6800   2.187   5.267   9.585  2.8434  1.1945 -1.0633
   59CHL1  H18B 6801   2.280   5.253   9.429  2.7506 -0.8071  2.0818
   59CHL1  H18C 6802   2.104   5.203   9.437 -1.0499  1.8714  1.2340
   59CHL1   C12 6803   2.136   4.999   9.613  0.4421  0.3793  0.3418
   59CHL1  H12A 6804   2.031   5.017   9.583  0.6927 -0.2676 -1.0051
   59CHL1  H12B 6805   2.152   4.889   9.617  0.6411  0.3760 -0.4361
   59CHL1   C11 6806   2.139   5.054   9.755 -0.1692 -0.0923 -0.4619
   59CHL1  H11A 6807   2.096   5.157   9.761  1.0810  0.3913  0.7360
   59CHL1  H11B 6808   2.077   4.991   9.822  0.2969  1.9627  2.0937
   59CHL1    C9 6809   2.284   5.072   9.815  0.2224  0.0844 -0.6099
   59CHL1    H9 6810   2.316   4.967   9.836 -0.2985  0.0505  0.0659
   59CHL1   C10 6811   2.293   5.153   9.948 -0.0712 -0.3864 -0.5652
   59CHL1   C19 6812   2.241   5.300   9.931 -0.7141  0.4069 -0.7420
   59CHL1  H19A 6813   2.307   5.355   9.859  5.1458 -1.9771  2.1156
   59CHL1  H19B 6814   2.131   5.301   9.917 -0.9767 -0.9384  0.8985
   59CHL1  H19C 6815   2.252   5.358  10.025 -0.5794  1.2612 -1.2710
   59CHL1    C1 6816   2.210   5.081  10.057 -0.0259  0.0053 -0.4304
   59CHL1   H1A 6817   2.102   5.098  10.038 -0.0463 -0.2373 -0.5415
   59CHL1   H1B 6818   2.224   4.970  10.054 -0.6165 -0.0574 -2.1892
   59CHL1    C2 6819   2.244   5.126  10.196  0.7541  0.4529 -0.3057
   59CHL1   H2A 6820   2.177   5.072  10.266 -0.4381  2.3572  0.0656
   59CHL1   H2B 6821   2.229   5.235  10.203 -1.4358  0.5076 -3.5712
   59CHL1   C20 6822   2.164   5.002   9.253 -0.5193 -0.5266 -0.4308
   59CHL1   H20 6823   2.144   5.108   9.227  1.1440  0.0511  0.4385
   59CHL1   C21 6824   2.030   4.943   9.292 -0.0230  0.2485  0.4194
   59CHL1  H21A 6825   1.978   4.992   9.377  0.8082  0.8058  0.6176
   59CHL1  H21B 6826   2.056   4.836   9.312  0.8318  0.6688  1.6976
   59CHL1  H21C 6827   1.962   4.955   9.206 -0.0119 -0.0395  0.3700
   59CHL1   C22 6828   2.211   4.926   9.128  0.6241  0.7795 -0.2000
   59CHL1  H22A 6829   2.273   4.839   9.159  0.1662  0.4610 -0.1514
   59CHL1  H22B 6830   2.123   4.885   9.073 -0.4807  0.5404  1.6388
   59CHL1   C23 6831   2.281   5.019   9.021 -0.3284 -0.4854  0.7876
   59CHL1  H23A 6832   2.216   5.108   9.008  2.4136  1.5482  0.1125
   59CHL1  H23B 6833   2.380   5.050   9.061  0.5493 -1.1115 -0.8139
   59CHL1   C24 6834   2.295   4.933   8.893 -0.0475 -0.2300  0.6554
   59CHL1  H24A 6835   2.353   4.840   8.912  0.4934  0.3576  1.9084
   59CHL1  H24B 6836   2.194   4.898   8.860  0.1233  0.2833 -0.4752
   59CHL1   C25 6837   2.355   5.008   8.768  0.0398  0.1918 -0.1731
   59CHL1   H25 6838   2.291   5.092   8.733  0.6074 -0.2643 -2.5026
   59CHL1   C26 6839   2.491   5.067   8.797 -0.5831 -0.2235  0.2624
   59CHL1  H26A 6840   2.491   5.161   8.856 -2.1630  0.8016 -1.2572
   59CHL1  H26B 6841   2.544   4.993   8.860  1.2593  0.4713 -0.3872
   59CHL1  H26C 6842   2.540   5.091   8.700  0.1502  0.8966  0.8850
   59CHL1   C27 6843   2.372   4.901   8.655 -0.1825 -0.8482 -0.2354
   59CHL1  H27A 6844   2.404   4.950   8.561  0.1783  1.1667  0.8771
   59CHL1  H27B 6845   2.456   4.836   8.687  0.4345  0.4106  0.8286
   59CHL1  H27C 6846   2.277   4.847   8.635 -2.0003  1.1433  2.3174
   60CHL1    C3 6847   1.838   6.130  10.273  0.3042  0.3121  0.2694
   60CHL1    H3 6848   1.774   6.215  10.240  2.9023  2.6907  1.0180
   60CHL1    O3 6849   1.821   6.122  10.414  0.0867 -0.1193  0.7325
   60CHL1   H3' 6850   1.742   6.070  10.429 -0.4161  0.2845 -0.3691
   60CHL1    C4 6851   1.797   5.997  10.200 -0.1086 -0.4016 -1.0527
   60CHL1   H4A 6852   1.873   5.928  10.244  1.1258  1.9026  0.6753
   60CHL1   H4B 6853   1.696   5.964  10.232  0.0811 -1.4726 -1.5230
   60CHL1    C5 6854   1.823   6.011  10.055  0.0531 -0.6877  0.3836
   60CHL1    C6 6855   1.721   6.002   9.969  0.4832 -0.9675  0.0649
   60CHL1    H6 6856   1.622   5.984  10.013 -1.1616  4.9569 -0.4825
   60CHL1    C7 6857   1.738   6.014   9.821  0.5716 -0.0446 -0.1573
   60CHL1   H7A 6858   1.694   5.929   9.765  1.5983 -2.3362  2.2791
   60CHL1   H7B 6859   1.705   6.113   9.784  0.3144  0.3396  1.0357
   60CHL1    C8 6860   1.885   6.019   9.777 -0.0402  0.0944  0.5217
   60CHL1    H8 6861   1.908   5.912   9.758 -2.2404 -0.3957  0.3429
   60CHL1   C14 6862   1.895   6.070   9.633  0.2575 -0.1443  0.0810
   60CHL1   H14 6863   1.864   6.176   9.644  5.7635  1.9671 -1.1473
   60CHL1   C15 6864   1.813   6.010   9.513 -0.5261  0.5194  0.6070
   60CHL1  H15A 6865   1.806   5.902   9.540 -2.9838 -0.2339 -2.4692
   60CHL1  H15B 6866   1.710   6.050   9.514 -1.8169 -2.5135 -0.0971
   60CHL1   C16 6867   1.894   6.044   9.384 -0.2544 -0.2659 -0.1525
   60CHL1  H16A 6868   1.916   5.944   9.342 -0.3340 -0.3671  0.0442
   60CHL1  H16B 6869   1.833   6.102   9.312  0.2806 -0.4340 -0.7483
   60CHL1   C17 6870   2.019   6.123   9.435 -0.4384 -0.6852 -0.3652
   60CHL1   H17 6871   1.987   6.227   9.455 -0.7478 -0.6725 -0.9138
   60CHL1   C13 6872   2.037   6.077   9.579 -1.4708  0.6876  0.5171
   60CHL1   C18 6873   2.100   5.930   9.572  0.6795  0.0953  0.0739
   60CHL1  H18A 6874   2.051   5.871   9.491  0.5969  0.2999 -0.0231
   60CHL1  H18B 6875   2.209   5.927   9.546  0.8218  1.5325  0.4495
   60CHL1  H18C 6876   2.081   5.883   9.671 -1.4569 -1.0226 -0.7942
   60CHL1   C12 6877   2.126   6.170   9.659 -0.2593  0.4228 -1.3898
   60CHL1  H12A 6878   2.233   6.163   9.630  0.6349 -0.8062  1.7631
   60CHL1  H12B 6879   2.098   6.275   9.640 -0.8635  0.9634  1.8242
   60CHL1   C11 6880   2.121   6.133   9.815  0.0835 -0.1433 -0.2573
   60CHL1  H11A 6881   2.179   6.039   9.815 -1.0476 -0.8626 -0.6894
   60CHL1  H11B 6882   2.166   6.220   9.868 -2.7221  1.1953  0.1335
   60CHL1    C9 6883   1.973   6.106   9.875 -0.2733  0.2835  0.3526
   60CHL1    H9 6884   1.925   6.205   9.865  2.1302  1.3305 -1.8416
   60CHL1   C10 6885   1.968   6.059  10.019 -0.5783  0.3398  0.0427
   60CHL1   C19 6886   2.080   5.950  10.040  0.8137 -0.0654  0.4484
   60CHL1  H19A 6887   2.182   5.992  10.058  0.0498  0.5733  4.1622
   60CHL1  H19B 6888   2.059   5.889  10.130  2.3456  0.3402  1.1213
   60CHL1  H19C 6889   2.078   5.880   9.954  0.8385 -1.1945  1.3399
   60CHL1    C1 6890   2.016   6.180  10.112 -0.4903  0.3085  0.8108
   60CHL1   H1A 6891   2.127   6.192  10.110 -0.5787  1.2247  0.8176
   60CHL1   H1B 6892   1.973   6.276  10.075 -2.9491 -0.9903  0.1100
   60CHL1    C2 6893   1.982   6.167  10.251  0.3624  0.5587 -0.4700
   60CHL1   H2A 6894   2.011   6.251  10.318  1.2962  0.5480 -0.8481
   60CHL1   H2B 6895   2.034   6.075  10.285 -0.3552  0.2556 -0.1616
   60CHL1   C20 6896   2.138   6.132   9.338  0.6948  0.6027 -0.5366
   60CHL1   H20 6897   2.228   6.159   9.397  0.3776 -2.5143  1.6080
   60CHL1   C21 6898   2.094   6.248   9.242 -0.2879 -0.3719 -0.9273
   60CHL1  H21A 6899   2.083   6.344   9.296  0.1080 -1.2392  0.7461
   60CHL1  H21B 6900   1.993   6.234   9.197 -1.5454 -2.5283  2.2485
   60CHL1  H21C 6901   2.172   6.267   9.165  0.6842 -1.9443 -0.3854
   60CHL1   C22 6902   2.163   5.996   9.255  0.7844  0.6164 -0.1412
   60CHL1  H22A 6903   2.156   5.908   9.322  3.0473 -0.0502 -0.7019
   60CHL1  H22B 6904   2.081   5.983   9.181  0.1188 -0.8160  0.7974
   60CHL1   C23 6905   2.302   5.979   9.194  0.4191  0.7916 -0.3790
   60CHL1  H23A 6906   2.314   6.067   9.127  1.6438  0.5723 -0.4675
   60CHL1  H23B 6907   2.383   5.985   9.270 -0.4116  0.8601  0.5177
   60CHL1   C24 6908   2.319   5.865   9.097  0.6081 -0.7620  0.2912
   60CHL1  H24A 6909   2.297   5.764   9.140 -0.9481  0.0597  1.5663
   60CHL1  H24B 6910   2.255   5.896   9.012  0.6816  2.5977  1.3100
   60CHL1   C25 6911   2.464   5.846   9.048 -0.8394 -0.1490 -0.4492
   60CHL1   H25 6912   2.529   5.826   9.136 -1.8450 -0.1539  0.3248
   60CHL1   C26 6913   2.465   5.724   8.961 -0.2598  0.6761 -0.2904
   60CHL1  H26A 6914   2.396   5.741   8.875  0.6386 -1.0318 -1.4185
   60CHL1  H26B 6915   2.569   5.716   8.922  0.7731 -0.6068  2.5173
   60CHL1  H26C 6916   2.444   5.629   9.014  2.0864  0.8287  1.0427
   60CHL1   C27 6917   2.517   5.970   8.983 -0.5368 -0.2736 -0.1452
   60CHL1  H27A 6918   2.622   5.961   8.947 -1.0906 -1.0575 -1.6829
   60CHL1  H27B 6919   2.446   5.995   8.900 -0.9445 -0.7680  0.0517
   60CHL1  H27C 6920   2.517   6.050   9.060 -1.2029  0.4950 -0.9159
   61CHL1    C3 6921   6.385   5.185  10.317 -0.4632 -0.6634 -0.7065
   61CHL1    H3 6922   6.464   5.126  10.368 -0.2167  0.7388  0.5943
   61CHL1    O3 6923   6.339   5.282  10.410 -0.2279  0.2870  0.4433
   61CHL1   H3' 6924   6.400   5.274  10.484  1.9633 -1.5039 -1.4038
   61CHL1    C4 6925   6.445   5.257  10.192 -0.8673  0.3895  0.5956
   61CHL1   H4A 6926   6.383   5.347  10.174  0.9234  2.0797  2.4523
   61CHL1   H4B 6927   6.543   5.299  10.222 -0.2605  0.3850 -1.2348
   61CHL1    C5 6928   6.463   5.175  10.061 -0.0054 -0.0133 -0.4134
   61CHL1    C6 6929   6.570   5.183   9.983 -0.2299  1.1502  0.3089
   61CHL1    H6 6930   6.656   5.249  10.005  2.3522 -1.7769 -0.3222
   61CHL1    C7 6931   6.590   5.109   9.850  0.5666  0.2130 -0.7573
   61CHL1   H7A 6932   6.628   5.185   9.779  1.2251  0.1841 -0.4350
   61CHL1   H7B 6933   6.668   5.031   9.862  1.5222  1.1780 -0.6059
   61CHL1    C8 6934   6.452   5.052   9.808 -0.1064  0.7717 -0.9959
   61CHL1    H8 6935   6.388   5.137   9.776  0.8836  1.3545 -1.4758
   61CHL1   C14 6936   6.466   4.974   9.677  0.3167  0.5337  0.5579
   61CHL1   H14 6937   6.541   4.893   9.692 -0.3605 -0.2282 -0.0945
   61CHL1   C15 6938   6.533   5.056   9.558 -0.4621 -0.2445 -0.6063
   61CHL1  H15A 6939   6.501   5.162   9.555 -0.0086 -0.0844 -0.0660
   61CHL1  H15B 6940   6.643   5.040   9.555 -0.1423  1.0299  1.7532
   61CHL1   C16 6941   6.472   4.990   9.433  0.4377 -0.0846 -1.2740
   61CHL1  H16A 6942   6.411   5.065   9.378 -0.4215  0.4189  0.2862
   61CHL1  H16B 6943   6.551   4.957   9.362  2.2927 -1.8914  1.4240
   61CHL1   C17 6944   6.383   4.869   9.482 -0.7019  0.0283 -0.7223
   61CHL1   H17 6945   6.464   4.797   9.508  0.3741  1.7234  0.8629
   61CHL1   C13 6946   6.334   4.910   9.625 -0.7075 -0.0629 -0.0185
   61CHL1   C18 6947   6.222   5.024   9.603  0.4984  0.2837 -0.2796
   61CHL1  H18A 6948   6.215   5.092   9.691  1.0168  0.6408 -0.5085
   61CHL1  H18B 6949   6.259   5.094   9.525  0.2359  1.6735  0.7874
   61CHL1  H18C 6950   6.128   4.982   9.561  1.0206 -2.9169  1.4338
   61CHL1   C12 6951   6.302   4.816   9.741  0.0556  0.1725  0.1981
   61CHL1  H12A 6952   6.223   4.744   9.711 -1.5279  1.4091  1.2667
   61CHL1  H12B 6953   6.395   4.757   9.760  1.5740  2.4658  0.3100
   61CHL1   C11 6954   6.265   4.885   9.871 -0.2896  0.4750 -0.2334
   61CHL1  H11A 6955   6.168   4.934   9.851 -1.8017 -1.4357  1.9120
   61CHL1  H11B 6956   6.247   4.808   9.949  0.6325 -1.2768 -1.6811
   61CHL1    C9 6957   6.379   4.979   9.920 -0.5768  0.7384 -0.5541
   61CHL1    H9 6958   6.455   4.912   9.965  0.1125  2.2388  0.5895
   61CHL1   C10 6959   6.344   5.078  10.033 -0.5225  0.7714  0.3415
   61CHL1   C19 6960   6.229   5.168   9.987 -0.1531  0.5832 -0.6395
   61CHL1  H19A 6961   6.132   5.115   9.979 -0.2667  0.9215 -1.5226
   61CHL1  H19B 6962   6.200   5.239  10.068  0.1662 -0.1934  0.1769
   61CHL1  H19C 6963   6.260   5.230   9.901  2.3731  3.0429  1.8074
   61CHL1    C1 6964   6.304   5.003  10.166  0.3081  0.1069 -0.1640
   61CHL1   H1A 6965   6.219   4.935  10.144  0.4159  0.4264 -1.6687
   61CHL1   H1B 6966   6.394   4.942  10.189  1.5752  2.2781  0.9059
   61CHL1    C2 6967   6.270   5.088  10.286  0.6761 -0.3025  0.2272
   61CHL1   H2A 6968   6.239   5.023  10.371 -1.4834 -0.5728 -0.7140
   61CHL1   H2B 6969   6.184   5.149  10.254  1.1617 -0.3544 -1.2211
   61CHL1   C20 6970   6.294   4.809   9.373 -0.2492 -0.5312 -0.8888
   61CHL1   H20 6971   6.229   4.893   9.342  1.1136  1.1777  0.6254
   61CHL1   C21 6972   6.209   4.692   9.428 -0.4217  0.7520  0.0705
   61CHL1  H21A 6973   6.266   4.599   9.449 -0.6733  0.4718 -0.4874
   61CHL1  H21B 6974   6.136   4.656   9.353 -1.2148  1.0776  0.6631
   61CHL1  H21C 6975   6.160   4.718   9.525 -0.7494  0.6520 -0.0693
   61CHL1   C22 6976   6.367   4.778   9.240  0.4287  0.7372 -0.2959
   61CHL1  H22A 6977   6.445   4.850   9.206  0.9623 -1.3063 -3.8881
   61CHL1  H22B 6978   6.410   4.678   9.261 -2.5913 -0.7116 -0.4938
   61CHL1   C23 6979   6.272   4.749   9.116 -0.3759  0.7518  0.5988
   61CHL1  H23A 6980   6.343   4.694   9.050  1.7016  2.0474  1.6281
   61CHL1  H23B 6981   6.187   4.689   9.154 -0.9007 -0.2761 -2.0156
   61CHL1   C24 6982   6.227   4.875   9.050 -0.1719 -0.1426 -0.5064
   61CHL1  H24A 6983   6.183   4.947   9.122 -1.1785 -0.8820 -0.3497
   61CHL1  H24B 6984   6.304   4.937   9.001  0.8071 -1.9960 -1.4307
   61CHL1   C25 6985   6.124   4.862   8.938  0.8862 -0.1557 -0.1932
   61CHL1   H25 6986   6.030   4.832   8.990  0.7992  2.5229  1.3356
   61CHL1   C26 6987   6.073   4.988   8.873  0.8972  0.3779 -0.3558
   61CHL1  H26A 6988   6.029   5.060   8.945  1.4993 -0.6844  1.1227
   61CHL1  H26B 6989   6.163   5.036   8.828  0.5785  2.8174  1.3956
   61CHL1  H26C 6990   6.000   4.963   8.793 -0.8469  2.0309  0.6464
   61CHL1   C27 6991   6.158   4.763   8.827 -0.9034 -0.2480  0.2081
   61CHL1  H27A 6992   6.086   4.766   8.743 -2.3356  0.3279  1.4009
   61CHL1  H27B 6993   6.255   4.792   8.782 -1.3953 -0.6358 -1.1415
   61CHL1  H27C 6994   6.174   4.660   8.866 -0.7155  0.4081  1.9868
   62CHL1    C3 6995   6.299   0.450   9.794  0.4603  0.1663 -1.1277
   62CHL1    H3 6996   6.341   0.348   9.784  0.2525 -0.1905  1.1284
   62CHL1    O3 6997   6.325   0.483   9.932  0.0514  0.3964  0.9929
   62CHL1   H3' 6998   6.268   0.418   9.973 -0.6158 -0.5419 -1.2836
   62CHL1    C4 6999   6.366   0.549   9.692 -0.1879 -0.0285 -0.5121
   62CHL1   H4A 7000   6.324   0.650   9.712  2.0400  0.7922  0.4553
   62CHL1   H4B 7001   6.474   0.554   9.720 -0.4880  2.2687  0.4696
   62CHL1    C5 7002   6.335   0.507   9.548  1.2070  0.2839  0.7120
   62CHL1    C6 7003   6.429   0.485   9.448  0.8122 -1.1620 -0.2840
   62CHL1    H6 7004   6.532   0.518   9.467 -0.2474  3.8205 -1.6667
   62CHL1    C7 7005   6.392   0.444   9.307  0.5040 -0.5867 -0.1261
   62CHL1   H7A 7006   6.447   0.511   9.238  4.0077 -0.2348  2.6858
   62CHL1   H7B 7007   6.429   0.341   9.291  1.8396 -0.1104 -0.2392
   62CHL1    C8 7008   6.242   0.446   9.272  0.1544  0.2362 -0.0974
   62CHL1    H8 7009   6.218   0.551   9.243 -1.0028  0.1285  0.3964
   62CHL1   C14 7010   6.216   0.360   9.154  0.2322 -0.6764  0.4882
   62CHL1   H14 7011   6.243   0.257   9.185 -0.2375 -1.7543 -2.3919
   62CHL1   C15 7012   6.303   0.383   9.023  0.1680  0.3755 -0.0295
   62CHL1  H15A 7013   6.304   0.493   9.010  0.2620  0.3382 -0.3380
   62CHL1  H15B 7014   6.398   0.329   9.040  0.3078  0.7435  0.3829
   62CHL1   C16 7015   6.211   0.316   8.917 -0.7135 -0.1081  1.4816
   62CHL1  H16A 7016   6.187   0.396   8.844  0.3168 -1.1576 -0.0741
   62CHL1  H16B 7017   6.269   0.239   8.862  0.4245 -1.0020  3.7751
   62CHL1   C17 7018   6.083   0.256   8.982  0.7108 -0.2947  0.2006
   62CHL1   H17 7019   6.097   0.156   9.029 -0.6402 -1.4339 -1.6940
   62CHL1   C13 7020   6.069   0.353   9.106 -0.7372  0.6637  0.0939
   62CHL1   C18 7021   6.013   0.488   9.060 -0.4799 -0.3220 -0.2606
   62CHL1  H18A 7022   6.010   0.558   9.146  0.3176 -1.0690  0.3905
   62CHL1  H18B 7023   6.068   0.539   8.978 -0.3573  0.1505  0.1138
   62CHL1  H18C 7024   5.913   0.469   9.015 -0.9796  1.5041 -0.0018
   62CHL1   C12 7025   5.991   0.294   9.227  0.1780  0.2017  0.2647
   62CHL1  H12A 7026   5.881   0.300   9.211  0.3080 -1.1947 -1.3959
   62CHL1  H12B 7027   6.023   0.189   9.239 -2.2401 -0.5229  0.9415
   62CHL1   C11 7028   6.010   0.384   9.349 -0.2867  0.1461  0.6000
   62CHL1  H11A 7029   5.962   0.483   9.337 -0.9072  0.1469  2.7216
   62CHL1  H11B 7030   5.948   0.339   9.429 -3.0148  3.3768  0.4972
   62CHL1    C9 7031   6.153   0.404   9.394 -0.8225 -0.6015  0.1773
   62CHL1    H9 7032   6.177   0.296   9.407 -1.3691 -0.9343 -1.3529
   62CHL1   C10 7033   6.187   0.485   9.521  0.2379  0.5348 -0.6866
   62CHL1   C19 7034   6.109   0.620   9.515  0.4130  0.6438  0.1632
   62CHL1  H19A 7035   6.141   0.700   9.586 -2.4597  2.2677 -0.2073
   62CHL1  H19B 7036   6.106   0.668   9.415 -0.5615  0.8078  0.2628
   62CHL1  H19C 7037   6.007   0.590   9.548  1.1796  1.1220  3.3949
   62CHL1    C1 7038   6.124   0.396   9.630 -0.0855  0.0723  0.1697
   62CHL1   H1A 7039   6.013   0.391   9.622  0.0283 -0.1073 -1.7023
   62CHL1   H1B 7040   6.166   0.294   9.619 -1.4802 -0.3437 -1.7741
   62CHL1    C2 7041   6.145   0.438   9.772  0.2946 -0.1124  0.4196
   62CHL1   H2A 7042   6.098   0.367   9.842 -0.9721  0.0392 -0.2378
   62CHL1   H2B 7043   6.101   0.539   9.783  0.5911 -0.2286  3.3657
   62CHL1   C20 7044   5.972   0.243   8.882  0.2419 -0.5749  0.1569
   62CHL1   H20 7045   5.956   0.339   8.829  0.1571  0.3160  1.7525
   62CHL1   C21 7046   5.841   0.201   8.958 -0.3622 -0.1178  0.1411
   62CHL1  H21A 7047   5.856   0.129   9.042 -0.8883  1.2429  1.4438
   62CHL1  H21B 7048   5.766   0.148   8.896 -0.4954 -1.0229  1.0450
   62CHL1  H21C 7049   5.803   0.296   9.000  2.5559  1.4650 -0.5230
   62CHL1   C22 7050   5.997   0.143   8.766 -0.6434 -0.3041 -0.6818
   62CHL1  H22A 7051   5.912   0.138   8.695  0.9469 -0.6865 -2.6789
   62CHL1  H22B 7052   6.091   0.169   8.712 -0.7444 -0.8765 -1.1468
   62CHL1   C23 7053   6.012  -0.005   8.816 -0.5175  0.8394 -0.6215
   62CHL1  H23A 7054   6.106  -0.017   8.874 -2.1380  0.7972  2.1602
   62CHL1  H23B 7055   5.926  -0.033   8.880 -1.4575  2.7972 -0.9510
   62CHL1   C24 7056   6.009  -0.102   8.692 -0.7814 -0.5710 -1.2192
   62CHL1  H24A 7057   6.069  -0.055   8.611  1.9334  0.6321  1.2917
   62CHL1  H24B 7058   6.051  -0.196   8.734  0.1597  0.0328 -0.7552
   62CHL1   C25 7059   5.865  -0.135   8.653  0.8779  0.2083 -0.1027
   62CHL1   H25 7060   5.793  -0.086   8.722  0.7034  0.0621 -0.1787
   62CHL1   C26 7061   5.840  -0.068   8.515 -0.3062  0.3350 -0.3857
   62CHL1  H26A 7062   5.896  -0.120   8.435  0.4548  1.4691 -0.6215
   62CHL1  H26B 7063   5.732  -0.061   8.494 -0.1412  0.1619 -1.3269
   62CHL1  H26C 7064   5.878   0.037   8.517  1.6945 -0.3430  1.6410
   62CHL1   C27 7065   5.832  -0.291   8.659 -0.3713 -0.3429  0.1712
   62CHL1  H27A 7066   5.891  -0.346   8.583  1.1471 -0.4611  1.3919
   62CHL1  H27B 7067   5.856  -0.326   8.761 -0.1298  1.1199  0.6416
   62CHL1  H27C 7068   5.722  -0.292   8.640 -0.4270  1.5568  0.2056
   63CHL1    C3 7069   1.909   2.327  10.179 -0.4321  0.3294  0.0884
   63CHL1    H3 7070   2.018   2.312  10.192  0.3064  2.2362 -2.9018
   63CHL1    O3 7071   1.843   2.332  10.309 -0.0944  0.3962  0.2036
   63CHL1   H3' 7072   1.768   2.391  10.303 -0.0545  0.4890  0.5940
   63CHL1    C4 7073   1.885   2.462  10.114  0.6280  0.9260  0.0484
   63CHL1   H4A 7074   1.774   2.475  10.114  0.3952 -0.7469 -0.0171
   63CHL1   H4B 7075   1.931   2.535  10.184  0.5904  1.0782 -0.0859
   63CHL1    C5 7076   1.929   2.476   9.969 -0.1349  0.0803 -0.1775
   63CHL1    C6 7077   2.009   2.573   9.929 -0.1399 -0.7468 -0.5617
   63CHL1    H6 7078   2.057   2.641  10.001  2.3048 -3.5223  0.6448
   63CHL1    C7 7079   2.048   2.596   9.788 -1.0001 -0.6274 -0.4401
   63CHL1   H7A 7080   2.039   2.704   9.764 -0.1033 -0.4120  0.1235
   63CHL1   H7B 7081   2.154   2.566   9.773 -0.2977  0.9609  0.9970
   63CHL1    C8 7082   1.958   2.523   9.691  0.0559  0.0995  0.1802
   63CHL1    H8 7083   1.859   2.574   9.694  0.3150  0.5611  1.6100
   63CHL1   C14 7084   2.015   2.518   9.550  0.0389 -0.6968  0.1502
   63CHL1   H14 7085   2.111   2.462   9.558  0.9108  0.8339  1.0401
   63CHL1   C15 7086   2.066   2.649   9.482 -0.0644 -0.3580  0.0142
   63CHL1  H15A 7087   1.989   2.727   9.498  0.3306 -0.3087  1.9331
   63CHL1  H15B 7088   2.165   2.678   9.523 -0.3831  2.0053 -0.7531
   63CHL1   C16 7089   2.072   2.616   9.336  0.4333  0.1664  0.1522
   63CHL1  H16A 7090   2.002   2.683   9.282  1.2531  1.5861  0.7855
   63CHL1  H16B 7091   2.173   2.636   9.294  1.1494 -2.0865  0.6656
   63CHL1   C17 7092   2.018   2.468   9.318 -0.3785  0.1538  0.2172
   63CHL1   H17 7093   2.107   2.400   9.322 -2.0423 -2.1345  0.1433
   63CHL1   C13 7094   1.935   2.448   9.451 -0.1250  0.4872  0.6606
   63CHL1   C18 7095   1.794   2.511   9.430  0.2003  0.4610  0.1234
   63CHL1  H18A 7096   1.736   2.530   9.524 -0.5757 -1.0418 -0.0235
   63CHL1  H18B 7097   1.799   2.606   9.373  1.0083  1.2755  1.4968
   63CHL1  H18C 7098   1.730   2.441   9.372 -0.3012  0.9684  0.0515
   63CHL1   C12 7099   1.927   2.301   9.493 -0.1750  0.0962  0.0663
   63CHL1  H12A 7100   1.870   2.230   9.429  0.4242 -0.6854  0.3877
   63CHL1  H12B 7101   2.029   2.260   9.501 -0.8608 -1.3450  2.5264
   63CHL1   C11 7102   1.866   2.298   9.630  0.3902  0.6308 -0.7289
   63CHL1  H11A 7103   1.762   2.332   9.616  0.6720  2.0484  0.4022
   63CHL1  H11B 7104   1.858   2.194   9.669  3.0442  1.1300  1.4619
   63CHL1    C9 7105   1.937   2.371   9.736  0.3274 -0.2123  0.3192
   63CHL1    H9 7106   2.035   2.321   9.743 -1.2403 -3.5176  0.7818
   63CHL1   C10 7107   1.867   2.367   9.882 -0.4503  0.3490 -0.0367
   63CHL1   C19 7108   1.715   2.385   9.868 -0.2242 -0.0708  0.1947
   63CHL1  H19A 7109   1.693   2.462   9.791  0.3971 -1.8601 -1.8815
   63CHL1  H19B 7110   1.662   2.300   9.820  0.3581  0.1691 -0.9057
   63CHL1  H19C 7111   1.668   2.399   9.967  0.4286 -0.7868  0.6222
   63CHL1    C1 7112   1.896   2.228   9.953  0.0180 -0.3706  0.0493
   63CHL1   H1A 7113   1.852   2.149   9.889 -0.0392  1.2587 -2.0109
   63CHL1   H1B 7114   2.006   2.214   9.952  0.2063  0.7015  1.6639
   63CHL1    C2 7115   1.848   2.221  10.098  0.6841 -0.1903 -0.4372
   63CHL1   H2A 7116   1.872   2.121  10.142 -2.7242 -0.8773  0.1744
   63CHL1   H2B 7117   1.738   2.218  10.082  0.8700  1.0095 -2.3246
   63CHL1   C20 7118   1.964   2.442   9.180  0.2646  0.1129 -0.3707
   63CHL1   H20 7119   1.878   2.509   9.161 -0.7882 -0.0956  3.0632
   63CHL1   C21 7120   1.911   2.302   9.168  1.1166  0.2435  0.8252
   63CHL1  H21A 7121   1.980   2.220   9.197 -1.0506 -1.4653  1.4121
   63CHL1  H21B 7122   1.855   2.282   9.075  1.7379 -1.2888  0.7536
   63CHL1  H21C 7123   1.838   2.290   9.252  0.3993  0.9791  0.3265
   63CHL1   C22 7124   2.051   2.478   9.056  0.3560 -0.3264  0.4807
   63CHL1  H22A 7125   1.995   2.434   8.971  2.5644  0.5634 -1.5144
   63CHL1  H22B 7126   2.052   2.589   9.043  1.0569 -0.4508 -0.6486
   63CHL1   C23 7127   2.200   2.432   9.066  0.3161  0.0180  0.4970
   63CHL1  H23A 7128   2.232   2.489   9.156  0.9174 -1.2602  1.1123
   63CHL1  H23B 7129   2.201   2.322   9.080 -0.5522 -0.3440 -1.8036
   63CHL1   C24 7130   2.282   2.471   8.941 -0.3129 -1.0520  0.7149
   63CHL1  H24A 7131   2.276   2.578   8.913  0.7917 -0.6805  1.8172
   63CHL1  H24B 7132   2.390   2.453   8.961 -0.3455 -1.2365  0.7264
   63CHL1   C25 7133   2.246   2.397   8.810  0.2587 -0.3434 -0.7611
   63CHL1   H25 7134   2.147   2.440   8.782 -0.0721  1.5154  2.7212
   63CHL1   C26 7135   2.342   2.432   8.704  0.3002  0.1245  0.3375
   63CHL1  H26A 7136   2.443   2.387   8.717  0.4341 -0.2021 -1.5326
   63CHL1  H26B 7137   2.311   2.392   8.606  1.5764  0.1018 -0.0763
   63CHL1  H26C 7138   2.347   2.543   8.693 -1.1261  0.4725  2.6444
   63CHL1   C27 7139   2.240   2.247   8.827 -0.2177 -1.2607 -0.8330
   63CHL1  H27A 7140   2.202   2.216   8.926  2.0631 -1.4058  0.0569
   63CHL1  H27B 7141   2.179   2.207   8.743 -1.0872 -0.1707 -0.7402
   63CHL1  H27C 7142   2.345   2.212   8.828  0.2226 -0.0315  1.2063
   64CHL1    C3 7143   0.895   1.478  10.050 -1.0247 -0.9626 -0.5540
   64CHL1    H3 7144   0.986   1.416  10.065 -1.9140 -2.2250 -0.1893
   64CHL1    O3 7145   0.825   1.468  10.172  0.0880  0.4201 -0.0961
   64CHL1   H3' 7146   0.875   1.524  10.232 -1.7155  1.6408  0.3540
   64CHL1    C4 7147   0.938   1.624  10.020 -0.6320 -0.0270 -0.0404
   64CHL1   H4A 7148   0.856   1.698  10.012 -0.6260 -0.0878 -0.6646
   64CHL1   H4B 7149   1.007   1.655  10.102 -0.5720 -2.6315  1.0047
   64CHL1    C5 7150   1.008   1.630   9.879  0.6464  0.6544  0.0410
   64CHL1    C6 7151   1.128   1.685   9.866  0.3651  0.6054  0.1978
   64CHL1    H6 7152   1.169   1.721   9.961  0.5221 -0.2372  0.4549
   64CHL1    C7 7153   1.205   1.684   9.738 -0.0656  0.1856  0.7677
   64CHL1   H7A 7154   1.238   1.786   9.711  1.0727 -0.4757 -0.4592
   64CHL1   H7B 7155   1.287   1.614   9.763 -0.1267 -0.1065  0.1816
   64CHL1    C8 7156   1.121   1.633   9.614  0.2257  0.3521  0.1200
   64CHL1    H8 7157   1.053   1.715   9.580 -3.0861 -2.3558 -0.2785
   64CHL1   C14 7158   1.212   1.588   9.501 -1.0338  0.2753  0.3037
   64CHL1   H14 7159   1.255   1.491   9.534 -0.7815 -0.8507 -2.9470
   64CHL1   C15 7160   1.335   1.660   9.469 -0.6432  0.0235  0.1747
   64CHL1  H15A 7161   1.324   1.770   9.479  0.3061  0.1063  0.4771
   64CHL1  H15B 7162   1.414   1.662   9.547 -1.0484  1.7584  0.5836
   64CHL1   C16 7163   1.376   1.614   9.328 -0.7081  0.1976  0.8168
   64CHL1  H16A 7164   1.392   1.700   9.259  0.9269  1.2723  2.4419
   64CHL1  H16B 7165   1.473   1.561   9.340 -0.3949  0.5004 -0.2569
   64CHL1   C17 7166   1.269   1.510   9.288  0.6315 -0.6298  0.2319
   64CHL1   H17 7167   1.294   1.408   9.325 -1.6241 -1.8356 -1.3199
   64CHL1   C13 7168   1.147   1.543   9.369 -0.2414 -0.5807  0.2477
   64CHL1   C18 7169   1.069   1.663   9.296 -0.5421 -0.1033 -0.1794
   64CHL1  H18A 7170   1.019   1.629   9.203  0.2697 -1.6575 -0.0890
   64CHL1  H18B 7171   0.997   1.697   9.374  1.1472  1.6490  0.7138
   64CHL1  H18C 7172   1.126   1.754   9.268  1.6577 -0.8343  1.5946
   64CHL1   C12 7173   1.049   1.435   9.404 -0.0774 -0.2581  0.8507
   64CHL1  H12A 7174   0.993   1.406   9.313  2.3541 -0.9059 -0.5126
   64CHL1  H12B 7175   1.103   1.342   9.431  2.4858 -0.0719 -2.9437
   64CHL1   C11 7176   0.948   1.474   9.518  0.3216  0.0625  0.8514
   64CHL1  H11A 7177   0.879   1.551   9.478 -0.1131 -0.6064  0.2859
   64CHL1  H11B 7178   0.882   1.389   9.544  0.1780  0.7441  2.8747
   64CHL1    C9 7179   1.022   1.520   9.643  0.3827 -0.2638 -0.0260
   64CHL1    H9 7180   1.086   1.436   9.677  1.3713 -0.0840 -1.3498
   64CHL1   C10 7181   0.927   1.559   9.757  0.4460  0.1472  0.4222
   64CHL1   C19 7182   0.808   1.644   9.710 -0.0353  1.0286  1.0739
   64CHL1  H19A 7183   0.844   1.739   9.664  0.2346  0.8525  0.9183
   64CHL1  H19B 7184   0.741   1.591   9.639  1.1858  0.0232  0.6201
   64CHL1  H19C 7185   0.745   1.672   9.797 -1.1921 -1.6405  1.1767
   64CHL1    C1 7186   0.877   1.424   9.804  0.7335 -0.5065 -0.7757
   64CHL1   H1A 7187   0.797   1.403   9.730  0.4978  0.1556 -0.7156
   64CHL1   H1B 7188   0.951   1.342   9.794  1.6232 -0.0111  1.3223
   64CHL1    C2 7189   0.814   1.418   9.941 -0.3268 -0.7602 -0.7561
   64CHL1   H2A 7190   0.796   1.311   9.962 -1.9208 -0.1961  1.0656
   64CHL1   H2B 7191   0.712   1.464   9.934 -0.0509 -0.3779 -2.8609
   64CHL1   C20 7192   1.255   1.494   9.139 -0.3645  0.1483 -0.4168
   64CHL1   H20 7193   1.221   1.589   9.093  0.0710  0.6819  0.3502
   64CHL1   C21 7194   1.171   1.369   9.101 -0.7354 -0.1335  0.0109
   64CHL1  H21A 7195   1.066   1.379   9.137 -0.1990  0.5596  1.4176
   64CHL1  H21B 7196   1.198   1.274   9.151 -2.1077  0.0437  1.1777
   64CHL1  H21C 7197   1.168   1.360   8.990  0.9445  3.2196 -0.4393
   64CHL1   C22 7198   1.386   1.474   9.074  0.0560 -0.3648 -0.4999
   64CHL1  H22A 7199   1.442   1.567   9.099 -3.7022  1.9795 -0.0485
   64CHL1  H22B 7200   1.429   1.379   9.110  0.7200  0.6670  1.5937
   64CHL1   C23 7201   1.377   1.469   8.916  0.3498  0.3929  0.4910
   64CHL1  H23A 7202   1.349   1.366   8.885  0.0907  0.7080 -0.3425
   64CHL1  H23B 7203   1.298   1.535   8.874 -1.8771 -2.9379 -0.9274
   64CHL1   C24 7204   1.513   1.513   8.858 -0.2404 -0.6757  0.3743
   64CHL1  H24A 7205   1.553   1.610   8.896  0.9604 -0.6577 -0.8598
   64CHL1  H24B 7206   1.595   1.440   8.878 -0.3292 -0.9467 -0.2456
   64CHL1   C25 7207   1.522   1.519   8.710  0.4481  0.5774  1.3743
   64CHL1   H25 7208   1.516   1.414   8.675  1.2778  0.6864  0.8743
   64CHL1   C26 7209   1.409   1.598   8.647 -0.0669 -0.4180 -0.5689
   64CHL1  H26A 7210   1.311   1.558   8.681 -0.2675 -0.5008 -1.2304
   64CHL1  H26B 7211   1.420   1.707   8.669 -0.2691 -0.4599 -0.2528
   64CHL1  H26C 7212   1.424   1.574   8.540  0.8252  0.5109 -0.6712
   64CHL1   C27 7213   1.658   1.565   8.656 -0.3769 -0.4635  0.0991
   64CHL1  H27A 7214   1.653   1.586   8.547 -1.6693  0.9153  0.3897
   64CHL1  H27B 7215   1.696   1.654   8.711 -0.9092 -0.1684 -0.0055
   64CHL1  H27C 7216   1.737   1.489   8.677  1.1520  0.8269 -0.7688
   65CHL1    C3 7217   2.974   6.627  10.152  0.1917 -0.2264 -0.0277
   65CHL1    H3 7218   2.967   6.732  10.186 -1.9829 -0.3805  0.1625
   65CHL1    O3 7219   2.998   6.539  10.269 -0.1146 -0.4333  0.1759
   65CHL1   H3' 7220   3.079   6.570  10.309  0.1266 -1.5234  0.5765
   65CHL1    C4 7221   2.845   6.593  10.074 -0.5460 -0.4394  0.0215
   65CHL1   H4A 7222   2.841   6.482  10.068  0.4731 -0.5572  1.1429
   65CHL1   H4B 7223   2.772   6.642  10.142  0.4238  1.9405 -0.5562
   65CHL1    C5 7224   2.830   6.653   9.931  0.4369  0.5022 -0.0117
   65CHL1    C6 7225   2.718   6.712   9.899 -0.5727 -0.3179  0.6384
   65CHL1    H6 7226   2.640   6.718   9.976 -1.2398 -1.2853  0.0598
   65CHL1    C7 7227   2.695   6.772   9.760  0.7504  0.5422  0.1286
   65CHL1   H7A 7228   2.594   6.739   9.729  1.2185 -0.8954  0.0619
   65CHL1   H7B 7229   2.710   6.882   9.757  0.5220  0.5519 -1.0183
   65CHL1    C8 7230   2.787   6.719   9.654  0.0943  0.5555  0.1200
   65CHL1    H8 7231   2.748   6.616   9.644  0.0669  0.5115  0.6524
   65CHL1   C14 7232   2.777   6.795   9.520  0.0677 -0.8476 -1.2771
   65CHL1   H14 7233   2.816   6.897   9.541 -0.4900 -0.8184 -0.2978
   65CHL1   C15 7234   2.638   6.803   9.462  0.3140 -0.3000  0.3327
   65CHL1  H15A 7235   2.593   6.708   9.496  1.0185 -0.3774  1.0824
   65CHL1  H15B 7236   2.582   6.884   9.514  1.7675  1.8500 -1.2435
   65CHL1   C16 7237   2.656   6.830   9.315 -0.2686 -1.1561 -0.0867
   65CHL1  H16A 7238   2.612   6.744   9.261 -3.4852  0.6556 -0.5843
   65CHL1  H16B 7239   2.613   6.925   9.275 -0.6818 -0.8621  1.0151
   65CHL1   C17 7240   2.815   6.822   9.294  0.3067  0.5090 -0.0766
   65CHL1   H17 7241   2.851   6.923   9.322 -2.1474  0.8334  2.3988
   65CHL1   C13 7242   2.871   6.737   9.416 -0.9690 -0.0035  1.1023
   65CHL1   C18 7243   2.838   6.585   9.394  0.2484  0.3970  0.0910
   65CHL1  H18A 7244   2.902   6.552   9.309  1.7409  0.7332  1.0422
   65CHL1  H18B 7245   2.858   6.527   9.486  4.0468  0.0929 -0.7423
   65CHL1  H18C 7246   2.738   6.571   9.347  1.2573  0.7784 -2.3418
   65CHL1   C12 7247   3.015   6.767   9.469  0.3895  0.2100 -0.1010
   65CHL1  H12A 7248   3.091   6.755   9.389 -1.9306 -2.4401 -2.1097
   65CHL1  H12B 7249   3.011   6.877   9.488 -2.4384  0.2247 -0.3728
   65CHL1   C11 7250   3.045   6.702   9.598  0.1845 -0.0295  0.2281
   65CHL1  H11A 7251   3.055   6.597   9.563 -0.7224 -0.4523  1.1805
   65CHL1  H11B 7252   3.149   6.728   9.627  1.0876 -0.9467 -1.9559
   65CHL1    C9 7253   2.935   6.723   9.708 -0.8129  0.0732  0.2283
   65CHL1    H9 7254   2.951   6.823   9.754  0.0316 -0.6697  1.6384
   65CHL1   C10 7255   2.951   6.638   9.839 -0.4495 -0.0863 -0.5732
   65CHL1   C19 7256   2.957   6.493   9.795  0.3867  0.3393  0.1146
   65CHL1  H19A 7257   2.940   6.416   9.873 -0.3231 -0.8505 -1.1664
   65CHL1  H19B 7258   2.877   6.473   9.721 -0.4324  0.2302  1.0112
   65CHL1  H19C 7259   3.058   6.463   9.759 -1.6880 -5.0526 -2.3874
   65CHL1    C1 7260   3.073   6.686   9.928  0.1016 -0.2779  0.0865
   65CHL1   H1A 7261   3.161   6.678   9.861 -0.8595 -0.7125 -1.1705
   65CHL1   H1B 7262   3.060   6.793   9.955  4.4437  0.3166  0.5711
   65CHL1    C2 7263   3.094   6.612  10.058  0.3388  0.5423  0.2191
   65CHL1   H2A 7264   3.181   6.659  10.107  0.2262  0.6165  0.3495
   65CHL1   H2B 7265   3.101   6.505  10.030  2.3036  0.3548  1.2986
   65CHL1   C20 7266   2.858   6.787   9.157  0.5240 -0.1589 -0.0850
   65CHL1   H20 7267   2.801   6.694   9.137  0.3327 -1.2167  4.3517
   65CHL1   C21 7268   3.012   6.756   9.140  0.6130 -0.4863 -0.3448
   65CHL1  H21A 7269   3.036   6.658   9.187 -2.7518 -1.9737 -1.4069
   65CHL1  H21B 7270   3.078   6.833   9.186  0.7928 -0.9359  0.1595
   65CHL1  H21C 7271   3.040   6.756   9.033 -0.0983  0.7897 -0.5570
   65CHL1   C22 7272   2.806   6.884   9.048 -0.3200  0.1047  0.1407
   65CHL1  H22A 7273   2.701   6.919   9.061 -0.2852  1.7775 -2.9711
   65CHL1  H22B 7274   2.870   6.974   9.059 -0.3396  0.1758 -0.3135
   65CHL1   C23 7275   2.800   6.827   8.912  0.5362  0.6686 -0.7695
   65CHL1  H23A 7276   2.900   6.811   8.868  0.3800  1.6436 -1.5257
   65CHL1  H23B 7277   2.753   6.726   8.913  0.9913  0.4335  1.3147
   65CHL1   C24 7278   2.721   6.925   8.829  0.1547  0.4674  0.0406
   65CHL1  H24A 7279   2.618   6.932   8.868  0.3509  1.4429  0.4154
   65CHL1  H24B 7280   2.770   7.024   8.843 -1.4541  1.0217  2.2211
   65CHL1   C25 7281   2.705   6.878   8.683 -0.3655 -0.4022 -0.7803
   65CHL1   H25 7282   2.674   6.771   8.686  4.8825 -2.2026 -0.2646
   65CHL1   C26 7283   2.604   6.976   8.610 -0.6185  0.3920  0.1848
   65CHL1  H26A 7284   2.612   6.944   8.504  0.2952 -0.3762  0.4693
   65CHL1  H26B 7285   2.499   6.968   8.647 -0.8129  0.9962 -0.2238
   65CHL1  H26C 7286   2.639   7.080   8.622  1.7508 -0.4696  1.4656
   65CHL1   C27 7287   2.832   6.900   8.615 -0.1979  0.1948 -0.1351
   65CHL1  H27A 7288   2.813   6.897   8.506 -1.2803  0.3499  0.0348
   65CHL1  H27B 7289   2.878   7.001   8.628 -0.4609  0.8436 -3.3831
   65CHL1  H27C 7290   2.908   6.822   8.638  0.0288  0.4609  0.0235
   66CHL1    C3 7291   1.380   5.190  10.464 -0.6347  0.2485 -0.2623
   66CHL1    H3 7292   1.283   5.158  10.420 -0.4789 -1.3559  0.4925
   66CHL1    O3 7293   1.357   5.219  10.605  0.3631  0.3059 -0.1843
   66CHL1   H3' 7294   1.378   5.312  10.621  0.6744 -0.1126  2.2261
   66CHL1    C4 7295   1.483   5.073  10.452 -0.0948  0.4138 -0.2024
   66CHL1   H4A 7296   1.573   5.093  10.515 -0.3960  2.4670 -0.3494
   66CHL1   H4B 7297   1.440   4.982  10.498  0.0316  0.4957  0.0850
   66CHL1    C5 7298   1.508   5.045  10.306 -0.4999  0.2994 -0.4114
   66CHL1    C6 7299   1.503   4.916  10.271 -0.2606  0.7685  0.2186
   66CHL1    H6 7300   1.486   4.833  10.342 -0.6851  0.7658  0.1183
   66CHL1    C7 7301   1.525   4.862  10.129  1.1251 -0.1614  0.2246
   66CHL1   H7A 7302   1.589   4.771  10.124 -0.4474 -1.3326  0.4903
   66CHL1   H7B 7303   1.427   4.827  10.087  0.3531  1.1900  0.8516
   66CHL1    C8 7304   1.598   4.974  10.039 -0.1846 -0.1534  0.0608
   66CHL1    H8 7305   1.707   4.985  10.055 -0.3032 -0.2233  0.9528
   66CHL1   C14 7306   1.583   4.936   9.889  0.1194  0.2672  0.2467
   66CHL1   H14 7307   1.477   4.918   9.864  0.2365 -1.7031  0.9898
   66CHL1   C15 7308   1.650   4.802   9.841  0.3500  0.9101 -0.6800
   66CHL1  H15A 7309   1.756   4.804   9.873  0.0836 -1.6467  0.6286
   66CHL1  H15B 7310   1.593   4.715   9.880  0.5113  0.5609 -1.2098
   66CHL1   C16 7311   1.641   4.816   9.687  0.0384  0.2834 -0.4276
   66CHL1  H16A 7312   1.743   4.799   9.646  0.4348  0.3449  0.4965
   66CHL1  H16B 7313   1.564   4.746   9.649 -0.2206  0.2664  0.1132
   66CHL1   C17 7314   1.604   4.965   9.659 -0.4922  0.1431  0.3523
   66CHL1   H17 7315   1.494   4.967   9.638 -0.3992 -0.7166 -0.2909
   66CHL1   C13 7316   1.622   5.047   9.786 -0.4017  0.1122  0.4200
   66CHL1   C18 7317   1.777   5.079   9.792  0.1456 -0.0143  0.0393
   66CHL1  H18A 7318   1.807   5.102   9.897  1.5030 -1.9548  0.1231
   66CHL1  H18B 7319   1.826   4.989   9.750 -2.2328 -0.4600 -2.0245
   66CHL1  H18C 7320   1.793   5.172   9.734 -1.7379  1.5858  1.9008
   66CHL1   C12 7321   1.537   5.167   9.810 -0.0419  0.0879  0.1705
   66CHL1  H12A 7322   1.557   5.250   9.739  1.7517  0.0035  0.5191
   66CHL1  H12B 7323   1.433   5.133   9.789 -0.1872  2.2377 -3.2858
   66CHL1   C11 7324   1.550   5.222   9.956 -0.8712  0.5428  0.3188
   66CHL1  H11A 7325   1.654   5.258   9.967  0.0948 -2.0097  0.2161
   66CHL1  H11B 7326   1.482   5.308   9.977  2.5615  4.1924 -2.1228
   66CHL1    C9 7327   1.521   5.108  10.060 -0.1009 -0.3541 -0.7373
   66CHL1    H9 7328   1.411   5.093  10.059 -0.4830  1.7663  1.0090
   66CHL1   C10 7329   1.541   5.156  10.206  0.1318 -0.3373  0.0173
   66CHL1   C19 7330   1.691   5.197  10.243 -0.1137 -0.5605  0.6081
   66CHL1  H19A 7331   1.694   5.269  10.327 -1.2412 -0.0725  0.2553
   66CHL1  H19B 7332   1.760   5.112  10.261 -0.1063 -0.5820  0.4837
   66CHL1  H19C 7333   1.733   5.246  10.152 -0.8270 -0.8460  0.1104
   66CHL1    C1 7334   1.453   5.283  10.245 -0.3523  0.0006  0.2908
   66CHL1   H1A 7335   1.487   5.372  10.188 -0.6343  0.4262  0.7768
   66CHL1   H1B 7336   1.353   5.262  10.200 -0.4519  2.2937 -0.7034
   66CHL1    C2 7337   1.437   5.311  10.397  0.2589 -0.1412  0.1846
   66CHL1   H2A 7338   1.355   5.386  10.399 -0.3688 -0.8345  0.9598
   66CHL1   H2B 7339   1.526   5.348  10.452 -0.0333 -1.5900  1.7319
   66CHL1   C20 7340   1.674   5.014   9.532 -0.7516  0.5397  0.2077
   66CHL1   H20 7341   1.784   5.017   9.548 -0.7865 -2.2679  1.4546
   66CHL1   C21 7342   1.624   5.147   9.493  0.4126 -0.5020  0.1346
   66CHL1  H21A 7343   1.514   5.148   9.506  0.3511 -3.6195  0.5758
   66CHL1  H21B 7344   1.646   5.172   9.387 -3.5171  0.5678 -0.5985
   66CHL1  H21C 7345   1.664   5.227   9.559  2.7652 -0.6928 -0.9598
   66CHL1   C22 7346   1.667   4.924   9.402 -0.5872 -0.5122 -0.4634
   66CHL1  H22A 7347   1.722   4.973   9.319  1.6429 -0.2190  1.1039
   66CHL1  H22B 7348   1.732   4.837   9.423  1.2341  0.8001 -0.4219
   66CHL1   C23 7349   1.521   4.886   9.354 -0.0417  0.2194 -0.2979
   66CHL1  H23A 7350   1.480   4.825   9.437  0.3521  1.1087  0.5604
   66CHL1  H23B 7351   1.472   4.985   9.343  0.3818  0.5141  0.3799
   66CHL1   C24 7352   1.510   4.811   9.217 -0.0628  0.4078  0.1572
   66CHL1  H24A 7353   1.567   4.715   9.213  2.6856  1.9719 -1.0209
   66CHL1  H24B 7354   1.408   4.786   9.182  0.6485 -0.6527 -1.2468
   66CHL1   C25 7355   1.574   4.894   9.104 -0.2397 -0.4413 -0.3445
   66CHL1   H25 7356   1.683   4.906   9.121 -0.4135 -0.7635  1.1591
   66CHL1   C26 7357   1.578   4.806   8.981  0.2602  0.6172  0.0577
   66CHL1  H26A 7358   1.625   4.856   8.894  0.3999 -0.1878 -0.3450
   66CHL1  H26B 7359   1.629   4.708   8.991  0.0840  0.3381 -1.5698
   66CHL1  H26C 7360   1.472   4.790   8.949 -0.4975  1.0724  2.1366
   66CHL1   C27 7361   1.491   5.026   9.075  0.0861 -0.5011 -1.0200
   66CHL1  H27A 7362   1.381   5.016   9.086 -0.1193  1.6648 -0.6665
   66CHL1  H27B 7363   1.529   5.108   9.139 -1.8702 -0.9298  0.7980
   66CHL1  H27C 7364   1.513   5.065   8.973 -0.4738  0.5892 -0.7372
   67CHL1    C3 7365   5.844   4.805  10.117 -0.6077  0.0305 -0.1862
   67CHL1    H3 7366   5.745   4.818  10.167 -0.1949  3.8681 -0.0710
   67CHL1    O3 7367   5.936   4.785  10.218 -0.4881 -0.1370  0.0274
   67CHL1   H3' 7368   6.021   4.766  10.177  1.2367  1.0652  2.7887
   67CHL1    C4 7369   5.839   4.678  10.044 -0.1454 -0.2646 -0.5458
   67CHL1   H4A 7370   5.943   4.644  10.027 -0.9645 -2.4428 -1.4577
   67CHL1   H4B 7371   5.796   4.596  10.106  1.0936 -0.8006 -0.3687
   67CHL1    C5 7372   5.762   4.691   9.913 -0.2600 -0.1632  0.1969
   67CHL1    C6 7373   5.668   4.603   9.879  0.5166  0.0241 -0.0296
   67CHL1    H6 7374   5.637   4.524   9.949 -2.3141  0.1889 -0.9905
   67CHL1    C7 7375   5.604   4.607   9.740  0.2083  0.2650 -0.5699
   67CHL1   H7A 7376   5.611   4.508   9.692  2.5649  1.1165 -2.1916
   67CHL1   H7B 7377   5.499   4.643   9.743 -0.1430 -0.6626 -1.3511
   67CHL1    C8 7378   5.677   4.696   9.637 -0.0926  0.0105  0.3594
   67CHL1    H8 7379   5.766   4.643   9.600  0.7970  1.1147  0.8474
   67CHL1   C14 7380   5.587   4.721   9.514 -0.3092 -0.3319 -0.2750
   67CHL1   H14 7381   5.509   4.784   9.561  1.2619  0.9195  0.7505
   67CHL1   C15 7382   5.520   4.607   9.441  0.4723 -1.0788 -0.1866
   67CHL1  H15A 7383   5.604   4.535   9.431  0.6188 -0.7561 -1.5468
   67CHL1  H15B 7384   5.435   4.563   9.496 -0.8825 -1.6940 -2.6183
   67CHL1   C16 7385   5.459   4.677   9.311  0.7708  0.5474 -0.3890
   67CHL1  H16A 7386   5.474   4.606   9.227 -0.3824 -0.1553 -0.0293
   67CHL1  H16B 7387   5.353   4.703   9.332  1.5222  1.8071  2.3149
   67CHL1   C17 7388   5.525   4.817   9.302  0.2536  0.4289  0.9292
   67CHL1   H17 7389   5.453   4.884   9.355 -0.3498 -0.0963  0.7871
   67CHL1   C13 7390   5.641   4.810   9.400 -1.1691 -0.5868 -0.5354
   67CHL1   C18 7391   5.758   4.739   9.324  0.2591 -0.2031 -0.3806
   67CHL1  H18A 7392   5.718   4.657   9.261 -1.3347  0.2936 -0.0387
   67CHL1  H18B 7393   5.814   4.815   9.264  1.6494  0.6700  1.8781
   67CHL1  H18C 7394   5.833   4.687   9.389 -0.4305 -0.9061 -0.1385
   67CHL1   C12 7395   5.692   4.945   9.470  0.8108  0.2640 -0.0122
   67CHL1  H12A 7396   5.746   5.010   9.398  0.4626  0.9357  0.3280
   67CHL1  H12B 7397   5.600   4.991   9.512  0.7961 -0.4032  0.6984
   67CHL1   C11 7398   5.780   4.909   9.586 -0.0559 -0.9491 -0.1221
   67CHL1  H11A 7399   5.876   4.868   9.549  0.4901  0.6161 -0.5040
   67CHL1  H11B 7400   5.813   5.010   9.619  1.3722 -1.0751 -1.0862
   67CHL1    C9 7401   5.717   4.829   9.696  0.4990 -0.4847  0.2335
   67CHL1    H9 7402   5.628   4.886   9.729  0.7490  1.9092 -2.7137
   67CHL1   C10 7403   5.810   4.807   9.820  0.0997  0.0830 -0.1579
   67CHL1   C19 7404   5.954   4.777   9.770 -0.3299 -0.6655 -0.5405
   67CHL1  H19A 7405   5.963   4.691   9.700  1.0004 -1.4658  0.5412
   67CHL1  H19B 7406   5.987   4.865   9.712 -0.9926 -0.8448 -1.2106
   67CHL1  H19C 7407   6.030   4.773   9.852  0.0164  0.6405 -0.7743
   67CHL1    C1 7408   5.813   4.930   9.909 -0.2757  0.5360 -0.5665
   67CHL1   H1A 7409   5.856   5.012   9.848  0.4697 -0.3381 -1.2456
   67CHL1   H1B 7410   5.711   4.958   9.943  0.8380  1.4713  2.3237
   67CHL1    C2 7411   5.897   4.921  10.033 -0.0465 -0.0986  0.1501
   67CHL1   H2A 7412   5.888   5.017  10.089  1.0743 -0.1986  0.5307
   67CHL1   H2B 7413   6.006   4.917  10.010 -0.1820  0.3459 -0.5827
   67CHL1   C20 7414   5.550   4.855   9.157  0.3879  0.7497  0.1514
   67CHL1   H20 7415   5.622   4.782   9.115  0.9330  0.9972  0.6318
   67CHL1   C21 7416   5.616   4.991   9.153 -0.3578 -0.7772  0.3675
   67CHL1  H21A 7417   5.540   5.069   9.175  0.8098  0.7203 -0.7721
   67CHL1  H21B 7418   5.646   5.010   9.048  1.2419  0.1352  0.9665
   67CHL1  H21C 7419   5.702   5.008   9.220 -1.2265  2.4075  0.8304
   67CHL1   C22 7420   5.420   4.865   9.083  0.9585 -0.1643 -0.4584
   67CHL1  H22A 7421   5.430   4.893   8.976  1.8493 -0.3355 -0.4282
   67CHL1  H22B 7422   5.397   4.758   9.064 -0.3074  0.1045 -0.5296
   67CHL1   C23 7423   5.299   4.953   9.147 -0.2461  0.4057 -0.2420
   67CHL1  H23A 7424   5.245   4.884   9.215  0.0480 -1.4095 -1.7633
   67CHL1  H23B 7425   5.333   5.036   9.213 -1.5834 -0.0559  1.0959
   67CHL1   C24 7426   5.189   5.007   9.048  0.2190  0.5963 -0.6773
   67CHL1  H24A 7427   5.137   4.918   9.005 -0.1189  1.5264 -2.2687
   67CHL1  H24B 7428   5.110   5.053   9.111 -0.2256 -2.6832  1.4001
   67CHL1   C25 7429   5.232   5.106   8.936 -0.4924  0.6094  0.7142
   67CHL1   H25 7430   5.320   5.065   8.883  0.5862  0.9281  2.1870
   67CHL1   C26 7431   5.116   5.122   8.839  0.2567 -0.9356 -0.0892
   67CHL1  H26A 7432   5.123   5.219   8.786 -0.7473 -0.3183  0.8616
   67CHL1  H26B 7433   5.107   5.035   8.770 -0.0004 -0.1618 -1.0457
   67CHL1  H26C 7434   5.014   5.125   8.881 -0.4049 -0.7069 -1.6525
   67CHL1   C27 7435   5.256   5.234   9.001  0.1415 -0.4160 -0.1804
   67CHL1  H27A 7436   5.161   5.281   9.036 -0.3095 -0.6166 -1.1070
   67CHL1  H27B 7437   5.340   5.230   9.073 -1.4859 -1.3266  1.7948
   67CHL1  H27C 7438   5.287   5.303   8.919 -1.2646  1.2895  0.6466
   68CHL1    C3 7439   2.494   5.716  10.210 -0.4944 -0.5553  0.1417
   68CHL1    H3 7440   2.555   5.623  10.203  0.5621  0.1622 -0.5132
   68CHL1    O3 7441   2.482   5.749  10.346 -0.0776 -0.7785  0.0989
   68CHL1   H3' 7442   2.523   5.835  10.358  0.4871 -0.9237 -0.6701
   68CHL1    C4 7443   2.572   5.828  10.135 -0.0424  0.0331  0.1303
   68CHL1   H4A 7444   2.507   5.919  10.132 -0.6127 -0.3808 -0.6585
   68CHL1   H4B 7445   2.666   5.848  10.189  1.0312  0.8896 -1.9262
   68CHL1    C5 7446   2.602   5.791   9.990 -0.0698  0.0883  0.5667
   68CHL1    C6 7447   2.730   5.787   9.941 -0.1826  1.0684 -0.6095
   68CHL1    H6 7448   2.817   5.818  10.001 -2.0517  0.8154  2.4461
   68CHL1    C7 7449   2.753   5.735   9.802  0.2529 -0.1468  0.3122
   68CHL1   H7A 7450   2.825   5.809   9.761 -0.1900  2.3068  3.6098
   68CHL1   H7B 7451   2.815   5.643   9.808  2.6356  1.3692  0.0309
   68CHL1    C8 7452   2.626   5.728   9.714  0.5469  0.5611 -0.2752
   68CHL1    H8 7453   2.601   5.825   9.668  3.4147  1.7463  0.4338
   68CHL1   C14 7454   2.667   5.634   9.600 -0.7843  0.6234  0.5016
   68CHL1   H14 7455   2.675   5.536   9.652 -3.3180  0.3484  0.4930
   68CHL1   C15 7456   2.800   5.664   9.526 -0.3290  0.0580  0.2790
   68CHL1  H15A 7457   2.803   5.774   9.513 -1.1102  0.0245 -0.2930
   68CHL1  H15B 7458   2.887   5.628   9.584  1.4187  1.5031 -1.3190
   68CHL1   C16 7459   2.784   5.592   9.383 -0.9621  0.7693 -0.8417
   68CHL1  H16A 7460   2.790   5.665   9.299  2.3956  1.1352 -0.4156
   68CHL1  H16B 7461   2.861   5.513   9.363  0.6661  2.4422 -1.4761
   68CHL1   C17 7462   2.641   5.526   9.394  0.4064  0.4784  0.9247
   68CHL1   H17 7463   2.656   5.428   9.445  0.4359 -1.2596 -2.1971
   68CHL1   C13 7464   2.560   5.611   9.499  0.1101  0.5282 -0.1266
   68CHL1   C18 7465   2.528   5.744   9.424 -0.0643  0.4078 -0.0410
   68CHL1  H18A 7466   2.606   5.820   9.402 -0.1618  1.2904  2.4336
   68CHL1  H18B 7467   2.479   5.724   9.326 -0.4579 -1.1704  0.4506
   68CHL1  H18C 7468   2.449   5.796   9.480  0.6597 -0.1073  1.5131
   68CHL1   C12 7469   2.434   5.548   9.564  0.8036 -0.1670 -0.4859
   68CHL1  H12A 7470   2.352   5.540   9.490 -0.2529  0.1583  0.6198
   68CHL1  H12B 7471   2.443   5.446   9.608 -1.6983  0.6561  2.2483
   68CHL1   C11 7472   2.390   5.639   9.688 -1.0459  0.1427 -0.2241
   68CHL1  H11A 7473   2.362   5.739   9.648  3.9591  1.4158 -1.2803
   68CHL1  H11B 7474   2.296   5.601   9.734 -1.6997  1.9070 -0.0132
   68CHL1    C9 7475   2.509   5.662   9.788  0.2832 -0.6420 -0.5150
   68CHL1    H9 7476   2.556   5.565   9.817 -0.0663 -0.6444  0.0469
   68CHL1   C10 7477   2.477   5.734   9.915  0.0821 -0.9003 -0.6701
   68CHL1   C19 7478   2.383   5.857   9.877 -0.4254  0.1399 -0.3485
   68CHL1  H19A 7479   2.280   5.824   9.851 -0.0647 -1.2314 -0.1021
   68CHL1  H19B 7480   2.370   5.932   9.958  2.6793 -1.7678  2.1770
   68CHL1  H19C 7481   2.431   5.910   9.793 -0.5995 -1.5890 -1.5935
   68CHL1    C1 7482   2.393   5.637  10.005 -0.8744  0.4771 -0.0844
   68CHL1   H1A 7483   2.303   5.612   9.945  0.0200  3.0708 -2.7391
   68CHL1   H1B 7484   2.446   5.541  10.023 -0.5039  0.8364  0.8388
   68CHL1    C2 7485   2.360   5.687  10.145  0.2877 -0.1078  0.4204
   68CHL1   H2A 7486   2.303   5.608  10.197 -1.9216  0.7907 -0.4946
   68CHL1   H2B 7487   2.301   5.781  10.145  4.4137  2.7307  0.2287
   68CHL1   C20 7488   2.590   5.501   9.250 -0.6690 -0.1448  0.3560
   68CHL1   H20 7489   2.583   5.598   9.196 -0.6280  0.1254  0.8330
   68CHL1   C21 7490   2.452   5.428   9.244  0.1028  0.1631  0.0665
   68CHL1  H21A 7491   2.369   5.502   9.242 -1.2668 -1.2746 -3.0798
   68CHL1  H21B 7492   2.436   5.368   9.335 -0.3458  3.0393  2.0266
   68CHL1  H21C 7493   2.451   5.373   9.147  1.3274  0.3383 -0.0677
   68CHL1   C22 7494   2.690   5.410   9.163 -0.6162  0.0151  0.2463
   68CHL1  H22A 7495   2.644   5.398   9.063  1.0795  0.5474 -0.6372
   68CHL1  H22B 7496   2.780   5.472   9.145 -0.1974 -0.3578  1.0041
   68CHL1   C23 7497   2.718   5.275   9.229 -0.2246 -0.2659 -0.1852
   68CHL1  H23A 7498   2.776   5.306   9.319  1.6555  0.8424 -1.6963
   68CHL1  H23B 7499   2.627   5.214   9.249 -0.2278 -0.4520 -0.7406
   68CHL1   C24 7500   2.818   5.182   9.150  0.3478  0.2088 -0.4291
   68CHL1  H24A 7501   2.773   5.175   9.049 -1.8457 -1.4395  0.5877
   68CHL1  H24B 7502   2.917   5.231   9.163 -0.3334  1.0520  2.2023
   68CHL1   C25 7503   2.835   5.034   9.195  0.1103 -0.5786 -0.0812
   68CHL1   H25 7504   2.841   5.039   9.306 -0.5581  0.6579 -0.0831
   68CHL1   C26 7505   2.716   4.943   9.162 -0.1585  0.2118  0.1176
   68CHL1  H26A 7506   2.738   4.883   9.072 -1.2197 -0.5616  0.3507
   68CHL1  H26B 7507   2.704   4.863   9.238  0.8897 -0.8695 -0.8247
   68CHL1  H26C 7508   2.618   4.995   9.153 -0.5454 -0.5994 -0.4549
   68CHL1   C27 7509   2.973   4.980   9.154 -0.7852  0.4057  0.1758
   68CHL1  H27A 7510   3.063   5.045   9.166 -0.1711 -0.3271 -0.2875
   68CHL1  H27B 7511   2.999   4.892   9.217  0.3598  1.9756  1.9724
   68CHL1  H27C 7512   2.962   4.929   9.056 -0.4328  0.0011  0.3406
   69CHL1    C3 7513   3.292   3.118   6.600 -0.4337 -0.6981 -0.5551
   69CHL1    H3 7514   3.357   3.028   6.591  0.9650  0.0584  1.3248
   69CHL1    O3 7515   3.306   3.189   6.480  0.7078  0.3298 -0.0310
   69CHL1   H3' 7516   3.233   3.251   6.496  0.1011 -0.5120  0.5930
   69CHL1    C4 7517   3.140   3.096   6.626 -0.8747  0.6708  0.0763
   69CHL1   H4A 7518   3.072   3.178   6.596 -1.0875 -0.0222 -1.4280
   69CHL1   H4B 7519   3.116   3.012   6.558  4.1983  0.4932 -1.9963
   69CHL1    C5 7520   3.091   3.064   6.773 -0.5401 -0.0424 -0.2420
   69CHL1    C6 7521   3.015   2.958   6.804  0.2045  0.3488  0.2357
   69CHL1    H6 7522   2.984   2.894   6.720 -0.9800 -0.8141  1.5143
   69CHL1    C7 7523   2.974   2.910   6.938  0.4082 -0.1657  0.0937
   69CHL1   H7A 7524   2.867   2.879   6.936  0.1655  0.4917  1.4195
   69CHL1   H7B 7525   3.027   2.819   6.972 -0.3985 -0.9983 -0.8167
   69CHL1    C8 7526   2.998   3.021   7.047 -0.1993  0.8680  0.3426
   69CHL1    H8 7527   2.920   3.096   7.022 -0.2088  0.3563 -1.2331
   69CHL1   C14 7528   2.979   2.968   7.184 -0.1534  0.4828  0.3910
   69CHL1   H14 7529   3.060   2.892   7.190 -1.6416 -1.3575 -1.3571
   69CHL1   C15 7530   2.849   2.892   7.220  0.9660 -0.0345  0.2015
   69CHL1  H15A 7531   2.759   2.947   7.187  2.0494  1.1564 -0.8929
   69CHL1  H15B 7532   2.851   2.785   7.189 -1.1140  0.2751 -1.1944
   69CHL1   C16 7533   2.838   2.902   7.373  0.2641 -0.3738 -0.5143
   69CHL1  H16A 7534   2.738   2.920   7.419 -0.2396 -3.1684 -0.3148
   69CHL1  H16B 7535   2.854   2.796   7.404  0.7007  0.3549  1.9801
   69CHL1   C17 7536   2.951   2.992   7.413 -0.2910 -0.8407  0.0429
   69CHL1   H17 7537   3.044   2.933   7.428  0.9960  1.6077  2.7876
   69CHL1   C13 7538   2.996   3.072   7.292  0.1960  0.4333 -0.5067
   69CHL1   C18 7539   2.884   3.175   7.276  0.4610  0.2784  0.2044
   69CHL1  H18A 7540   2.881   3.217   7.173  0.5208 -1.0390 -0.3509
   69CHL1  H18B 7541   2.782   3.140   7.303 -0.5448  1.3761 -1.8712
   69CHL1  H18C 7542   2.899   3.267   7.336 -0.1557  0.6444 -0.1823
   69CHL1   C12 7543   3.139   3.131   7.285 -0.5029 -0.2233  1.2115
   69CHL1  H12A 7544   3.156   3.200   7.370 -0.4342  1.6350 -0.2349
   69CHL1  H12B 7545   3.215   3.053   7.309  0.0218 -0.2165 -0.2770
   69CHL1   C11 7546   3.166   3.196   7.144 -0.3275 -1.1690  0.4780
   69CHL1  H11A 7547   3.108   3.291   7.148  0.8274 -0.3943 -0.4481
   69CHL1  H11B 7548   3.273   3.225   7.134 -0.6456 -0.5074 -1.4466
   69CHL1    C9 7549   3.132   3.100   7.027 -0.2644 -0.1326  0.0786
   69CHL1    H9 7550   3.203   3.015   7.033  2.2555  1.7743 -0.8589
   69CHL1   C10 7551   3.151   3.157   6.885  0.7983  0.3214 -0.1649
   69CHL1   C19 7552   3.086   3.293   6.879  0.2857  0.4095 -0.3518
   69CHL1  H19A 7553   3.041   3.315   6.779 -0.8091  0.1894  0.0826
   69CHL1  H19B 7554   3.000   3.290   6.950  1.7062 -1.2648  1.3854
   69CHL1  H19C 7555   3.158   3.370   6.913  0.4275  1.1408 -2.1952
   69CHL1    C1 7556   3.301   3.170   6.852 -0.1756 -0.3437  0.2709
   69CHL1   H1A 7557   3.346   3.247   6.918  1.9328 -1.0131 -0.3349
   69CHL1   H1B 7558   3.357   3.080   6.886 -0.1854 -0.4363  0.0441
   69CHL1    C2 7559   3.337   3.208   6.709  0.5159 -0.5955  0.2335
   69CHL1   H2A 7560   3.447   3.217   6.700  0.4048  0.5802 -0.0797
   69CHL1   H2B 7561   3.304   3.313   6.695  1.8545 -0.4580 -2.2998
   69CHL1   C20 7562   2.929   3.053   7.557  0.0936  0.1138 -0.6038
   69CHL1   H20 7563   2.842   3.123   7.553  1.4648  2.1558  1.8378
   69CHL1   C21 7564   3.046   3.147   7.594  0.3408  0.3109  0.0412
   69CHL1  H21A 7565   3.039   3.242   7.537 -1.7468 -0.4227 -1.0110
   69CHL1  H21B 7566   3.148   3.105   7.578 -0.6599 -1.1505 -3.3037
   69CHL1  H21C 7567   3.033   3.177   7.700 -1.2419 -1.0155  0.2562
   69CHL1   C22 7568   2.905   2.957   7.675  0.9909  0.4766  0.1291
   69CHL1  H22A 7569   2.828   2.887   7.636  0.5872  0.4536  0.9542
   69CHL1  H22B 7570   2.993   2.890   7.686  1.0376  0.6153  0.6047
   69CHL1   C23 7571   2.857   3.016   7.808  0.1268  0.3365  0.0578
   69CHL1  H23A 7572   2.924   3.095   7.847  0.8312 -0.8757  1.4149
   69CHL1  H23B 7573   2.760   3.061   7.777 -0.8848 -1.0176  1.1393
   69CHL1   C24 7574   2.839   2.912   7.920  0.0567  0.0977 -0.2387
   69CHL1  H24A 7575   2.781   2.823   7.886  0.3003 -0.2570  0.2709
   69CHL1  H24B 7576   2.939   2.868   7.937  0.6983  1.9287  1.1238
   69CHL1   C25 7577   2.786   2.962   8.054  0.0356 -0.2111  0.3598
   69CHL1   H25 7578   2.689   3.009   8.026  0.9358  1.1582 -0.5988
   69CHL1   C26 7579   2.758   2.859   8.162 -0.4715  0.2835 -0.0236
   69CHL1  H26A 7580   2.847   2.845   8.227 -1.2445  0.3239  1.0733
   69CHL1  H26B 7581   2.672   2.899   8.220 -0.1958  0.6184  0.1582
   69CHL1  H26C 7582   2.724   2.769   8.107  0.5128  0.5521 -1.1112
   69CHL1   C27 7583   2.882   3.065   8.117 -0.1679 -0.1486  0.3590
   69CHL1  H27A 7584   2.907   3.149   8.049 -1.1649  0.8174  1.1506
   69CHL1  H27B 7585   2.847   3.097   8.218  0.8517  0.4407  0.5459
   69CHL1  H27C 7586   2.981   3.018   8.133  0.9847  2.3902  1.2790
   70CHL1    C3 7587   6.715   6.650   7.059  0.1203  0.8817  0.0811
   70CHL1    H3 7588   6.700   6.544   7.029 -0.7111  1.8628 -3.4233
   70CHL1    O3 7589   6.748   6.726   6.944  0.4997 -0.0553  0.6203
   70CHL1   H3' 7590   6.674   6.720   6.882  0.3156  0.6453  0.7723
   70CHL1    C4 7591   6.585   6.695   7.125 -0.0674  0.5544 -0.2232
   70CHL1   H4A 7592   6.593   6.805   7.133 -1.1840  0.7032 -0.9817
   70CHL1   H4B 7593   6.506   6.657   7.056  0.5145 -1.8168  0.3127
   70CHL1    C5 7594   6.574   6.623   7.258 -0.3771 -0.3218 -0.3395
   70CHL1    C6 7595   6.457   6.561   7.279  0.1020  0.7712 -0.0579
   70CHL1    H6 7596   6.390   6.552   7.193  4.6387  1.8024 -4.1727
   70CHL1    C7 7597   6.427   6.500   7.413 -0.5885  0.1141  0.7833
   70CHL1   H7A 7598   6.323   6.523   7.443 -0.3899 -0.5944  2.0989
   70CHL1   H7B 7599   6.436   6.390   7.401  2.0596  0.3968 -0.5532
   70CHL1    C8 7600   6.521   6.551   7.523  0.0064 -0.1569  0.6035
   70CHL1    H8 7601   6.506   6.654   7.561  1.0599  0.2133  0.0406
   70CHL1   C14 7602   6.495   6.452   7.643 -0.3915  0.0945 -0.1454
   70CHL1   H14 7603   6.538   6.354   7.616  4.5877  2.2295 -1.0731
   70CHL1   C15 7604   6.349   6.422   7.695  0.0116  0.1592  0.2608
   70CHL1  H15A 7605   6.285   6.509   7.721 -0.8093 -0.3400 -0.0601
   70CHL1  H15B 7606   6.313   6.342   7.626  1.9932 -1.9796  1.5591
   70CHL1   C16 7607   6.368   6.348   7.822  0.2981 -0.0052 -0.1031
   70CHL1  H16A 7608   6.296   6.391   7.894  0.1173  2.6121 -1.7100
   70CHL1  H16B 7609   6.342   6.240   7.821  1.4263 -0.2918 -0.1988
   70CHL1   C17 7610   6.513   6.367   7.867 -0.1913  0.0969 -0.4955
   70CHL1   H17 7611   6.561   6.274   7.831 -1.5457 -0.5544 -0.6393
   70CHL1   C13 7612   6.572   6.475   7.769  0.1912  0.1710 -0.0050
   70CHL1   C18 7613   6.521   6.621   7.829  0.6369  0.5956 -0.1142
   70CHL1  H18A 7614   6.542   6.708   7.763 -0.3929  1.9626  1.2736
   70CHL1  H18B 7615   6.416   6.624   7.865  1.6759  2.5891  3.1872
   70CHL1  H18C 7616   6.583   6.638   7.919  1.2699  0.9200 -0.6046
   70CHL1   C12 7617   6.716   6.471   7.732 -0.9775 -0.1570 -1.0564
   70CHL1  H12A 7618   6.783   6.495   7.817  0.2744  2.1605 -2.5890
   70CHL1  H12B 7619   6.746   6.370   7.697  0.2983  0.8391 -3.0769
   70CHL1   C11 7620   6.749   6.565   7.604 -0.3708 -0.1066 -0.9703
   70CHL1  H11A 7621   6.739   6.670   7.640  3.1714  0.6881 -1.9335
   70CHL1  H11B 7622   6.856   6.552   7.580  0.4806  1.8772  1.2935
   70CHL1    C9 7623   6.661   6.536   7.477 -0.4161  0.4862  0.2269
   70CHL1    H9 7624   6.676   6.428   7.454  0.0715  0.4587  0.6403
   70CHL1   C10 7625   6.688   6.623   7.361  0.5619 -0.1673 -0.0417
   70CHL1   C19 7626   6.724   6.775   7.403  0.1172 -0.0749 -0.1312
   70CHL1  H19A 7627   6.828   6.776   7.443  0.3121 -2.4731 -0.4212
   70CHL1  H19B 7628   6.711   6.840   7.314 -1.4725  1.4593  1.1473
   70CHL1  H19C 7629   6.664   6.811   7.489  1.3229  3.9280 -0.7957
   70CHL1    C1 7630   6.813   6.570   7.278 -0.1286  0.2947 -0.1723
   70CHL1   H1A 7631   6.896   6.556   7.350 -3.0839  0.9233  3.6641
   70CHL1   H1B 7632   6.791   6.477   7.221 -0.4741  0.7701 -0.8256
   70CHL1    C2 7633   6.842   6.651   7.148  0.2704 -0.3193  0.2190
   70CHL1   H2A 7634   6.936   6.618   7.098  1.7595  3.1667  0.4326
   70CHL1   H2B 7635   6.878   6.756   7.160  0.4976 -0.3438 -0.2114
   70CHL1   C20 7636   6.538   6.372   8.020 -1.0469 -0.2691 -0.4418
   70CHL1   H20 7637   6.495   6.467   8.059  1.1977  0.9389 -0.7197
   70CHL1   C21 7638   6.684   6.401   8.056 -0.0873 -0.0666  0.5612
   70CHL1  H21A 7639   6.755   6.338   7.999  0.2710  1.3840 -0.6776
   70CHL1  H21B 7640   6.695   6.410   8.166 -1.6236  1.5855  0.6305
   70CHL1  H21C 7641   6.719   6.502   8.024 -0.5721  0.8021  2.6251
   70CHL1   C22 7642   6.484   6.243   8.089  0.0978  0.1159 -0.1293
   70CHL1  H22A 7643   6.373   6.238   8.094  0.2027 -1.5030  1.2866
   70CHL1  H22B 7644   6.516   6.154   8.031 -0.9079  0.0862 -0.6569
   70CHL1   C23 7645   6.518   6.225   8.245 -0.2213 -0.0658  0.9496
   70CHL1  H23A 7646   6.490   6.123   8.280  1.1556 -0.0607  2.1671
   70CHL1  H23B 7647   6.628   6.231   8.262 -0.1618  1.9911  0.1705
   70CHL1   C24 7648   6.439   6.331   8.323 -0.3175  0.3950 -0.8940
   70CHL1  H24A 7649   6.476   6.424   8.275  0.8444 -0.6417 -2.1051
   70CHL1  H24B 7650   6.329   6.331   8.311 -0.3764 -1.4865 -0.6670
   70CHL1   C25 7651   6.489   6.337   8.474 -0.4787  0.1942  0.4202
   70CHL1   H25 7652   6.600   6.338   8.479 -0.1206 -4.6013 -1.7187
   70CHL1   C26 7653   6.451   6.471   8.532  0.2987  0.0701  0.1904
   70CHL1  H26A 7654   6.342   6.493   8.530  0.2559 -0.1607 -0.0785
   70CHL1  H26B 7655   6.480   6.486   8.638 -2.2807  0.6387  0.8961
   70CHL1  H26C 7656   6.503   6.554   8.480  1.1759 -0.6228 -0.0570
   70CHL1   C27 7657   6.442   6.220   8.556 -0.5658  0.3772 -0.0412
   70CHL1  H27A 7658   6.481   6.224   8.660 -0.5437 -0.6352  0.0019
   70CHL1  H27B 7659   6.332   6.232   8.568 -0.7258 -0.1308 -0.9670
   70CHL1  H27C 7660   6.470   6.121   8.514 -0.9086 -0.6397  1.9794
   71CHL1    C3 7661   1.785   1.532   6.836  0.3388 -0.4772  0.3443
   71CHL1    H3 7662   1.825   1.633   6.856 -0.5960  0.1976 -1.0230
   71CHL1    O3 7663   1.776   1.526   6.699  0.0350 -0.0127  0.2591
   71CHL1   H3' 7664   1.735   1.440   6.684  0.7940 -0.2648 -0.4832
   71CHL1    C4 7665   1.868   1.417   6.901  0.4523 -0.5042  0.3581
   71CHL1   H4A 7666   1.821   1.321   6.872  1.3515 -1.0363  0.6189
   71CHL1   H4B 7667   1.966   1.418   6.850 -0.0240 -0.0528 -0.5666
   71CHL1    C5 7668   1.869   1.431   7.055 -0.5410 -0.2918 -0.0755
   71CHL1    C6 7669   1.985   1.444   7.113  0.2235  0.5428 -0.2339
   71CHL1    H6 7670   2.079   1.431   7.057 -0.4973 -1.8869 -1.0194
   71CHL1    C7 7671   1.997   1.457   7.265 -0.0101 -0.2270  0.8058
   71CHL1   H7A 7672   2.086   1.412   7.312  0.4539  1.9693  2.2089
   71CHL1   H7B 7673   2.005   1.568   7.274 -4.0923  0.3468 -0.4292
   71CHL1    C8 7674   1.872   1.412   7.341 -0.2116 -0.4232  0.5531
   71CHL1    H8 7675   1.866   1.301   7.333  1.9846 -0.5324 -0.2325
   71CHL1   C14 7676   1.888   1.458   7.487  0.1582 -0.1308 -0.3974
   71CHL1   H14 7677   1.901   1.568   7.490 -1.1641  0.0418  2.2198
   71CHL1   C15 7678   2.013   1.407   7.564  0.5235 -0.0027 -0.5399
   71CHL1  H15A 7679   2.027   1.299   7.546  1.4422  0.4018 -2.5268
   71CHL1  H15B 7680   2.095   1.472   7.526 -1.1168  1.7899 -1.1798
   71CHL1   C16 7681   1.981   1.441   7.710  0.3742  0.0425  0.0582
   71CHL1  H16A 7682   1.994   1.356   7.781  2.0186  0.5180  0.3777
   71CHL1  H16B 7683   2.051   1.517   7.753  1.0689 -1.7833  2.4000
   71CHL1   C17 7684   1.829   1.491   7.712  0.1573 -0.2669  0.3562
   71CHL1   H17 7685   1.846   1.600   7.695  3.9925 -0.9741 -1.7789
   71CHL1   C13 7686   1.762   1.442   7.574 -0.2959 -0.2872  0.1389
   71CHL1   C18 7687   1.737   1.294   7.588  0.3190  0.3158  0.5973
   71CHL1  H18A 7688   1.646   1.267   7.646 -1.6939  0.3420 -2.3429
   71CHL1  H18B 7689   1.717   1.253   7.486 -1.0530  1.8751  0.1988
   71CHL1  H18C 7690   1.825   1.231   7.613 -1.1409 -1.9236  0.4333
   71CHL1   C12 7691   1.634   1.510   7.507 -0.0029  0.2621 -0.1504
   71CHL1  H12A 7692   1.544   1.479   7.563  0.3090 -2.3107 -0.9560
   71CHL1  H12B 7693   1.649   1.619   7.524 -1.7026  0.4329  0.3717
   71CHL1   C11 7694   1.612   1.468   7.358  0.6050 -0.3157 -0.1478
   71CHL1  H11A 7695   1.558   1.371   7.358 -0.7039  0.3797  0.0345
   71CHL1  H11B 7696   1.534   1.529   7.308  1.6114  0.5204 -0.7426
   71CHL1    C9 7697   1.745   1.468   7.269  0.3767  0.2923 -0.8064
   71CHL1    H9 7698   1.760   1.578   7.273 -2.2229  0.7007 -0.3402
   71CHL1   C10 7699   1.728   1.439   7.121 -0.3975 -0.2291 -0.7069
   71CHL1   C19 7700   1.654   1.308   7.107 -0.2536  0.0032 -0.0400
   71CHL1  H19A 7701   1.668   1.260   7.008  1.6619  0.9815 -0.2829
   71CHL1  H19B 7702   1.693   1.241   7.187  1.8094  0.4133 -0.6274
   71CHL1  H19C 7703   1.544   1.325   7.114 -0.2891 -0.6214  1.4463
   71CHL1    C1 7704   1.647   1.551   7.047 -0.1677 -0.0236 -1.0114
   71CHL1   H1A 7705   1.543   1.549   7.086  1.1295 -2.5863  2.9071
   71CHL1   H1B 7706   1.688   1.650   7.076  0.3194 -0.9426  1.7962
   71CHL1    C2 7707   1.637   1.534   6.893 -0.1046 -0.3689  0.5920
   71CHL1   H2A 7708   1.581   1.613   6.838  0.8695 -0.4428 -0.5374
   71CHL1   H2B 7709   1.598   1.433   6.866  0.6220  0.0305 -2.2633
   71CHL1   C20 7710   1.759   1.478   7.848  0.1623  0.1607 -0.2041
   71CHL1   H20 7711   1.746   1.372   7.878  0.2055  0.0302 -0.6290
   71CHL1   C21 7712   1.619   1.540   7.834  0.2176 -0.2261 -0.1378
   71CHL1  H21A 7713   1.570   1.530   7.934  0.0454 -2.3109 -0.3962
   71CHL1  H21B 7714   1.566   1.476   7.761 -2.9645  0.6465  1.2293
   71CHL1  H21C 7715   1.616   1.649   7.810  1.8386  0.0863  0.9326
   71CHL1   C22 7716   1.834   1.556   7.958 -0.3295  0.2485 -0.0005
   71CHL1  H22A 7717   1.936   1.514   7.970  0.6916  2.5464 -0.1919
   71CHL1  H22B 7718   1.837   1.662   7.925 -1.6636 -0.3491 -2.3035
   71CHL1   C23 7719   1.785   1.550   8.107 -0.2303 -0.7398  0.4197
   71CHL1  H23A 7720   1.858   1.609   8.166 -1.3596  0.6415  0.5001
   71CHL1  H23B 7721   1.684   1.592   8.123  0.1819  0.2269  0.5545
   71CHL1   C24 7722   1.796   1.403   8.158  0.2448 -0.0265  0.1104
   71CHL1  H24A 7723   1.768   1.321   8.088 -1.8427  0.1247  0.7021
   71CHL1  H24B 7724   1.901   1.389   8.192 -0.5023  0.8333  3.0268
   71CHL1   C25 7725   1.716   1.384   8.287 -0.8257 -0.1129  0.5511
   71CHL1   H25 7726   1.756   1.458   8.359  0.9144 -0.3012 -0.1794
   71CHL1   C26 7727   1.565   1.399   8.274  0.2329 -0.1180 -0.2445
   71CHL1  H26A 7728   1.534   1.505   8.278  0.4950 -0.0268 -0.5987
   71CHL1  H26B 7729   1.536   1.352   8.177  0.3649 -0.2506 -0.2201
   71CHL1  H26C 7730   1.522   1.335   8.354 -0.3754  0.5753 -0.0077
   71CHL1   C27 7731   1.753   1.244   8.358  0.2701  0.3460 -0.0977
   71CHL1  H27A 7732   1.861   1.233   8.381  0.8078  2.2157 -1.4758
   71CHL1  H27B 7733   1.699   1.231   8.454  2.1307 -0.6685  0.8673
   71CHL1  H27C 7734   1.726   1.164   8.285  1.1211  0.3971 -0.4847
   72CHL1    C3 7735   0.982   0.894   6.942  0.0727 -0.0529 -0.4533
   72CHL1    H3 7736   1.090   0.917   6.933  0.4893 -1.8857 -0.4200
   72CHL1    O3 7737   0.920   0.887   6.812  0.4307 -0.2955 -0.3952
   72CHL1   H3' 7738   0.925   0.976   6.776  0.4433 -0.7887 -1.6376
   72CHL1    C4 7739   0.973   0.754   7.017  0.9541  0.3824  0.3112
   72CHL1   H4A 7740   0.865   0.731   7.005 -0.0644  3.5334  2.1798
   72CHL1   H4B 7741   1.032   0.683   6.955  0.4658 -1.5758  1.9837
   72CHL1    C5 7742   1.007   0.752   7.162  0.3052 -0.2050 -0.3513
   72CHL1    C6 7743   1.090   0.661   7.213 -0.2804 -0.7153  0.2835
   72CHL1    H6 7744   1.118   0.582   7.141  1.8145  0.5818 -0.4175
   72CHL1    C7 7745   1.124   0.640   7.362 -0.1966 -0.4737  0.1477
   72CHL1   H7A 7746   1.103   0.536   7.395 -3.7865 -0.2449 -0.9375
   72CHL1   H7B 7747   1.234   0.654   7.369 -0.3365  0.0123  1.6814
   72CHL1    C8 7748   1.039   0.735   7.448  0.4724 -0.4584  0.1186
   72CHL1    H8 7749   0.939   0.688   7.461  0.3002  0.2927  1.7881
   72CHL1   C14 7750   1.098   0.745   7.588 -0.8905  0.0606  0.2682
   72CHL1   H14 7751   1.192   0.803   7.573 -0.9099  0.1166  0.3629
   72CHL1   C15 7752   1.125   0.608   7.660  0.8051 -0.4881  0.3037
   72CHL1  H15A 7753   1.041   0.538   7.643  0.9882 -0.2499 -1.9963
   72CHL1  H15B 7754   1.217   0.556   7.625 -0.3017 -0.6554 -2.6904
   72CHL1   C16 7755   1.141   0.648   7.809  0.1916  0.2536  0.6047
   72CHL1  H16A 7756   1.082   0.581   7.875  1.2991 -0.5127  0.8504
   72CHL1  H16B 7757   1.250   0.639   7.831  0.7321  1.3782 -1.3856
   72CHL1   C17 7758   1.096   0.793   7.819  0.0341  0.0874 -0.5630
   72CHL1   H17 7759   1.187   0.856   7.807 -0.8239  1.5047  0.1455
   72CHL1   C13 7760   1.022   0.826   7.696  0.5072  0.4118  0.4931
   72CHL1   C18 7761   0.876   0.780   7.715 -0.2776 -0.0374  0.2465
   72CHL1  H18A 7762   0.884   0.685   7.773  3.4524 -0.4380 -0.6605
   72CHL1  H18B 7763   0.816   0.847   7.780  0.5851 -1.2527  2.4048
   72CHL1  H18C 7764   0.818   0.776   7.620  0.4510 -1.1343 -0.1772
   72CHL1   C12 7765   1.026   0.971   7.637 -0.0478  0.0471 -0.3322
   72CHL1  H12A 7766   0.987   1.045   7.710  2.6856  0.9552  0.3270
   72CHL1  H12B 7767   1.131   1.005   7.644  0.3837 -1.5144  2.2148
   72CHL1   C11 7768   0.964   0.983   7.497 -0.0290 -0.1529 -1.1337
   72CHL1  H11A 7769   0.854   0.972   7.507  0.2122 -1.2177  0.8162
   72CHL1  H11B 7770   0.989   1.084   7.458 -1.1792  0.8832  0.6827
   72CHL1    C9 7771   1.018   0.876   7.398  0.3187 -0.1544  0.7785
   72CHL1    H9 7772   1.120   0.916   7.381 -0.1193  1.0512  0.9058
   72CHL1   C10 7773   0.952   0.866   7.251 -0.3694  0.4914 -0.6215
   72CHL1   C19 7774   0.805   0.822   7.267  0.1394  0.4270 -0.3882
   72CHL1  H19A 7775   0.777   0.721   7.304 -1.5571  1.2106  0.6085
   72CHL1  H19B 7776   0.742   0.899   7.316 -1.7283 -0.8382 -0.7009
   72CHL1  H19C 7777   0.756   0.816   7.168  1.0694 -1.8118 -0.7670
   72CHL1    C1 7778   0.972   1.006   7.176  0.1493 -0.2890  0.1300
   72CHL1   H1A 7779   0.931   1.088   7.239  0.6218 -0.6465  0.9137
   72CHL1   H1B 7780   1.081   1.022   7.163  0.4174  1.9161  3.6990
   72CHL1    C2 7781   0.915   0.999   7.029  0.2672  0.0443 -0.7570
   72CHL1   H2A 7782   0.913   1.101   6.985 -1.7483 -0.2520 -1.4992
   72CHL1   H2B 7783   0.808   0.968   7.035  0.7965 -1.5565  1.9164
   72CHL1   C20 7784   1.039   0.833   7.959  0.5520  0.1630  0.5897
   72CHL1   H20 7785   0.948   0.773   7.979  0.7797 -0.0914  0.8860
   72CHL1   C21 7786   1.012   0.984   7.972  0.2922  0.2025  0.6731
   72CHL1  H21A 7787   0.920   1.012   7.916 -1.2591  0.3083  3.1208
   72CHL1  H21B 7788   1.098   1.040   7.930 -0.5633  0.9903 -0.0891
   72CHL1  H21C 7789   0.982   1.014   8.075  1.5093  1.1160  0.7835
   72CHL1   C22 7790   1.119   0.782   8.081  0.6632  0.6110 -0.8591
   72CHL1  H22A 7791   1.119   0.671   8.076 -1.0083  0.2943  2.7780
   72CHL1  H22B 7792   1.227   0.807   8.077  0.4773  1.3663 -1.7035
   72CHL1   C23 7793   1.050   0.801   8.219  1.0217 -0.8093  0.2699
   72CHL1  H23A 7794   1.053   0.906   8.255  0.9525 -1.1059  1.1706
   72CHL1  H23B 7795   0.944   0.766   8.211  0.9946 -0.5916 -0.3502
   72CHL1   C24 7796   1.116   0.719   8.334  0.0031  0.3012  0.4222
   72CHL1  H24A 7797   1.111   0.611   8.310 -0.5972  0.5614 -0.6878
   72CHL1  H24B 7798   1.226   0.731   8.337 -0.0283  1.5408 -1.5459
   72CHL1   C25 7799   1.041   0.728   8.469  0.1766 -0.7429 -0.0364
   72CHL1   H25 7800   0.937   0.700   8.441  0.7784 -2.2065 -0.9358
   72CHL1   C26 7801   1.095   0.626   8.572 -0.3364 -0.2816  0.0165
   72CHL1  H26A 7802   1.204   0.643   8.582 -0.0446 -0.6541 -2.0290
   72CHL1  H26B 7803   1.056   0.632   8.676 -3.1873 -1.7257 -0.8434
   72CHL1  H26C 7804   1.084   0.523   8.530  2.3693  0.2480 -2.2283
   72CHL1   C27 7805   1.046   0.866   8.526 -0.2427 -0.2185 -0.3967
   72CHL1  H27A 7806   0.989   0.875   8.621  2.4307  3.3250  1.0809
   72CHL1  H27B 7807   1.151   0.878   8.562 -0.3590 -0.7080  0.1290
   72CHL1  H27C 7808   1.022   0.954   8.463 -0.1740  1.9454  2.3904
   73CHL1    C3 7809   2.221   2.399   6.862  0.8259  0.1055 -0.5062
   73CHL1    H3 7810   2.328   2.415   6.886  0.5506 -1.3681  2.1173
   73CHL1    O3 7811   2.202   2.381   6.724 -0.3474 -0.6766 -0.4273
   73CHL1   H3' 7812   2.107   2.367   6.724 -0.3149 -0.9028 -0.2638
   73CHL1    C4 7813   2.164   2.274   6.943 -0.2613  0.2058  0.5512
   73CHL1   H4A 7814   2.056   2.269   6.917 -0.4095  0.9979  0.9738
   73CHL1   H4B 7815   2.217   2.186   6.902 -1.2626 -0.3683  0.4530
   73CHL1    C5 7816   2.174   2.295   7.090 -0.1167  0.0732  0.4251
   73CHL1    C6 7817   2.253   2.217   7.164  0.2325  0.0296 -0.1268
   73CHL1    H6 7818   2.312   2.134   7.121 -0.0788 -0.9570  1.2635
   73CHL1    C7 7819   2.263   2.229   7.313 -0.8132  0.1897  0.7478
   73CHL1   H7A 7820   2.252   2.132   7.366  0.6397 -0.7081 -0.5062
   73CHL1   H7B 7821   2.369   2.256   7.331 -0.4548 -0.8247  0.2022
   73CHL1    C8 7822   2.156   2.324   7.372 -0.1959  0.3509  0.1001
   73CHL1    H8 7823   2.063   2.264   7.367 -0.1234  0.2241  0.2742
   73CHL1   C14 7824   2.190   2.358   7.515  0.3229 -0.4821 -0.3526
   73CHL1   H14 7825   2.277   2.427   7.509  0.1744 -0.3856 -3.1958
   73CHL1   C15 7826   2.234   2.244   7.618 -0.0054 -0.0278 -0.1772
   73CHL1  H15A 7827   2.169   2.156   7.597 -2.0453  1.3441  0.1015
   73CHL1  H15B 7828   2.342   2.218   7.611 -0.0964 -0.5761  0.3014
   73CHL1   C16 7829   2.199   2.300   7.757  0.5453 -0.6174  0.0859
   73CHL1  H16A 7830   2.121   2.242   7.811 -0.0469  1.8420  2.0431
   73CHL1  H16B 7831   2.297   2.289   7.809  0.8045 -1.6929 -0.5886
   73CHL1   C17 7832   2.146   2.445   7.732 -0.0967  0.0063  0.8334
   73CHL1   H17 7833   2.240   2.503   7.721 -0.5106  0.3950 -0.9503
   73CHL1   C13 7834   2.082   2.438   7.584  0.7984  0.0097  0.6038
   73CHL1   C18 7835   1.946   2.364   7.597 -0.3895 -0.2541 -0.0546
   73CHL1  H18A 7836   1.957   2.275   7.664 -3.1948  0.2792  1.2898
   73CHL1  H18B 7837   1.877   2.442   7.637  1.1921  0.4705  1.3929
   73CHL1  H18C 7838   1.910   2.320   7.502  0.1615  0.7066 -0.7248
   73CHL1   C12 7839   2.071   2.565   7.515  0.0207  0.8848  0.3638
   73CHL1  H12A 7840   1.988   2.628   7.554 -0.7046  0.4050 -0.3540
   73CHL1  H12B 7841   2.167   2.621   7.517  0.1158  0.8418 -1.3163
   73CHL1   C11 7842   2.043   2.547   7.364 -0.7132 -0.8413 -0.4159
   73CHL1  H11A 7843   1.937   2.512   7.356 -1.1230  0.2193  0.1292
   73CHL1  H11B 7844   2.037   2.650   7.323 -0.9156 -0.7960 -0.2803
   73CHL1    C9 7845   2.126   2.445   7.290 -0.6664 -0.6359 -0.2583
   73CHL1    H9 7846   2.227   2.490   7.299 -1.2742  0.4894  1.1871
   73CHL1   C10 7847   2.096   2.410   7.148  0.0912  0.5432 -0.0926
   73CHL1   C19 7848   1.946   2.378   7.134  0.2175  0.1902 -0.0472
   73CHL1  H19A 7849   1.884   2.466   7.162  1.2563  1.5177 -1.7235
   73CHL1  H19B 7850   1.907   2.335   7.039  0.3087 -1.1235  0.4828
   73CHL1  H19C 7851   1.919   2.291   7.199  1.4086  0.0770  0.3176
   73CHL1    C1 7852   2.134   2.539   7.051  0.0766  0.5339  0.0973
   73CHL1   H1A 7853   2.058   2.617   7.073 -0.4011  0.3082 -0.7431
   73CHL1   H1B 7854   2.232   2.582   7.085  0.3745 -0.9888  1.2697
   73CHL1    C2 7855   2.128   2.510   6.898  0.4281  0.3633  0.3116
   73CHL1   H2A 7856   2.160   2.603   6.846 -0.5529  0.5544  0.0165
   73CHL1   H2B 7857   2.024   2.482   6.871  0.3511 -0.9718  1.8669
   73CHL1   C20 7858   2.068   2.504   7.850  0.0746 -0.4889 -0.0795
   73CHL1   H20 7859   1.976   2.448   7.877 -0.5178  0.0328 -0.9397
   73CHL1   C21 7860   2.006   2.646   7.808 -0.1649 -0.6772 -0.3622
   73CHL1  H21A 7861   1.981   2.700   7.901  1.8047  0.1563 -0.2699
   73CHL1  H21B 7862   1.914   2.646   7.746 -0.8916 -1.8342  0.6536
   73CHL1  H21C 7863   2.084   2.706   7.757 -1.1836 -0.6647 -1.9875
   73CHL1   C22 7864   2.156   2.526   7.971  0.1709  0.4663 -0.0004
   73CHL1  H22A 7865   2.231   2.445   7.980  0.1297  0.4873  0.6282
   73CHL1  H22B 7866   2.217   2.613   7.939 -1.6881  1.4196 -1.1626
   73CHL1   C23 7867   2.099   2.571   8.110 -1.4083 -0.0243  0.2004
   73CHL1  H23A 7868   2.018   2.643   8.084 -0.8650  0.8297  0.7997
   73CHL1  H23B 7869   2.055   2.485   8.164  0.2850 -0.7685  0.4293
   73CHL1   C24 7870   2.212   2.617   8.208 -0.1644 -0.2679 -0.1329
   73CHL1  H24A 7871   2.288   2.536   8.207 -0.4543 -0.6325 -2.8951
   73CHL1  H24B 7872   2.261   2.710   8.174  0.0925  0.0096  0.9808
   73CHL1   C25 7873   2.174   2.654   8.354  0.9110 -0.5392  0.0857
   73CHL1   H25 7874   2.141   2.560   8.403  1.1901 -1.0728 -0.7420
   73CHL1   C26 7875   2.309   2.699   8.422 -0.3337 -0.1970 -0.0828
   73CHL1  H26A 7876   2.353   2.790   8.375  2.0001 -0.5719  1.1927
   73CHL1  H26B 7877   2.301   2.712   8.532 -3.5394  3.9723 -0.5784
   73CHL1  H26C 7878   2.381   2.619   8.392  0.4056  0.7289 -0.8698
   73CHL1   C27 7879   2.083   2.769   8.373  0.3326 -0.4162  0.7628
   73CHL1  H27A 7880   1.999   2.773   8.301  1.3870 -0.5706 -0.5105
   73CHL1  H27B 7881   2.040   2.782   8.475 -1.9508  1.1449 -0.3067
   73CHL1  H27C 7882   2.139   2.862   8.348  0.3372 -0.8336 -0.8845
   74CHL1    C3 7883   1.119   2.274   6.885  0.7716  0.6463 -0.4004
   74CHL1    H3 7884   1.217   2.323   6.906  0.8218  0.7897 -0.9612
   74CHL1    O3 7885   1.070   2.295   6.756  0.2554 -0.2766  0.2541
   74CHL1   H3' 7886   1.039   2.386   6.749  0.2775 -0.0696  2.2974
   74CHL1    C4 7887   1.136   2.123   6.896  0.1409  0.3821  0.8469
   74CHL1   H4A 7888   1.041   2.068   6.877  0.6455 -1.0839  2.3880
   74CHL1   H4B 7889   1.211   2.078   6.827  2.0328  1.0354  2.4051
   74CHL1    C5 7890   1.168   2.078   7.037  0.5296 -0.0098  0.3489
   74CHL1    C6 7891   1.279   2.003   7.053 -0.5481 -0.5231  0.2108
   74CHL1    H6 7892   1.346   1.986   6.967  0.4597  1.6556  0.5159
   74CHL1    C7 7893   1.326   1.952   7.188 -1.2911 -0.0198  0.4151
   74CHL1   H7A 7894   1.355   1.844   7.187 -0.2054  0.2117  2.3498
   74CHL1   H7B 7895   1.418   2.002   7.224 -0.1899 -1.9721  0.4920
   74CHL1    C8 7896   1.212   1.966   7.296 -0.9660 -0.4857  0.1874
   74CHL1    H8 7897   1.144   1.880   7.278 -0.4186 -0.8744 -0.0824
   74CHL1   C14 7898   1.266   1.949   7.435  0.3475 -0.2061  0.9628
   74CHL1   H14 7899   1.352   2.019   7.443 -0.0931  0.5861 -0.7431
   74CHL1   C15 7900   1.333   1.809   7.465  0.7246  0.4079 -0.0144
   74CHL1  H15A 7901   1.281   1.720   7.424  1.5372  0.8002 -2.0598
   74CHL1  H15B 7902   1.436   1.803   7.424  0.6296  1.1379 -0.3773
   74CHL1   C16 7903   1.337   1.798   7.624  0.0178  0.2550  0.7808
   74CHL1  H16A 7904   1.292   1.702   7.656  0.6463 -0.2229  0.2600
   74CHL1  H16B 7905   1.437   1.807   7.672  0.1828  1.9666  0.1985
   74CHL1   C17 7906   1.245   1.921   7.668  0.1714 -0.0417  0.2020
   74CHL1   H17 7907   1.322   1.998   7.689  1.3584 -1.1435 -0.0172
   74CHL1   C13 7908   1.168   1.967   7.543  0.0438 -0.0771 -0.1994
   74CHL1   C18 7909   1.047   1.874   7.528  0.2801 -0.4080  0.5845
   74CHL1  H18A 7910   1.007   1.874   7.424 -0.4259 -0.8875  0.8427
   74CHL1  H18B 7911   1.067   1.767   7.552  1.0005  0.1261  2.5728
   74CHL1  H18C 7912   0.957   1.903   7.587 -0.5201  0.9529 -1.2199
   74CHL1   C12 7913   1.126   2.116   7.541  0.2103  0.4983  0.2524
   74CHL1  H12A 7914   1.057   2.123   7.628 -0.9999 -1.6721 -0.4498
   74CHL1  H12B 7915   1.213   2.184   7.555  0.1185  0.5926  0.3659
   74CHL1   C11 7916   1.062   2.156   7.409 -0.1416  0.4067  0.2961
   74CHL1  H11A 7917   0.969   2.095   7.402  1.4574 -2.2534  0.9883
   74CHL1  H11B 7918   1.034   2.263   7.399 -4.2189 -0.4334  0.6644
   74CHL1    C9 7919   1.143   2.109   7.284  0.2377 -0.5608  0.4922
   74CHL1    H9 7920   1.232   2.175   7.281 -0.0666 -0.1304  0.7879
   74CHL1   C10 7921   1.075   2.127   7.148  0.4756  0.2499 -0.1926
   74CHL1   C19 7922   0.943   2.035   7.129  0.5589  0.8600  0.5323
   74CHL1  H19A 7923   0.891   2.048   7.032 -0.7754 -0.9379  0.9604
   74CHL1  H19B 7924   0.972   1.928   7.134 -1.7640  0.1659  0.4732
   74CHL1  H19C 7925   0.867   2.059   7.206 -1.2839  0.6733 -1.1522
   74CHL1    C1 7926   1.039   2.275   7.130 -0.8798 -0.4389  0.2587
   74CHL1   H1A 7927   0.964   2.302   7.207  0.5882  0.7578  1.3408
   74CHL1   H1B 7928   1.124   2.339   7.161 -1.7351  1.4565 -1.1746
   74CHL1    C2 7929   1.008   2.310   6.988 -0.4008  0.0204 -0.5597
   74CHL1   H2A 7930   0.978   2.416   6.971 -0.8564  0.1185  0.7701
   74CHL1   H2B 7931   0.918   2.253   6.956 -0.0459 -0.8357 -0.0706
   74CHL1   C20 7932   1.172   1.890   7.797  0.0691  0.5687  0.1827
   74CHL1   H20 7933   1.098   1.812   7.770  1.9267 -0.7286 -1.3733
   74CHL1   C21 7934   1.091   2.004   7.855  1.1811  0.3852  0.2155
   74CHL1  H21A 7935   1.147   2.100   7.853  3.2811 -0.8137 -0.9650
   74CHL1  H21B 7936   1.073   1.978   7.962  0.8192  0.4102  0.1624
   74CHL1  H21C 7937   0.996   2.020   7.799  0.7677  1.6216  1.2074
   74CHL1   C22 7938   1.259   1.830   7.914 -0.9251 -0.2354  0.1657
   74CHL1  H22A 7939   1.203   1.755   7.974 -0.0033 -0.2062  1.0896
   74CHL1  H22B 7940   1.336   1.767   7.862 -0.7127  0.0373  0.1480
   74CHL1   C23 7941   1.334   1.928   8.000 -0.2009 -0.4455  0.0534
   74CHL1  H23A 7942   1.392   1.988   7.926 -1.2013  0.5925  0.0812
   74CHL1  H23B 7943   1.261   1.994   8.052  0.5918 -0.2276  0.9343
   74CHL1   C24 7944   1.427   1.852   8.093  0.7991 -0.7387  0.3637
   74CHL1  H24A 7945   1.361   1.786   8.154 -0.7438  0.7649  0.4023
   74CHL1  H24B 7946   1.498   1.797   8.028  1.1610  1.2683 -1.0179
   74CHL1   C25 7947   1.507   1.952   8.184  0.0777  0.8233  1.1854
   74CHL1   H25 7948   1.561   2.021   8.116 -2.3372  0.0699 -1.7172
   74CHL1   C26 7949   1.414   2.029   8.277  0.3097  0.0412 -0.1181
   74CHL1  H26A 7950   1.348   1.958   8.330 -0.6117  0.8263 -0.1806
   74CHL1  H26B 7951   1.478   2.077   8.354 -1.3546  2.4598 -0.1459
   74CHL1  H26C 7952   1.361   2.111   8.223 -2.4856 -1.5091  0.0982
   74CHL1   C27 7953   1.607   1.861   8.259 -0.1379  0.4488  0.0246
   74CHL1  H27A 7954   1.679   1.930   8.308 -0.1573  1.3121 -1.1471
   74CHL1  H27B 7955   1.561   1.795   8.336  2.7994  0.3911  1.8925
   74CHL1  H27C 7956   1.650   1.795   8.180  0.7766 -0.9292  1.5963
   75CHL1    C3 7957   3.867   4.397   6.631  0.9969  0.1394 -0.2187
   75CHL1    H3 7958   3.886   4.506   6.618  3.6908 -0.3927 -1.4613
   75CHL1    O3 7959   3.904   4.323   6.511 -0.3282  0.0291 -0.6708
   75CHL1   H3' 7960   3.884   4.229   6.521  0.1085 -0.0534 -0.5531
   75CHL1    C4 7961   3.965   4.356   6.746 -0.2505  0.4795 -0.1061
   75CHL1   H4A 7962   3.975   4.246   6.756 -1.7080  0.2308 -1.1501
   75CHL1   H4B 7963   4.054   4.404   6.701 -0.3874 -1.6496 -2.8784
   75CHL1    C5 7964   3.922   4.413   6.878  0.1316  0.5280 -1.1596
   75CHL1    C6 7965   4.003   4.493   6.950  0.3232  0.3815  1.2165
   75CHL1    H6 7966   4.106   4.510   6.915 -0.1271 -1.6275 -1.4177
   75CHL1    C7 7967   3.973   4.530   7.094 -0.1171  0.4145  0.2064
   75CHL1   H7A 7968   4.059   4.508   7.161 -0.3848 -2.8196 -0.3475
   75CHL1   H7B 7969   3.956   4.639   7.099  2.5125  0.9070 -0.1538
   75CHL1    C8 7970   3.845   4.453   7.153 -0.6135 -0.7141  0.1114
   75CHL1    H8 7971   3.877   4.349   7.174 -1.3323 -0.6739  1.5782
   75CHL1   C14 7972   3.798   4.515   7.279 -0.4365 -0.1151 -0.2900
   75CHL1   H14 7973   3.751   4.613   7.256 -1.2223 -0.3324  0.3129
   75CHL1   C15 7974   3.903   4.545   7.379  0.2873  0.3450  0.1068
   75CHL1  H15A 7975   3.961   4.451   7.392  1.5358  1.3344  2.2805
   75CHL1  H15B 7976   3.977   4.627   7.363  1.3336 -0.4747  0.6216
   75CHL1   C16 7977   3.829   4.575   7.509  0.4301  0.6290 -0.0090
   75CHL1  H16A 7978   3.870   4.505   7.584 -1.0324 -0.5810 -0.2864
   75CHL1  H16B 7979   3.835   4.682   7.539  0.1118  0.7331 -0.2943
   75CHL1   C17 7980   3.678   4.534   7.486 -0.2578  0.5604 -0.5129
   75CHL1   H17 7981   3.629   4.632   7.468 -1.6256 -0.3555 -2.0731
   75CHL1   C13 7982   3.683   4.447   7.360 -0.3818 -0.0705 -0.6317
   75CHL1   C18 7983   3.725   4.305   7.401  0.2193 -0.0497  0.0322
   75CHL1  H18A 7984   3.635   4.249   7.434  1.3254 -0.9396  1.6803
   75CHL1  H18B 7985   3.781   4.255   7.319 -0.2688 -0.7015  0.0857
   75CHL1  H18C 7986   3.790   4.305   7.491  0.0878 -3.3290  0.2707
   75CHL1   C12 7987   3.566   4.453   7.257 -0.1474 -0.1148 -0.6497
   75CHL1  H12A 7988   3.483   4.395   7.303  0.3379  0.2545  0.7062
   75CHL1  H12B 7989   3.523   4.555   7.251 -0.1486 -0.0231  0.7177
   75CHL1   C11 7990   3.599   4.402   7.115  0.7405 -0.6664  0.0944
   75CHL1  H11A 7991   3.615   4.294   7.139  0.2404 -0.8827 -0.5180
   75CHL1  H11B 7992   3.507   4.401   7.052  1.4958  1.0160 -1.0889
   75CHL1    C9 7993   3.732   4.445   7.053 -0.1833 -0.8299 -1.4406
   75CHL1    H9 7994   3.714   4.553   7.034 -0.6445 -0.3527  1.2966
   75CHL1   C10 7995   3.779   4.378   6.929  0.2763  0.5863  0.2363
   75CHL1   C19 7996   3.773   4.224   6.948  0.1228  0.0196  0.2284
   75CHL1  H19A 7997   3.672   4.190   6.980  0.3869  2.1246  3.9166
   75CHL1  H19B 7998   3.796   4.170   6.854  0.2702  1.4315 -0.5664
   75CHL1  H19C 7999   3.844   4.197   7.030 -0.4166 -3.0530 -0.1767
   75CHL1    C1 8000   3.686   4.422   6.818  0.7294 -0.3389  0.0617
   75CHL1   H1A 8001   3.579   4.410   6.846 -0.2947  1.3602 -2.6819
   75CHL1   H1B 8002   3.692   4.531   6.800  0.2005 -0.2624  0.3259
   75CHL1    C2 8003   3.721   4.359   6.678 -0.0900 -0.3030 -0.2926
   75CHL1   H2A 8004   3.655   4.397   6.597  0.0234  0.0420 -0.2252
   75CHL1   H2B 8005   3.704   4.250   6.676 -2.4166  0.0244 -0.2801
   75CHL1   C20 8006   3.605   4.465   7.607 -0.1618  0.8795  0.1446
   75CHL1   H20 8007   3.664   4.376   7.638  1.8378  1.9552 -0.3725
   75CHL1   C21 8008   3.459   4.423   7.567 -0.2014 -0.2492 -1.2516
   75CHL1  H21A 8009   3.464   4.334   7.500  0.6729 -0.3699 -1.0332
   75CHL1  H21B 8010   3.408   4.513   7.528  1.3185  0.7712 -0.9469
   75CHL1  H21C 8011   3.396   4.395   7.655  0.0056 -2.7949 -1.8249
   75CHL1   C22 8012   3.609   4.563   7.720  0.1403  0.2661 -0.6212
   75CHL1  H22A 8013   3.713   4.600   7.729  0.4281 -0.6186 -0.1908
   75CHL1  H22B 8014   3.537   4.646   7.701 -0.2988 -0.4697 -2.3272
   75CHL1   C23 8015   3.569   4.489   7.850 -0.0184 -0.2149  0.5906
   75CHL1  H23A 8016   3.468   4.445   7.830 -0.6320  0.9135  1.0868
   75CHL1  H23B 8017   3.643   4.411   7.878  1.9837  0.4318 -2.4573
   75CHL1   C24 8018   3.571   4.584   7.976  0.2181  0.0201 -0.1454
   75CHL1  H24A 8019   3.664   4.646   7.978  0.3857 -0.0996 -2.2903
   75CHL1  H24B 8020   3.488   4.657   7.973 -0.1730 -0.1335  3.0844
   75CHL1   C25 8021   3.549   4.494   8.102  0.6423  0.1320  0.2977
   75CHL1   H25 8022   3.464   4.423   8.090  0.8723 -0.2321  0.7593
   75CHL1   C26 8023   3.680   4.419   8.136  0.0377 -0.0866  0.0576
   75CHL1  H26A 8024   3.666   4.344   8.217  1.1116  1.1482  1.4557
   75CHL1  H26B 8025   3.723   4.373   8.045 -1.2734  0.5592 -0.9161
   75CHL1  H26C 8026   3.751   4.494   8.177  1.8524 -1.8764  0.3479
   75CHL1   C27 8027   3.518   4.582   8.228  0.1462  0.1415 -0.1711
   75CHL1  H27A 8028   3.593   4.663   8.227  1.2981 -0.9039 -0.8651
   75CHL1  H27B 8029   3.414   4.620   8.219 -1.1874 -2.7716  1.4425
   75CHL1  H27C 8030   3.517   4.519   8.320 -0.9918  1.1589  0.5374
   76CHL1    C3 8031   6.668   6.218   6.977  0.2795  0.0485  0.2726
   76CHL1    H3 8032   6.753   6.283   7.006 -1.5279  1.6673  2.3229
   76CHL1    O3 8033   6.617   6.249   6.848 -0.0421  0.0643 -0.0636
   76CHL1   H3' 8034   6.550   6.182   6.838  1.9109 -1.8911 -0.9373
   76CHL1    C4 8035   6.710   6.066   6.982  0.5484  0.4826  0.4102
   76CHL1   H4A 8036   6.629   5.999   6.948  0.6361  0.2382  0.6822
   76CHL1   H4B 8037   6.790   6.063   6.905  0.8314  1.6154  0.6490
   76CHL1    C5 8038   6.752   6.024   7.116 -1.0866 -0.1766 -0.4876
   76CHL1    C6 8039   6.875   5.973   7.146  0.0871  0.9906 -0.2052
   76CHL1    H6 8040   6.945   5.955   7.063  0.5963 -1.3565  0.6699
   76CHL1    C7 8041   6.920   5.929   7.282 -0.0556 -0.5158  0.1121
   76CHL1   H7A 8042   6.977   5.834   7.273  1.9118 -0.0055  4.4327
   76CHL1   H7B 8043   6.987   6.008   7.323 -0.2421 -0.2006 -0.1878
   76CHL1    C8 8044   6.803   5.922   7.386 -0.0654  0.7408  0.1416
   76CHL1    H8 8045   6.750   5.827   7.366  1.5295 -0.0906 -0.3229
   76CHL1   C14 8046   6.853   5.907   7.524  0.1932  0.7023 -0.1556
   76CHL1   H14 8047   6.925   5.991   7.537  1.2741 -0.2649  0.2434
   76CHL1   C15 8048   6.940   5.771   7.548  0.0521 -0.5637 -0.5659
   76CHL1  H15A 8049   6.872   5.685   7.527  0.2737 -0.9434  0.2275
   76CHL1  H15B 8050   7.029   5.774   7.481  0.4554 -1.0497 -0.0581
   76CHL1   C16 8051   6.959   5.780   7.702 -0.1817  0.2493 -0.3645
   76CHL1  H16A 8052   6.922   5.684   7.743 -2.6873  0.5017 -1.8034
   76CHL1  H16B 8053   7.064   5.800   7.731 -0.9316  0.1277  2.6963
   76CHL1   C17 8054   6.869   5.898   7.748 -0.5349  0.5277 -0.2211
   76CHL1   H17 8055   6.919   5.997   7.751 -0.8348  0.6617  1.3745
   76CHL1   C13 8056   6.760   5.912   7.641  0.3016  0.1231  0.6159
   76CHL1   C18 8057   6.660   5.793   7.642 -0.0008 -0.8247  0.0782
   76CHL1  H18A 8058   6.586   5.806   7.724 -1.2604 -0.3208 -1.1080
   76CHL1  H18B 8059   6.623   5.773   7.539 -0.4460 -0.4844  0.1692
   76CHL1  H18C 8060   6.717   5.707   7.683  2.1301  0.3435 -0.2744
   76CHL1   C12 8061   6.693   6.051   7.630  0.4648 -0.1946 -0.6268
   76CHL1  H12A 8062   6.615   6.071   7.707  1.4389 -0.3826  0.4495
   76CHL1  H12B 8063   6.769   6.133   7.626 -0.0904  0.3200 -0.8393
   76CHL1   C11 8064   6.622   6.061   7.495 -0.0281  0.0046  0.7263
   76CHL1  H11A 8065   6.546   5.980   7.498 -1.4229  1.2754  0.7461
   76CHL1  H11B 8066   6.562   6.154   7.497  0.2675  0.2454 -0.5931
   76CHL1    C9 8067   6.718   6.047   7.368 -0.5777  0.0844 -0.2525
   76CHL1    H9 8068   6.787   6.134   7.376 -0.6731  0.1460 -0.0983
   76CHL1   C10 8069   6.652   6.058   7.232 -0.4343 -0.9699  0.8760
   76CHL1   C19 8070   6.538   5.966   7.220  0.4648  0.4585 -0.3542
   76CHL1  H19A 8071   6.507   5.954   7.114  0.7212  0.8401 -0.4734
   76CHL1  H19B 8072   6.547   5.863   7.260 -0.1926 -0.0891 -1.5714
   76CHL1  H19C 8073   6.453   6.012   7.275 -0.6428 -1.3436 -0.4969
   76CHL1    C1 8074   6.604   6.207   7.208 -0.1837 -0.2171 -0.4936
   76CHL1   H1A 8075   6.531   6.240   7.285  0.1112 -1.8167  0.5139
   76CHL1   H1B 8076   6.687   6.267   7.252 -0.4964 -0.5030  0.5188
   76CHL1    C2 8077   6.558   6.263   7.076  0.0037  0.0844  0.1116
   76CHL1   H2A 8078   6.529   6.369   7.066 -1.4379 -0.4041 -1.3914
   76CHL1   H2B 8079   6.474   6.200   7.039  1.3476 -0.5996 -2.0029
   76CHL1   C20 8080   6.821   5.875   7.893 -0.7023  0.0957  0.2645
   76CHL1   H20 8081   6.764   5.780   7.892 -1.3207  0.4408 -1.8219
   76CHL1   C21 8082   6.732   5.986   7.937 -0.2687 -0.2631  0.7691
   76CHL1  H21A 8083   6.777   6.088   7.932 -1.0166  0.0723  0.5974
   76CHL1  H21B 8084   6.714   5.969   8.046  1.8595 -0.0733  1.1839
   76CHL1  H21C 8085   6.634   5.987   7.883  0.3349  2.3991 -0.4583
   76CHL1   C22 8086   6.944   5.864   7.993 -0.0880  0.2880  0.2223
   76CHL1  H22A 8087   6.905   5.844   8.095 -2.9660 -2.1855 -1.2105
   76CHL1  H22B 8088   6.994   5.767   7.975  0.1449  0.7182 -1.5871
   76CHL1   C23 8089   7.040   5.986   7.991  0.0590  0.1630 -0.0226
   76CHL1  H23A 8090   7.073   6.012   7.888  0.0014  0.4656  0.0336
   76CHL1  H23B 8091   6.980   6.069   8.034 -0.6987 -1.0420  1.3253
   76CHL1   C24 8092   7.169   5.965   8.081 -0.0741 -0.1485  0.1149
   76CHL1  H24A 8093   7.229   5.882   8.037  0.4225  0.3378 -0.1352
   76CHL1  H24B 8094   7.228   6.058   8.061 -1.9978  1.0207 -0.3534
   76CHL1   C25 8095   7.143   5.937   8.232 -0.2210 -0.4127  0.1874
   76CHL1   H25 8096   7.071   5.852   8.223 -0.2331 -0.2927 -1.1034
   76CHL1   C26 8097   7.264   5.894   8.307  0.1616 -0.4172 -0.0148
   76CHL1  H26A 8098   7.308   5.804   8.258 -0.6553 -1.3310  0.8663
   76CHL1  H26B 8099   7.351   5.962   8.315  0.9784 -1.5567  1.2310
   76CHL1  H26C 8100   7.234   5.857   8.407  0.1222 -0.7771 -0.1582
   76CHL1   C27 8101   7.060   6.051   8.303 -0.3666  0.6976 -0.3662
   76CHL1  H27A 8102   7.053   6.007   8.405  3.4531 -2.1708 -1.1213
   76CHL1  H27B 8103   7.109   6.150   8.302  0.0851  0.4729 -0.9549
   76CHL1  H27C 8104   6.958   6.059   8.259 -0.2903 -0.9570 -0.9212
   77CHL1    C3 8105   0.788   3.496   6.830 -0.8211  0.5006  0.8154
   77CHL1    H3 8106   0.877   3.430   6.822 -1.1200  0.2053 -0.2507
   77CHL1    O3 8107   0.751   3.515   6.695 -0.7408  0.5098 -0.4129
   77CHL1   H3' 8108   0.703   3.435   6.672  1.6467 -1.8761  2.2002
   77CHL1    C4 8109   0.676   3.428   6.900  0.1183  1.2526  0.0764
   77CHL1   H4A 8110   0.582   3.487   6.897 -0.2742  0.6782  0.7416
   77CHL1   H4B 8111   0.655   3.336   6.841  0.8155  0.7917  0.5413
   77CHL1    C5 8112   0.705   3.402   7.041  0.5318  0.4380 -0.2527
   77CHL1    C6 8113   0.695   3.276   7.090 -0.0512 -0.6965  0.4100
   77CHL1    H6 8114   0.659   3.197   7.023 -1.4007  0.2950 -0.0719
   77CHL1    C7 8115   0.737   3.239   7.228  0.6418 -0.2172 -0.4587
   77CHL1   H7A 8116   0.678   3.165   7.285  1.0987 -0.0767  0.2128
   77CHL1   H7B 8117   0.836   3.188   7.229  1.1051  0.5881 -1.9197
   77CHL1    C8 8118   0.745   3.357   7.321  0.2259  0.3967  0.2456
   77CHL1    H8 8119   0.640   3.379   7.350  0.0768  1.5329 -1.0490
   77CHL1   C14 8120   0.822   3.323   7.443  0.1443  0.0019 -0.0108
   77CHL1   H14 8121   0.930   3.320   7.419  0.2988 -0.8320  0.7451
   77CHL1   C15 8122   0.783   3.193   7.515 -0.0303  0.2033  0.0065
   77CHL1  H15A 8123   0.674   3.178   7.526 -0.6967  2.6231 -2.3161
   77CHL1  H15B 8124   0.831   3.111   7.459 -1.8463 -1.5488  0.9015
   77CHL1   C16 8125   0.839   3.206   7.652 -0.3702 -0.8510  0.3704
   77CHL1  H16A 8126   0.772   3.176   7.736 -1.9540  2.1586  0.3346
   77CHL1  H16B 8127   0.928   3.140   7.659  0.1170 -0.2842 -0.3837
   77CHL1   C17 8128   0.884   3.353   7.668 -0.1497 -0.3245  0.3913
   77CHL1   H17 8129   0.994   3.354   7.653 -0.2823  1.0621 -0.7156
   77CHL1   C13 8130   0.812   3.435   7.550 -0.5813  0.5873 -0.0008
   77CHL1   C18 8131   0.666   3.477   7.585  0.1054 -0.2032 -0.1254
   77CHL1  H18A 8132   0.609   3.516   7.498  0.4233  1.7164  0.4778
   77CHL1  H18B 8133   0.617   3.386   7.625  1.1931 -0.7808 -0.0502
   77CHL1  H18C 8134   0.671   3.549   7.669  0.1210 -1.4263  0.9537
   77CHL1   C12 8135   0.892   3.551   7.493 -0.1745  0.0193  0.2445
   77CHL1  H12A 8136   0.893   3.636   7.564 -0.8110  1.1707 -1.0794
   77CHL1  H12B 8137   0.997   3.520   7.474  0.0526  0.5118  0.6863
   77CHL1   C11 8138   0.828   3.595   7.360 -0.3976  0.8702  0.3686
   77CHL1  H11A 8139   0.731   3.642   7.385 -1.3882  0.2352 -2.0184
   77CHL1  H11B 8140   0.896   3.666   7.308  1.4464 -2.0577 -1.5762
   77CHL1    C9 8141   0.808   3.475   7.255  0.0489 -0.7864 -0.4712
   77CHL1    H9 8142   0.910   3.436   7.235  0.9882  0.4242  1.5872
   77CHL1   C10 8143   0.749   3.522   7.119 -1.1436 -0.1074  0.1495
   77CHL1   C19 8144   0.621   3.610   7.136 -0.2163 -0.4177 -0.1376
   77CHL1  H19A 8145   0.537   3.563   7.192 -0.4506  1.7887  1.4948
   77CHL1  H19B 8146   0.653   3.699   7.194 -1.0380  1.7190 -2.7672
   77CHL1  H19C 8147   0.587   3.652   7.039  0.0458  0.8474  0.3066
   77CHL1    C1 8148   0.856   3.602   7.038  0.1182  0.7279  0.2936
   77CHL1   H1A 8149   0.859   3.698   7.094 -0.4503  0.4903  0.7436
   77CHL1   H1B 8150   0.957   3.557   7.034  0.5277  1.7161 -1.2355
   77CHL1    C2 8151   0.820   3.630   6.893  0.9629  0.4326 -0.2033
   77CHL1   H2A 8152   0.907   3.683   6.849 -0.6023  1.2094 -2.5347
   77CHL1   H2B 8153   0.742   3.708   6.893  1.1925  0.7321  2.4723
   77CHL1   C20 8154   0.885   3.405   7.816  0.2095 -1.1034 -0.1481
   77CHL1   H20 8155   0.782   3.407   7.857  0.0061 -1.8263 -0.5857
   77CHL1   C21 8156   0.920   3.558   7.829  0.0612  0.0883  0.4201
   77CHL1  H21A 8157   0.837   3.612   7.779  1.1062  0.3591 -1.0587
   77CHL1  H21B 8158   1.012   3.582   7.772 -0.4110 -0.1177 -0.4364
   77CHL1  H21C 8159   0.911   3.591   7.935  1.1613  1.0799  0.2346
   77CHL1   C22 8160   0.971   3.307   7.904 -0.4617  0.3727  0.2381
   77CHL1  H22A 8161   0.935   3.204   7.883  2.5694 -0.6480 -0.4858
   77CHL1  H22B 8162   1.081   3.308   7.885 -0.1645  1.3243  1.8430
   77CHL1   C23 8163   0.950   3.327   8.058  0.2631  0.5320 -0.0777
   77CHL1  H23A 8164   1.032   3.277   8.113  0.1575  0.5552  0.1025
   77CHL1  H23B 8165   0.962   3.435   8.080 -1.0156  0.4914  0.9950
   77CHL1   C24 8166   0.816   3.273   8.113 -0.5442 -0.4289 -0.1847
   77CHL1  H24A 8167   0.752   3.342   8.054  1.8269  1.1789 -1.0089
   77CHL1  H24B 8168   0.809   3.166   8.084 -0.0274 -0.0224 -1.8771
   77CHL1   C25 8169   0.786   3.297   8.263 -0.0716  0.0867 -0.7558
   77CHL1   H25 8170   0.826   3.399   8.280 -0.6721  0.1957  0.0651
   77CHL1   C26 8171   0.632   3.305   8.301  0.1586 -0.1786 -0.0118
   77CHL1  H26A 8172   0.619   3.371   8.389 -0.8815 -2.7688  1.8685
   77CHL1  H26B 8173   0.563   3.339   8.220 -0.3780 -2.2406 -0.4839
   77CHL1  H26C 8174   0.596   3.204   8.328  0.5939 -0.9208 -1.9973
   77CHL1   C27 8175   0.853   3.196   8.353  0.0019  0.5833 -0.0897
   77CHL1  H27A 8176   0.839   3.213   8.462  1.0958  1.8164 -0.1235
   77CHL1  H27B 8177   0.818   3.094   8.324  0.0619 -0.0069  1.7404
   77CHL1  H27C 8178   0.962   3.193   8.331  0.8124 -1.4466  3.3363
   78CHL1    C3 8179   3.620   5.947   6.578 -0.4388  0.4049 -0.3603
   78CHL1    H3 8180   3.682   6.038   6.594 -0.2191  0.3883 -1.0799
   78CHL1    O3 8181   3.615   5.916   6.441  0.6604 -0.0013  0.1379
   78CHL1   H3' 8182   3.666   5.835   6.441  0.4797 -0.1174 -0.3029
   78CHL1    C4 8183   3.674   5.828   6.662  0.0615 -0.0977 -0.7504
   78CHL1   H4A 8184   3.635   5.726   6.640 -1.0602  0.0518  0.3764
   78CHL1   H4B 8185   3.780   5.810   6.636 -0.4051 -2.8298 -1.0126
   78CHL1    C5 8186   3.662   5.831   6.814 -0.3244 -0.0390 -0.0243
   78CHL1    C6 8187   3.761   5.822   6.898 -0.1433 -0.4223  0.8272
   78CHL1    H6 8188   3.858   5.814   6.846 -0.3223  1.7276  0.0552
   78CHL1    C7 8189   3.758   5.838   7.043 -0.4240  0.1632 -0.3151
   78CHL1   H7A 8190   3.835   5.766   7.078 -0.1007  1.3309  1.4565
   78CHL1   H7B 8191   3.795   5.938   7.073 -0.2985  0.4311 -1.3219
   78CHL1    C8 8192   3.616   5.817   7.095 -0.2337 -0.0746  0.5583
   78CHL1    H8 8193   3.591   5.709   7.089 -0.0667 -0.0267 -2.0547
   78CHL1   C14 8194   3.610   5.854   7.243  0.0445  0.3707  0.0263
   78CHL1   H14 8195   3.624   5.964   7.250  3.3006  0.0095  1.1471
   78CHL1   C15 8196   3.723   5.798   7.329  0.2415  0.2715  0.2205
   78CHL1  H15A 8197   3.733   5.691   7.299 -2.5503  0.7996 -3.3111
   78CHL1  H15B 8198   3.819   5.851   7.311  0.2095  0.1410 -0.3457
   78CHL1   C16 8199   3.668   5.814   7.473 -0.5701 -0.5373 -0.3523
   78CHL1  H16A 8200   3.678   5.723   7.536  2.3511 -0.6090 -0.8029
   78CHL1  H16B 8201   3.729   5.892   7.522  0.9211 -1.7298 -0.2340
   78CHL1   C17 8202   3.522   5.872   7.455  0.0840 -0.2327  0.4916
   78CHL1   H17 8203   3.539   5.982   7.450  2.6038 -0.5416  0.9075
   78CHL1   C13 8204   3.474   5.832   7.313  0.3541 -0.1501 -0.3492
   78CHL1   C18 8205   3.420   5.686   7.311 -0.4240  0.0306  0.2871
   78CHL1  H18A 8206   3.396   5.654   7.208  0.5877 -1.3367  0.4582
   78CHL1  H18B 8207   3.497   5.616   7.350 -0.9656 -0.8929 -0.2877
   78CHL1  H18C 8208   3.325   5.684   7.368 -1.6775  0.8378 -1.6921
   78CHL1   C12 8209   3.367   5.921   7.235 -0.0085 -0.2250  0.4360
   78CHL1  H12A 8210   3.264   5.903   7.274 -0.7386 -1.0632 -1.7280
   78CHL1  H12B 8211   3.399   6.027   7.250  3.6055 -0.7933 -2.0644
   78CHL1   C11 8212   3.369   5.888   7.087  0.6864 -0.7896  0.5100
   78CHL1  H11A 8213   3.330   5.785   7.077  0.1034 -0.3818 -2.0797
   78CHL1  H11B 8214   3.300   5.950   7.027 -1.3495 -1.6784  1.8442
   78CHL1    C9 8215   3.515   5.901   7.014  0.7257  0.3599 -0.3638
   78CHL1    H9 8216   3.546   6.007   7.003  1.7420  0.2292  0.9992
   78CHL1   C10 8217   3.512   5.866   6.866 -0.1808 -0.4457  0.2851
   78CHL1   C19 8218   3.415   5.750   6.830  0.1323 -0.3388  0.1977
   78CHL1  H19A 8219   3.449   5.656   6.880 -5.5260 -2.3060  1.1802
   78CHL1  H19B 8220   3.310   5.782   6.849  0.2480  0.6261 -0.7006
   78CHL1  H19C 8221   3.430   5.726   6.723  1.9727  0.5271  0.2419
   78CHL1    C1 8222   3.475   5.994   6.782  0.6036  0.4680 -0.4093
   78CHL1   H1A 8223   3.382   6.034   6.828 -0.1334 -0.8814 -0.6647
   78CHL1   H1B 8224   3.552   6.072   6.797  1.9849 -0.7820 -0.8164
   78CHL1    C2 8225   3.475   5.979   6.631 -0.0649  0.3910 -0.0561
   78CHL1   H2A 8226   3.434   6.073   6.589 -3.8007 -1.2489 -0.5397
   78CHL1   H2B 8227   3.394   5.907   6.606 -0.9847  1.3961  0.0055
   78CHL1   C20 8228   3.430   5.838   7.571 -0.4715 -0.3838  0.3982
   78CHL1   H20 8229   3.388   5.737   7.553  0.4734 -0.6517 -0.3692
   78CHL1   C21 8230   3.309   5.943   7.578  0.1963  0.6859 -0.0488
   78CHL1  H21A 8231   3.241   5.934   7.490  0.0654 -3.2864  0.3024
   78CHL1  H21B 8232   3.341   6.050   7.583  0.6485  0.5539 -0.0517
   78CHL1  H21C 8233   3.250   5.914   7.667  0.9208 -2.6701 -0.5240
   78CHL1   C22 8234   3.497   5.820   7.708 -0.1767  0.0248 -0.2860
   78CHL1  H22A 8235   3.420   5.771   7.771 -1.1859  1.6732 -0.1845
   78CHL1  H22B 8236   3.588   5.758   7.721 -0.2971 -0.0685  0.0980
   78CHL1   C23 8237   3.532   5.948   7.792  0.3612  0.8591  0.2163
   78CHL1  H23A 8238   3.625   5.997   7.757  1.8365 -0.6137  1.8611
   78CHL1  H23B 8239   3.454   6.025   7.775 -1.0897 -0.7906 -1.0235
   78CHL1   C24 8240   3.560   5.905   7.941 -0.3371  0.2874 -0.0934
   78CHL1  H24A 8241   3.467   5.874   7.992 -0.6073 -0.1281 -0.8278
   78CHL1  H24B 8242   3.636   5.825   7.939  1.2090  1.6590  1.0221
   78CHL1   C25 8243   3.605   6.035   8.024 -0.0585 -0.0091  0.9713
   78CHL1   H25 8244   3.702   6.072   7.983  0.4824  0.6519  2.7468
   78CHL1   C26 8245   3.518   6.161   8.007 -0.6505 -0.5316 -0.3340
   78CHL1  H26A 8246   3.408   6.153   8.019 -1.0051  2.3052 -0.8544
   78CHL1  H26B 8247   3.547   6.257   8.056 -0.1732  0.8235 -3.0889
   78CHL1  H26C 8248   3.530   6.194   7.901  0.9821  1.8645  0.5096
   78CHL1   C27 8249   3.639   5.993   8.168 -0.0556 -0.5649  0.2507
   78CHL1  H27A 8250   3.555   5.951   8.228 -0.2397 -1.6726 -0.7489
   78CHL1  H27B 8251   3.722   5.921   8.155 -1.5503 -2.1035 -1.3058
   78CHL1  H27C 8252   3.680   6.081   8.223  0.9368 -1.0496  0.3031
   79CHL1    C3 8253   1.978   5.414   7.019 -0.6937  0.3959  1.1552
   79CHL1    H3 8254   2.084   5.382   7.030 -1.0375 -0.2417  2.9941
   79CHL1    O3 8255   1.960   5.437   6.880  0.2451  0.1205  0.1457
   79CHL1   H3' 8256   1.868   5.464   6.873  0.3464  0.6698  0.8366
   79CHL1    C4 8257   1.893   5.306   7.070 -0.1566  1.1062 -0.5203
   79CHL1   H4A 8258   1.792   5.330   7.031 -0.8694 -0.4183  0.2787
   79CHL1   H4B 8259   1.907   5.203   7.029 -4.4297 -0.0988  0.5194
   79CHL1    C5 8260   1.906   5.287   7.217  0.3876  0.0703  0.1930
   79CHL1    C6 8261   1.938   5.176   7.279  0.8397 -0.1401 -0.2149
   79CHL1    H6 8262   1.967   5.085   7.225 -1.9968 -1.0570 -0.3784
   79CHL1    C7 8263   1.939   5.156   7.426  0.2962 -0.2107  0.0305
   79CHL1   H7A 8264   1.885   5.060   7.438  0.5166 -0.3844 -0.3379
   79CHL1   H7B 8265   2.044   5.129   7.450 -0.6587 -4.5811  0.1854
   79CHL1    C8 8266   1.877   5.273   7.505  0.0038  0.0036 -0.4594
   79CHL1    H8 8267   1.766   5.261   7.505 -0.3124  2.1454 -2.3760
   79CHL1   C14 8268   1.926   5.268   7.650 -0.6359 -0.0826 -0.4220
   79CHL1   H14 8269   2.036   5.278   7.634 -0.3712 -4.1077 -2.3870
   79CHL1   C15 8270   1.919   5.136   7.728 -0.0374 -0.1186  0.0997
   79CHL1  H15A 8271   1.824   5.079   7.740 -0.4971  0.9610  2.0941
   79CHL1  H15B 8272   1.992   5.069   7.678 -1.6376 -0.9594 -1.2532
   79CHL1   C16 8273   1.967   5.185   7.869 -0.6358  0.3172  0.2159
   79CHL1  H16A 8274   1.912   5.129   7.948 -1.3124 -1.0905 -1.1864
   79CHL1  H16B 8275   2.070   5.144   7.880  0.1951  1.9213 -1.2340
   79CHL1   C17 8276   1.965   5.345   7.869 -0.6650  0.2629  0.0318
   79CHL1   H17 8277   2.069   5.372   7.842  0.2442 -1.4213  1.6179
   79CHL1   C13 8278   1.883   5.381   7.747 -0.2700  0.7376 -0.7002
   79CHL1   C18 8279   1.733   5.364   7.774  0.0037 -0.4527  0.3674
   79CHL1  H18A 8280   1.682   5.398   7.681 -0.0730  2.9730  1.5376
   79CHL1  H18B 8281   1.704   5.264   7.812 -0.8538  0.6050  2.6730
   79CHL1  H18C 8282   1.692   5.436   7.848  2.6769  0.5018  1.0559
   79CHL1   C12 8283   1.924   5.511   7.682 -0.1525 -0.3577 -0.5761
   79CHL1  H12A 8284   1.877   5.593   7.739 -0.9186 -0.4130 -1.1179
   79CHL1  H12B 8285   2.034   5.527   7.681 -0.0702 -0.9152 -1.1271
   79CHL1   C11 8286   1.869   5.521   7.537  0.2307 -0.6755 -0.1035
   79CHL1  H11A 8287   1.759   5.521   7.550  0.1447  1.0745 -0.6319
   79CHL1  H11B 8288   1.900   5.622   7.502  1.8464 -0.5736  1.5174
   79CHL1    C9 8289   1.915   5.406   7.441 -0.1741 -0.2423 -0.7474
   79CHL1    H9 8290   2.026   5.412   7.436 -0.3209  1.4873 -3.9757
   79CHL1   C10 8291   1.877   5.420   7.294  0.4334 -0.3453 -0.0187
   79CHL1   C19 8292   1.729   5.462   7.290 -0.5547  1.0049 -0.7558
   79CHL1  H19A 8293   1.671   5.391   7.352  0.1570  0.0468 -1.1745
   79CHL1  H19B 8294   1.699   5.567   7.310  0.4385  1.0731  0.5177
   79CHL1  H19C 8295   1.678   5.446   7.193 -0.2660  0.2798 -0.7905
   79CHL1    C1 8296   1.964   5.531   7.236 -0.2622 -0.2721 -0.0407
   79CHL1   H1A 8297   1.942   5.624   7.294  0.2429  0.1595 -0.5186
   79CHL1   H1B 8298   2.074   5.518   7.248 -0.1925 -0.0876 -0.4678
   79CHL1    C2 8299   1.942   5.550   7.087 -0.2906  0.0248  0.3520
   79CHL1   H2A 8300   1.998   5.637   7.048  1.2885 -2.3575 -3.1702
   79CHL1   H2B 8301   1.833   5.567   7.071 -0.5628  0.1146  2.0718
   79CHL1   C20 8302   1.925   5.390   8.009 -0.3705  0.5926 -0.5984
   79CHL1   H20 8303   1.825   5.353   8.040  0.2693  0.3377  1.2714
   79CHL1   C21 8304   1.912   5.542   8.013 -0.1248  0.0834 -0.3781
   79CHL1  H21A 8305   1.838   5.586   7.943  1.4943  1.0461 -1.5454
   79CHL1  H21B 8306   2.004   5.596   7.985 -1.4440  1.2510 -2.7603
   79CHL1  H21C 8307   1.899   5.579   8.117 -1.6877 -0.8997 -0.1753
   79CHL1   C22 8308   1.999   5.329   8.129  0.1121 -0.2118 -0.9495
   79CHL1  H22A 8309   1.962   5.380   8.220  1.2272  1.4180 -1.3657
   79CHL1  H22B 8310   1.974   5.222   8.148  3.6695 -0.9787  0.1307
   79CHL1   C23 8311   2.151   5.353   8.117  0.4357  0.5027  0.2950
   79CHL1  H23A 8312   2.193   5.283   8.041 -1.8073  0.9143 -1.4240
   79CHL1  H23B 8313   2.167   5.456   8.078 -0.4721 -0.5250 -3.1459
   79CHL1   C24 8314   2.215   5.340   8.261 -0.2469 -0.7197 -0.1216
   79CHL1  H24A 8315   2.172   5.414   8.332 -2.6471 -1.7881 -0.3528
   79CHL1  H24B 8316   2.187   5.238   8.294 -0.1263 -1.2448 -1.5694
   79CHL1   C25 8317   2.369   5.345   8.269 -0.0378  0.4036  0.4867
   79CHL1   H25 8318   2.403   5.295   8.176 -2.0068  0.6997 -0.4393
   79CHL1   C26 8319   2.421   5.491   8.264  0.3083 -0.5888 -0.1144
   79CHL1  H26A 8320   2.395   5.548   8.356 -1.9477  0.8596 -1.5537
   79CHL1  H26B 8321   2.530   5.497   8.242  0.1849  2.1004 -0.3868
   79CHL1  H26C 8322   2.392   5.545   8.171 -0.7470 -1.3283 -0.2272
   79CHL1   C27 8323   2.425   5.265   8.391 -0.3214  0.1214  0.0918
   79CHL1  H27A 8324   2.534   5.285   8.396 -0.1126 -0.6981 -1.0118
   79CHL1  H27B 8325   2.383   5.311   8.483  1.5233  0.0829  0.9953
   79CHL1  H27C 8326   2.405   5.156   8.386  0.0576  0.0332  0.4312
   80CHL1    C3 8327   5.530   4.194   6.977 -1.0383  0.7138 -0.2864
   80CHL1    H3 8328   5.620   4.131   6.987 -1.4489  0.3552  1.6567
   80CHL1    O3 8329   5.506   4.197   6.840  0.3288  0.0270 -0.3435
   80CHL1   H3' 8330   5.429   4.254   6.834  0.8629  0.7007 -1.0853
   80CHL1    C4 8331   5.409   4.128   7.053  0.5674 -0.2651 -0.1116
   80CHL1   H4A 8332   5.316   4.168   7.006 -1.6949 -1.0628  3.3146
   80CHL1   H4B 8333   5.391   4.024   7.018 -1.8803 -0.4746  1.4991
   80CHL1    C5 8334   5.412   4.116   7.202 -0.0366 -0.0061  0.2791
   80CHL1    C6 8335   5.392   4.004   7.267  0.0491  0.3548  0.4236
   80CHL1    H6 8336   5.385   3.911   7.208 -0.9918  2.1175 -2.4019
   80CHL1    C7 8337   5.378   4.000   7.419  0.0311  0.2046 -1.1942
   80CHL1   H7A 8338   5.287   3.939   7.438  0.2853 -0.0006 -0.6013
   80CHL1   H7B 8339   5.454   3.934   7.466  0.1998  2.4582  2.0624
   80CHL1    C8 8340   5.369   4.138   7.485  1.1840 -0.6151  0.8722
   80CHL1    H8 8341   5.269   4.181   7.464  1.3289 -0.1917  1.0395
   80CHL1   C14 8342   5.394   4.139   7.632 -0.2176  0.2851  0.8661
   80CHL1   H14 8343   5.502   4.120   7.652 -0.0521  0.6154  0.3351
   80CHL1   C15 8344   5.320   4.042   7.720 -0.2498 -0.2530  0.3179
   80CHL1  H15A 8345   5.214   4.040   7.685  0.0836 -0.0805 -0.7260
   80CHL1  H15B 8346   5.357   3.937   7.720  0.2730 -0.1643  3.7602
   80CHL1   C16 8347   5.325   4.097   7.864 -0.4105  1.1466  0.6929
   80CHL1  H16A 8348   5.222   4.123   7.898 -0.9582 -0.4798  0.4015
   80CHL1  H16B 8349   5.378   4.035   7.939 -1.0565 -1.2027 -0.6986
   80CHL1   C17 8350   5.402   4.232   7.858 -0.2577  0.6394  0.2878
   80CHL1   H17 8351   5.512   4.212   7.861 -0.1847  0.4572 -1.8979
   80CHL1   C13 8352   5.381   4.277   7.703 -0.1531 -0.3534  0.1705
   80CHL1   C18 8353   5.239   4.334   7.689  0.9454 -0.3752  0.2950
   80CHL1  H18A 8354   5.235   4.434   7.738 -1.0026 -1.3052  2.1946
   80CHL1  H18B 8355   5.216   4.344   7.581 -1.4125 -0.8450  0.7009
   80CHL1  H18C 8356   5.158   4.272   7.732 -1.3487 -0.2392 -3.3431
   80CHL1   C12 8357   5.494   4.363   7.646  0.9517  0.2973 -0.0633
   80CHL1  H12A 8358   5.517   4.455   7.703  0.1276  1.5020 -1.5809
   80CHL1  H12B 8359   5.596   4.320   7.651  0.4413 -0.8220  1.5427
   80CHL1   C11 8360   5.468   4.382   7.493  0.0759 -0.1348  0.6324
   80CHL1  H11A 8361   5.372   4.436   7.481  0.1401 -0.4651 -1.8061
   80CHL1  H11B 8362   5.555   4.431   7.445 -0.0830 -2.0050 -1.7474
   80CHL1    C9 8363   5.470   4.241   7.420  0.1676 -0.0720  0.8005
   80CHL1    H9 8364   5.569   4.191   7.430  0.5669  0.8384  1.4310
   80CHL1   C10 8365   5.435   4.252   7.269  0.5073  0.6068 -0.5740
   80CHL1   C19 8366   5.303   4.335   7.246  0.5379 -0.0735  0.0907
   80CHL1  H19A 8367   5.278   4.351   7.139 -0.4135 -1.4717  0.0601
   80CHL1  H19B 8368   5.209   4.289   7.286 -0.0821  1.7543  0.8411
   80CHL1  H19C 8369   5.311   4.437   7.289  0.1599  0.1668 -0.3940
   80CHL1    C1 8370   5.554   4.318   7.197  0.1267  0.2837 -0.1953
   80CHL1   H1A 8371   5.557   4.418   7.245 -1.1145  0.4074 -0.3477
   80CHL1   H1B 8372   5.644   4.262   7.231  0.4241  1.4183  0.9586
   80CHL1    C2 8373   5.548   4.329   7.044  0.2719 -0.3344  0.1341
   80CHL1   H2A 8374   5.646   4.375   7.017 -0.0911  0.7677  0.6744
   80CHL1   H2B 8375   5.470   4.396   7.003  0.0730 -1.1674 -0.9091
   80CHL1   C20 8376   5.370   4.329   7.970  0.0943  0.2152  0.2466
   80CHL1   H20 8377   5.264   4.360   7.964  0.2637  0.6027 -0.9300
   80CHL1   C21 8378   5.450   4.460   7.952  0.1396 -0.2456  0.2697
   80CHL1  H21A 8379   5.447   4.517   8.047 -2.2522 -1.1573  0.8184
   80CHL1  H21B 8380   5.415   4.520   7.865  2.2049 -1.0282 -1.1841
   80CHL1  H21C 8381   5.556   4.429   7.937  0.5171  0.1246  1.9366
   80CHL1   C22 8382   5.378   4.291   8.120 -0.5541 -1.0539 -0.0124
   80CHL1  H22A 8383   5.363   4.379   8.187 -0.9272 -0.0034 -1.4269
   80CHL1  H22B 8384   5.301   4.212   8.126  0.3240 -2.0661 -1.5378
   80CHL1   C23 8385   5.519   4.244   8.172 -0.5901  0.1226 -0.0932
   80CHL1  H23A 8386   5.553   4.150   8.124  1.0288 -0.1887  1.5295
   80CHL1  H23B 8387   5.591   4.320   8.135  1.3832 -0.5814  2.0444
   80CHL1   C24 8388   5.545   4.233   8.320 -0.1139 -0.3060 -0.6876
   80CHL1  H24A 8389   5.653   4.249   8.341 -0.5484 -0.2311  1.7185
   80CHL1  H24B 8390   5.489   4.313   8.373  1.0576 -0.1270  0.3389
   80CHL1   C25 8391   5.496   4.101   8.385  0.2947  0.3282 -0.0769
   80CHL1   H25 8392   5.511   4.020   8.311  0.0480 -2.2178  2.4701
   80CHL1   C26 8393   5.580   4.057   8.505 -0.2979 -0.8876  0.0684
   80CHL1  H26A 8394   5.554   3.962   8.558  3.5280 -0.9377  2.2245
   80CHL1  H26B 8395   5.686   4.048   8.472  0.1041  1.6912  0.4731
   80CHL1  H26C 8396   5.588   4.130   8.588  2.7850 -1.8212  0.7391
   80CHL1   C27 8397   5.344   4.106   8.420 -0.0904 -0.3471 -0.1821
   80CHL1  H27A 8398   5.313   4.180   8.496 -2.9916 -1.9793  0.3736
   80CHL1  H27B 8399   5.297   4.145   8.328  1.6939  2.2271 -0.0879
   80CHL1  H27C 8400   5.302   4.004   8.437 -0.1582 -0.9441 -3.3138
   81CHL1    C3 8401   4.382   4.306   6.808  0.2289  0.2178  0.0887
   81CHL1    H3 8402   4.279   4.349   6.805  0.3205  0.4100 -2.2784
   81CHL1    O3 8403   4.430   4.274   6.677 -0.7282 -0.1121 -0.2007
   81CHL1   H3' 8404   4.418   4.354   6.626 -0.2387  0.5917  0.7552
   81CHL1    C4 8405   4.485   4.404   6.883  0.3865 -0.4915 -0.2709
   81CHL1   H4A 8406   4.581   4.349   6.880 -0.3499 -1.8036 -1.0830
   81CHL1   H4B 8407   4.510   4.487   6.812 -1.7207  3.5007  3.1835
   81CHL1    C5 8408   4.446   4.437   7.028  0.2847  0.1282  0.1116
   81CHL1    C6 8409   4.432   4.562   7.071  0.2362 -0.3684  0.1048
   81CHL1    H6 8410   4.459   4.634   6.993  0.4632 -3.1542 -2.6193
   81CHL1    C7 8411   4.392   4.608   7.210 -0.5150 -0.3012 -0.0422
   81CHL1   H7A 8412   4.455   4.689   7.250  0.9616 -2.1253  1.4857
   81CHL1   H7B 8413   4.287   4.645   7.202 -1.0554 -0.8333  3.1772
   81CHL1    C8 8414   4.391   4.485   7.303  0.1815 -0.3389  0.3786
   81CHL1    H8 8415   4.500   4.468   7.317  0.4977  0.1795 -1.2752
   81CHL1   C14 8416   4.315   4.520   7.427  0.2802 -0.8785  0.3693
   81CHL1   H14 8417   4.210   4.535   7.392  0.6959  2.0619  0.1068
   81CHL1   C15 8418   4.364   4.647   7.495  0.2048 -0.3893  0.3907
   81CHL1  H15A 8419   4.474   4.644   7.512  0.2149 -0.8637  0.2391
   81CHL1  H15B 8420   4.331   4.735   7.435 -1.6928 -0.9197  0.5815
   81CHL1   C16 8421   4.274   4.638   7.620 -0.1955 -0.9153  0.0642
   81CHL1  H16A 8422   4.333   4.684   7.701 -0.2393  1.2141 -1.0286
   81CHL1  H16B 8423   4.186   4.701   7.595  0.5656  0.2643  0.2958
   81CHL1   C17 8424   4.241   4.494   7.647  0.7139  0.4714  0.4598
   81CHL1   H17 8425   4.132   4.475   7.630  1.3652 -1.7870 -1.9137
   81CHL1   C13 8426   4.314   4.420   7.538  0.9420 -0.5184  0.6725
   81CHL1   C18 8427   4.459   4.386   7.577  0.2392  0.0595 -0.2655
   81CHL1  H18A 8428   4.470   4.310   7.657 -0.0017 -1.4320 -1.6162
   81CHL1  H18B 8429   4.508   4.330   7.494  1.1012 -0.0808  0.3184
   81CHL1  H18C 8430   4.531   4.468   7.600 -0.1296  0.5519 -0.8225
   81CHL1   C12 8431   4.235   4.295   7.480  0.0553 -0.5668  0.7004
   81CHL1  H12A 8432   4.237   4.214   7.556  2.2932  0.7412  2.1648
   81CHL1  H12B 8433   4.138   4.337   7.445  0.7696  0.8227  0.3101
   81CHL1   C11 8434   4.298   4.243   7.347 -0.2387 -0.1162  0.0822
   81CHL1  H11A 8435   4.398   4.208   7.380 -0.9362  0.0930  2.6362
   81CHL1  H11B 8436   4.246   4.150   7.316 -0.2577 -0.2701  0.5644
   81CHL1    C9 8437   4.324   4.360   7.238  0.4010 -0.1092 -0.2755
   81CHL1    H9 8438   4.229   4.401   7.198  0.8510  0.4996 -0.7263
   81CHL1   C10 8439   4.412   4.313   7.117  0.2041  0.2045  0.1292
   81CHL1   C19 8440   4.553   4.254   7.167 -0.0254  0.2962  0.0210
   81CHL1  H19A 8441   4.568   4.286   7.272 -0.8263  3.0292 -0.6294
   81CHL1  H19B 8442   4.545   4.143   7.158  0.4186  0.3245 -0.9057
   81CHL1  H19C 8443   4.635   4.287   7.100 -0.3519 -2.5902 -1.9930
   81CHL1    C1 8444   4.335   4.209   7.039 -0.1118  0.0612  0.1744
   81CHL1   H1A 8445   4.315   4.114   7.094 -0.7017 -0.3364 -0.7114
   81CHL1   H1B 8446   4.234   4.255   7.031  0.6685  1.6594 -0.8604
   81CHL1    C2 8447   4.379   4.180   6.891 -0.3544  0.2295 -0.7378
   81CHL1   H2A 8448   4.308   4.100   6.858 -0.2695 -0.1625  0.0100
   81CHL1   H2B 8449   4.479   4.132   6.882 -1.3696 -1.9138 -1.4401
   81CHL1   C20 8450   4.261   4.457   7.790  0.6226  0.4431 -0.2809
   81CHL1   H20 8451   4.366   4.468   7.823  0.9663  1.0571 -1.5337
   81CHL1   C21 8452   4.232   4.304   7.808  0.1035  0.3470  0.5141
   81CHL1  H21A 8453   4.124   4.293   7.785  0.3138 -0.0362 -0.3545
   81CHL1  H21B 8454   4.238   4.267   7.913 -0.1319 -2.5636 -0.3870
   81CHL1  H21C 8455   4.306   4.242   7.751  0.6959  0.4136  1.1930
   81CHL1   C22 8456   4.170   4.549   7.891 -0.5243  0.0144  1.1926
   81CHL1  H22A 8457   4.196   4.654   7.867  0.0020 -0.3036  0.3144
   81CHL1  H22B 8458   4.062   4.544   7.862 -0.3884  0.7525  0.5081
   81CHL1   C23 8459   4.196   4.509   8.037 -0.0836 -0.2242 -0.0169
   81CHL1  H23A 8460   4.155   4.408   8.062  2.7473 -1.0801  1.6412
   81CHL1  H23B 8461   4.305   4.501   8.055 -0.4992 -0.7882  2.7457
   81CHL1   C24 8462   4.134   4.593   8.146  0.0648 -0.0675  0.1818
   81CHL1  H24A 8463   4.184   4.692   8.144  1.8688 -0.9060  0.6550
   81CHL1  H24B 8464   4.023   4.596   8.140  0.0574  1.3681  0.7891
   81CHL1   C25 8465   4.161   4.534   8.286 -0.2446 -0.2349 -1.1717
   81CHL1   H25 8466   4.269   4.512   8.298 -0.0238  1.8862  1.3375
   81CHL1   C26 8467   4.129   4.637   8.400  0.5523 -0.5394 -0.2275
   81CHL1  H26A 8468   4.196   4.724   8.392 -1.1630  0.8798  0.1171
   81CHL1  H26B 8469   4.031   4.683   8.376  0.8357  0.8377  1.1204
   81CHL1  H26C 8470   4.143   4.592   8.501  1.0176 -0.7925 -0.4025
   81CHL1   C27 8471   4.080   4.408   8.314  0.1918 -0.1105 -0.8701
   81CHL1  H27A 8472   4.090   4.370   8.418 -0.5610 -1.1078 -1.1436
   81CHL1  H27B 8473   3.976   4.443   8.301 -0.2481 -0.0614  2.0763
   81CHL1  H27C 8474   4.102   4.321   8.248 -0.7558  0.3166 -1.7773
   82CHL1    C3 8475   4.946   5.219   7.046 -0.4602 -0.1790  0.2429
   82CHL1    H3 8476   4.836   5.218   7.034 -0.3147 -0.9763 -1.2380
   82CHL1    O3 8477   4.994   5.204   6.914 -0.1483 -0.1336 -0.3730
   82CHL1   H3' 8478   4.966   5.285   6.872 -1.3018  1.0128  2.3693
   82CHL1    C4 8479   5.007   5.349   7.099  0.3548  0.4547 -0.2332
   82CHL1   H4A 8480   5.118   5.347   7.105  0.2792 -0.3136  2.1979
   82CHL1   H4B 8481   4.971   5.432   7.036  0.1583 -0.0949 -0.8528
   82CHL1    C5 8482   4.962   5.371   7.246 -0.7259  0.0762  0.5210
   82CHL1    C6 8483   4.904   5.486   7.283  0.2909  0.2639  0.0437
   82CHL1    H6 8484   4.902   5.575   7.218  0.2676 -0.6535 -1.2612
   82CHL1    C7 8485   4.872   5.516   7.430  0.6566  0.0363  0.1579
   82CHL1   H7A 8486   4.900   5.617   7.465 -1.9054  0.8186  0.1805
   82CHL1   H7B 8487   4.762   5.510   7.446  0.3623  3.3779 -0.0406
   82CHL1    C8 8488   4.929   5.409   7.527  0.3447  0.0476 -0.9898
   82CHL1    H8 8489   5.034   5.432   7.552 -0.1010 -1.0753  2.4621
   82CHL1   C14 8490   4.834   5.413   7.659 -0.6717 -0.0451  0.2504
   82CHL1   H14 8491   4.735   5.379   7.623 -0.5484 -0.7675  0.5720
   82CHL1   C15 8492   4.815   5.547   7.732  0.3925 -0.4473 -0.2325
   82CHL1  H15A 8493   4.915   5.594   7.733  1.1193 -1.8675 -1.7605
   82CHL1  H15B 8494   4.746   5.614   7.677 -0.1057 -0.3046  0.5460
   82CHL1   C16 8495   4.760   5.511   7.868 -0.3981  0.3477 -0.8263
   82CHL1  H16A 8496   4.816   5.565   7.947  2.5014  0.3816 -2.7723
   82CHL1  H16B 8497   4.653   5.539   7.876 -0.1854  0.8817  0.5053
   82CHL1   C17 8498   4.773   5.355   7.881  0.4950  0.7105  0.7889
   82CHL1   H17 8499   4.672   5.316   7.858  0.9364 -0.9364  1.5279
   82CHL1   C13 8500   4.868   5.313   7.767 -1.0690  0.1125 -0.2249
   82CHL1   C18 8501   5.010   5.342   7.814 -0.1193 -0.1314  0.0858
   82CHL1  H18A 8502   5.030   5.266   7.893  1.7076 -3.0051 -2.9075
   82CHL1  H18B 8503   5.092   5.336   7.740  0.7481 -1.9766  1.1260
   82CHL1  H18C 8504   5.013   5.443   7.862  0.2288  0.3539 -0.9269
   82CHL1   C12 8505   4.860   5.165   7.709  0.2979  0.0820 -0.5539
   82CHL1  H12A 8506   4.907   5.092   7.779 -0.4770 -1.0124 -1.1430
   82CHL1  H12B 8507   4.754   5.137   7.690  1.3466 -3.0115 -2.7174
   82CHL1   C11 8508   4.941   5.160   7.578 -0.5194 -0.1826 -0.6089
   82CHL1  H11A 8509   5.044   5.164   7.619 -0.8283 -0.1410  0.1727
   82CHL1  H11B 8510   4.923   5.059   7.535  0.4611  0.0452 -1.6092
   82CHL1    C9 8511   4.913   5.269   7.470 -0.0255  0.3578 -0.1269
   82CHL1    H9 8512   4.805   5.255   7.447  0.0574  0.5005 -0.6249
   82CHL1   C10 8513   4.986   5.251   7.339  0.5858  0.0778 -0.1656
   82CHL1   C19 8514   5.141   5.231   7.367  0.7890  0.4500  0.5864
   82CHL1  H19A 8515   5.194   5.219   7.270  2.1511  2.2401  1.0467
   82CHL1  H19B 8516   5.185   5.324   7.410  0.4378  1.0248 -0.2764
   82CHL1  H19C 8517   5.143   5.138   7.427 -4.1648 -1.2681 -1.4078
   82CHL1    C1 8518   4.928   5.125   7.268 -0.0754 -0.0266 -0.0749
   82CHL1   H1A 8519   4.948   5.034   7.329  0.9955 -1.5651 -2.5469
   82CHL1   H1B 8520   4.817   5.118   7.268 -0.0757 -0.3416  1.2513
   82CHL1    C2 8521   4.981   5.104   7.129  0.0517 -0.1378 -0.0505
   82CHL1   H2A 8522   4.937   5.011   7.088  0.4030 -0.5585  0.5249
   82CHL1   H2B 8523   5.090   5.087   7.136  0.1520  0.6684  0.4788
   82CHL1   C20 8524   4.797   5.298   8.025  0.0976 -0.0422 -0.2313
   82CHL1   H20 8525   4.907   5.303   8.040  0.1144  0.8916 -0.5819
   82CHL1   C21 8526   4.747   5.147   8.030 -0.2154 -1.1836  0.2256
   82CHL1  H21A 8527   4.767   5.104   8.130 -0.1212 -0.9763  0.2952
   82CHL1  H21B 8528   4.809   5.080   7.967 -1.7910 -1.8062 -0.7054
   82CHL1  H21C 8529   4.640   5.132   8.004 -0.4119 -2.4055  1.6203
   82CHL1   C22 8530   4.725   5.387   8.134  0.3546 -0.5364 -0.3441
   82CHL1  H22A 8531   4.768   5.489   8.141  1.9171 -1.3004  2.6903
   82CHL1  H22B 8532   4.616   5.385   8.110  0.1929 -1.0227  0.4125
   82CHL1   C23 8533   4.739   5.345   8.279  0.1703 -0.6451  0.2289
   82CHL1  H23A 8534   4.692   5.249   8.307 -0.3233 -1.0206 -1.7519
   82CHL1  H23B 8535   4.844   5.345   8.314  0.7812  1.8777 -1.2934
   82CHL1   C24 8536   4.647   5.443   8.362  0.6719 -0.2983 -0.3282
   82CHL1  H24A 8537   4.667   5.550   8.339 -0.0287 -0.5568 -2.3364
   82CHL1  H24B 8538   4.540   5.425   8.341  0.5471  0.0907 -0.0525
   82CHL1   C25 8539   4.654   5.427   8.516  0.5583 -0.2113 -0.4409
   82CHL1   H25 8540   4.666   5.319   8.536  0.3987 -0.0622  0.4991
   82CHL1   C26 8541   4.776   5.494   8.576 -0.2206 -0.0505 -0.6190
   82CHL1  H26A 8542   4.877   5.457   8.548 -0.2125 -0.5364  0.0441
   82CHL1  H26B 8543   4.776   5.603   8.555 -1.1738 -0.0147 -0.4809
   82CHL1  H26C 8544   4.779   5.484   8.686 -1.0155 -1.3037 -0.6968
   82CHL1   C27 8545   4.524   5.469   8.580 -0.3831 -0.1204 -0.5705
   82CHL1  H27A 8546   4.511   5.441   8.687 -1.8759  1.7134 -0.2259
   82CHL1  H27B 8547   4.513   5.579   8.580 -2.5436 -0.2742 -1.9366
   82CHL1  H27C 8548   4.441   5.424   8.522 -1.6120 -1.4143  2.0065
   83CHL1    C3 8549   1.350   4.675   6.765 -0.3270  0.7088 -0.1804
   83CHL1    H3 8550   1.430   4.599   6.758 -2.0157 -1.1143 -0.8581
   83CHL1    O3 8551   1.330   4.731   6.635  0.0408  0.1781 -0.1049
   83CHL1   H3' 8552   1.388   4.806   6.624  3.0983 -2.1437 -1.4865
   83CHL1    C4 8553   1.217   4.609   6.806 -0.0294  0.6072 -0.2413
   83CHL1   H4A 8554   1.136   4.683   6.797  0.2824  0.8950 -0.7348
   83CHL1   H4B 8555   1.200   4.527   6.733 -1.4362  1.1506 -0.5395
   83CHL1    C5 8556   1.216   4.551   6.946 -0.3430 -0.3953 -0.9157
   83CHL1    C6 8557   1.196   4.421   6.979  0.5626 -1.2776 -0.2016
   83CHL1    H6 8558   1.162   4.353   6.900  2.0199 -1.9198 -0.3102
   83CHL1    C7 8559   1.214   4.364   7.114 -0.3788  0.5821 -0.4802
   83CHL1   H7A 8560   1.140   4.282   7.127 -1.0218  0.8034 -2.3463
   83CHL1   H7B 8561   1.315   4.317   7.115 -0.9925 -0.8426  1.5800
   83CHL1    C8 8562   1.211   4.465   7.224  0.3348  0.1141 -0.0891
   83CHL1    H8 8563   1.107   4.505   7.232 -0.2028 -1.5104  1.9800
   83CHL1   C14 8564   1.244   4.412   7.359  0.3133  0.2118  0.0208
   83CHL1   H14 8565   1.349   4.379   7.351 -0.1412 -1.5096  0.7280
   83CHL1   C15 8566   1.187   4.280   7.397 -0.5701  0.1283 -0.2286
   83CHL1  H15A 8567   1.084   4.271   7.357 -0.8241 -0.8898  0.5950
   83CHL1  H15B 8568   1.245   4.200   7.346  1.7869  1.4030  0.3420
   83CHL1   C16 8569   1.185   4.283   7.553 -0.7749 -0.7293  0.1105
   83CHL1  H16A 8570   1.080   4.282   7.589 -1.1882  0.4105 -0.9891
   83CHL1  H16B 8571   1.245   4.200   7.595  0.7805 -0.9056 -2.2318
   83CHL1   C17 8572   1.255   4.417   7.591  0.1693  0.2516  0.9213
   83CHL1   H17 8573   1.365   4.404   7.591  0.4514  1.9666 -1.4212
   83CHL1   C13 8574   1.222   4.512   7.475 -0.9004 -0.5765  0.2027
   83CHL1   C18 8575   1.080   4.567   7.485 -0.4655 -0.3029  0.4011
   83CHL1  H18A 8576   1.015   4.485   7.522 -0.3001  0.5040  2.6483
   83CHL1  H18B 8577   1.086   4.641   7.568  2.0993 -0.3889  0.3854
   83CHL1  H18C 8578   1.046   4.620   7.393 -1.4827 -0.5753  0.6113
   83CHL1   C12 8579   1.326   4.619   7.445 -0.2397  0.4349 -0.7766
   83CHL1  H12A 8580   1.330   4.690   7.530  0.9699 -0.1392 -0.3337
   83CHL1  H12B 8581   1.427   4.573   7.455 -1.0616 -1.6118 -1.2734
   83CHL1   C11 8582   1.316   4.691   7.307  0.2250 -0.6835 -0.0255
   83CHL1  H11A 8583   1.231   4.760   7.326  1.4273  0.5357  1.1083
   83CHL1  H11B 8584   1.407   4.751   7.289  0.9354 -1.1653  1.7262
   83CHL1    C9 8585   1.297   4.589   7.188 -0.4895 -0.8597  0.4733
   83CHL1    H9 8586   1.399   4.547   7.177  1.0088  2.9595 -2.1557
   83CHL1   C10 8587   1.259   4.658   7.051  0.0481  0.0637 -0.2432
   83CHL1   C19 8588   1.139   4.751   7.082  0.5676  0.3185 -0.0803
   83CHL1  H19A 8589   1.088   4.779   6.987  0.7164  1.9789  0.2951
   83CHL1  H19B 8590   1.061   4.699   7.141  1.0487 -0.2440  0.0747
   83CHL1  H19C 8591   1.164   4.842   7.140 -0.1422 -0.5405  1.6178
   83CHL1    C1 8592   1.394   4.727   7.002  0.7238  0.3529  0.4071
   83CHL1   H1A 8593   1.423   4.815   7.063  0.8981  1.7193 -1.5469
   83CHL1   H1B 8594   1.476   4.653   7.014  2.1537  1.4527 -1.9681
   83CHL1    C2 8595   1.386   4.792   6.858  0.3901  0.4269 -0.2010
   83CHL1   H2A 8596   1.485   4.836   6.833 -0.1696  2.1387  0.4467
   83CHL1   H2B 8597   1.304   4.866   6.844  0.2303  0.4763  0.9469
   83CHL1   C20 8598   1.219   4.469   7.730 -0.5437  0.0973 -0.0444
   83CHL1   H20 8599   1.113   4.498   7.741  0.2615  2.2200  4.7771
   83CHL1   C21 8600   1.295   4.592   7.783 -0.2876  0.4603 -0.5480
   83CHL1  H21A 8601   1.293   4.679   7.714 -0.1991  0.7289 -0.2179
   83CHL1  H21B 8602   1.400   4.561   7.801  0.3598  2.4637 -0.6876
   83CHL1  H21C 8603   1.240   4.624   7.875 -0.9506 -3.2335  0.5048
   83CHL1   C22 8604   1.235   4.355   7.831 -0.4431 -0.5450 -0.5022
   83CHL1  H22A 8605   1.165   4.273   7.806 -1.7986  0.3063  0.3790
   83CHL1  H22B 8606   1.339   4.317   7.822  0.1839  1.0705 -0.4302
   83CHL1   C23 8607   1.216   4.400   7.975 -0.1962 -0.5752  0.4437
   83CHL1  H23A 8608   1.311   4.453   8.000 -0.3674  0.0480 -0.2154
   83CHL1  H23B 8609   1.134   4.475   7.976 -1.5732 -1.7870 -3.6947
   83CHL1   C24 8610   1.194   4.281   8.071  0.5092  0.3362 -0.2122
   83CHL1  H24A 8611   1.084   4.265   8.071  0.4470  0.7400 -0.6568
   83CHL1  H24B 8612   1.247   4.190   8.035 -0.3155  0.0326 -0.6720
   83CHL1   C25 8613   1.233   4.311   8.215  0.3637  0.6642  0.4963
   83CHL1   H25 8614   1.343   4.326   8.218  0.8913 -1.4346 -3.0804
   83CHL1   C26 8615   1.147   4.428   8.261  0.2791  0.1170 -0.0651
   83CHL1  H26A 8616   1.183   4.444   8.365  1.1927  3.3070 -0.7677
   83CHL1  H26B 8617   1.161   4.523   8.205 -0.9551 -0.4618 -1.4394
   83CHL1  H26C 8618   1.039   4.406   8.274 -0.3973  2.9865 -0.0460
   83CHL1   C27 8619   1.208   4.184   8.299  0.1798 -0.5419 -0.5639
   83CHL1  H27A 8620   1.288   4.107   8.288  2.4249  1.9880 -3.2171
   83CHL1  H27B 8621   1.215   4.210   8.407 -1.7996  0.1662 -0.5734
   83CHL1  H27C 8622   1.111   4.130   8.294  0.4022 -1.0728  0.4554
   84CHL1    C3 8623   2.825   0.885   6.870  0.7255  0.6343 -0.2142
   84CHL1    H3 8624   2.837   0.776   6.886  1.9018  0.9378  1.1808
   84CHL1    O3 8625   2.795   0.878   6.729  0.3701 -0.4206  0.0229
   84CHL1   H3' 8626   2.703   0.899   6.712  0.7937  1.5870  0.0083
   84CHL1    C4 8627   2.713   0.950   6.955 -0.2329 -0.1012 -0.0393
   84CHL1   H4A 8628   2.718   1.060   6.940  0.7404 -0.5050 -3.7193
   84CHL1   H4B 8629   2.612   0.915   6.924 -1.2474  2.5358 -0.0239
   84CHL1    C5 8630   2.740   0.930   7.104  0.0017 -0.1983  0.7888
   84CHL1    C6 8631   2.653   0.864   7.185 -0.6359 -0.0682 -0.9221
   84CHL1    H6 8632   2.552   0.840   7.148 -0.7792 -2.0083  0.5513
   84CHL1    C7 8633   2.672   0.846   7.331 -0.8197 -0.7603  0.0092
   84CHL1   H7A 8634   2.578   0.879   7.381 -1.3473 -1.2260 -0.6659
   84CHL1   H7B 8635   2.690   0.741   7.364 -1.3863 -0.9962 -0.4219
   84CHL1    C8 8636   2.791   0.940   7.383 -0.3163  0.7085  0.0225
   84CHL1    H8 8637   2.744   1.041   7.382  1.1566  1.4210  0.1626
   84CHL1   C14 8638   2.829   0.896   7.528 -0.0304 -0.2490 -0.2012
   84CHL1   H14 8639   2.874   0.795   7.521  0.2996 -0.0088 -1.8999
   84CHL1   C15 8640   2.715   0.894   7.632 -0.0891  0.0995  0.1104
   84CHL1  H15A 8641   2.658   0.989   7.639 -2.9790 -1.1664 -3.1061
   84CHL1  H15B 8642   2.647   0.812   7.599 -0.1695 -0.7943  2.3174
   84CHL1   C16 8643   2.792   0.879   7.765 -0.2094  0.5818  0.2880
   84CHL1  H16A 8644   2.750   0.959   7.830 -0.1368  0.0257  1.0309
   84CHL1  H16B 8645   2.783   0.777   7.808 -0.3250 -0.8571 -2.8808
   84CHL1   C17 8646   2.945   0.906   7.734 -0.3295  0.1522 -0.8047
   84CHL1   H17 8647   2.999   0.809   7.730 -1.7905 -1.0817  3.7838
   84CHL1   C13 8648   2.944   0.982   7.599  0.0159 -0.3129  0.1857
   84CHL1   C18 8649   2.905   1.125   7.622 -0.2847 -0.8689 -0.2895
   84CHL1  H18A 8650   2.833   1.137   7.705 -1.1210 -1.1599 -0.9574
   84CHL1  H18B 8651   2.996   1.186   7.635 -0.8108 -0.4031  1.3786
   84CHL1  H18C 8652   2.865   1.160   7.524 -0.8187 -2.5803 -0.7227
   84CHL1   C12 8653   3.067   0.963   7.512 -0.6975 -0.4184  1.1542
   84CHL1  H12A 8654   3.153   1.024   7.550 -0.6790 -0.6362  1.4573
   84CHL1  H12B 8655   3.099   0.857   7.518  0.3159 -0.1538  0.7903
   84CHL1   C11 8656   3.043   0.995   7.365  0.9704  0.1186 -1.0308
   84CHL1  H11A 8657   3.043   1.106   7.356  2.5661  0.7140  3.6941
   84CHL1  H11B 8658   3.131   0.971   7.301  1.5535  2.4340 -1.1772
   84CHL1    C9 8659   2.911   0.933   7.296 -0.5192 -0.4657  0.2368
   84CHL1    H9 8660   2.940   0.826   7.298  0.1720 -0.2866  1.7340
   84CHL1   C10 8661   2.883   0.983   7.153 -0.6776  0.3891  0.0566
   84CHL1   C19 8662   2.887   1.136   7.155  0.3842  0.1406  0.4755
   84CHL1  H19A 8663   2.848   1.168   7.056  0.2593  1.5246  0.9563
   84CHL1  H19B 8664   2.819   1.172   7.236 -1.2002  1.1290 -1.2280
   84CHL1  H19C 8665   2.988   1.181   7.165  0.2414  0.6497 -0.3647
   84CHL1    C1 8666   2.989   0.930   7.046  0.0938  0.0545 -0.6756
   84CHL1   H1A 8667   3.090   0.971   7.068  0.8318 -2.2154  0.3917
   84CHL1   H1B 8668   3.000   0.820   7.058  0.9874  0.3363  1.5696
   84CHL1    C2 8669   2.956   0.959   6.898 -0.3803  0.3828 -0.4737
   84CHL1   H2A 8670   3.035   0.921   6.830  0.3070 -0.1475  0.6023
   84CHL1   H2B 8671   2.951   1.066   6.870  2.3554  0.0048 -2.8460
   84CHL1   C20 8672   2.995   0.978   7.860 -0.5666  0.0262 -0.2189
   84CHL1   H20 8673   2.939   1.073   7.878 -0.1844  0.3643 -0.7922
   84CHL1   C21 8674   3.147   1.009   7.839  0.6821 -0.2614 -0.0892
   84CHL1  H21A 8675   3.191   1.076   7.915  1.3518 -1.7839  0.9198
   84CHL1  H21B 8676   3.173   1.056   7.742 -2.3206 -0.5492 -1.1571
   84CHL1  H21C 8677   3.202   0.914   7.856 -0.1667 -0.8016 -0.2880
   84CHL1   C22 8678   2.987   0.889   7.993  0.4913 -0.4594 -0.2119
   84CHL1  H22A 8679   2.879   0.865   7.998  0.7060 -1.3932  0.1245
   84CHL1  H22B 8680   3.039   0.791   7.992 -1.0350 -1.3023 -1.2583
   84CHL1   C23 8681   3.035   0.976   8.112 -0.4096  0.2250 -0.3301
   84CHL1  H23A 8682   3.144   0.998   8.112 -0.5453  0.9160 -0.0662
   84CHL1  H23B 8683   2.987   1.076   8.107 -0.9483 -0.0764 -2.2929
   84CHL1   C24 8684   3.006   0.914   8.252  0.0734  0.6172  0.2025
   84CHL1  H24A 8685   2.897   0.917   8.275  0.1592  2.1027  0.5092
   84CHL1  H24B 8686   3.031   0.806   8.252 -2.0057  0.0684  1.2724
   84CHL1   C25 8687   3.094   0.973   8.361 -0.2527  0.1443 -0.1019
   84CHL1   H25 8688   3.195   1.000   8.325  0.6374 -0.5260  1.7619
   84CHL1   C26 8689   3.021   1.099   8.414 -0.1846 -0.7015  0.0691
   84CHL1  H26A 8690   2.932   1.072   8.474 -0.1027  1.6674  1.4057
   84CHL1  H26B 8691   3.091   1.159   8.477 -0.1418  1.6143 -2.0147
   84CHL1  H26C 8692   2.991   1.154   8.322 -1.8399 -0.2449  0.8394
   84CHL1   C27 8693   3.117   0.884   8.485  0.1055  0.8936 -0.5774
   84CHL1  H27A 8694   3.143   0.778   8.464  3.0199  1.3665  0.1037
   84CHL1  H27B 8695   3.202   0.914   8.550  0.2989  0.4933 -0.6437
   84CHL1  H27C 8696   3.029   0.880   8.552  1.7361  1.4799  1.7070
   85CHL1    C3 8697   3.627   6.443   6.615  0.5536  0.3681  0.1251
   85CHL1    H3 8698   3.563   6.534   6.614 -1.9796 -1.2873 -1.2677
   85CHL1    O3 8699   3.643   6.405   6.481  1.0851  0.4560  0.5929
   85CHL1   H3' 8700   3.666   6.477   6.422 -2.5686  0.1267 -1.4943
   85CHL1    C4 8701   3.772   6.470   6.674 -0.8999 -0.2302 -0.1483
   85CHL1   H4A 8702   3.828   6.381   6.636 -0.6158  0.8481 -2.4320
   85CHL1   H4B 8703   3.816   6.562   6.631  2.3620 -1.4881  0.1529
   85CHL1    C5 8704   3.772   6.483   6.823 -0.1442 -0.5805 -0.6754
   85CHL1    C6 8705   3.834   6.594   6.881 -1.6068 -0.1676  0.1422
   85CHL1    H6 8706   3.887   6.660   6.811 -0.4212  1.8671  2.7630
   85CHL1    C7 8707   3.828   6.625   7.030  0.2711  1.3364  0.6697
   85CHL1   H7A 8708   3.927   6.663   7.062  1.0172 -0.4924  0.6041
   85CHL1   H7B 8709   3.744   6.697   7.044 -0.6844  0.0009  2.1689
   85CHL1    C8 8710   3.798   6.488   7.108  0.1697 -0.3889 -0.2141
   85CHL1    H8 8711   3.885   6.420   7.097  1.2658  1.0998 -1.1157
   85CHL1   C14 8712   3.785   6.515   7.255 -0.2613  0.1169  0.2985
   85CHL1   H14 8713   3.699   6.586   7.253 -1.6555 -1.4721  1.2059
   85CHL1   C15 8714   3.901   6.590   7.325 -0.0614  0.3095 -0.5849
   85CHL1  H15A 8715   3.993   6.537   7.294  0.0782 -0.1106  0.4846
   85CHL1  H15B 8716   3.913   6.698   7.299  1.6364  0.2393 -0.2409
   85CHL1   C16 8717   3.856   6.584   7.471  0.0536  0.8760  0.0169
   85CHL1  H16A 8718   3.947   6.560   7.531  0.5452 -0.7815 -1.3156
   85CHL1  H16B 8719   3.807   6.682   7.491  0.1241  0.5074  2.1945
   85CHL1   C17 8720   3.742   6.475   7.488  0.4410 -0.5240 -0.0349
   85CHL1   H17 8721   3.647   6.532   7.492  0.1462 -0.9670 -0.5136
   85CHL1   C13 8722   3.745   6.401   7.353 -0.3896  0.0727 -0.0111
   85CHL1   C18 8723   3.842   6.287   7.357 -0.1329 -0.8393  0.4548
   85CHL1  H18A 8724   3.827   6.198   7.421  2.0714 -1.0334  0.8060
   85CHL1  H18B 8725   3.843   6.245   7.254 -0.0517  3.2259 -1.4057
   85CHL1  H18C 8726   3.944   6.327   7.379 -0.2747 -0.2497  0.0448
   85CHL1   C12 8727   3.605   6.360   7.302 -0.4884 -0.5430 -0.0708
   85CHL1  H12A 8728   3.566   6.273   7.359  0.8328 -0.1409  1.5362
   85CHL1  H12B 8729   3.537   6.445   7.326  1.6361  2.1030 -2.5259
   85CHL1   C11 8730   3.601   6.317   7.150  0.0670 -0.6843  0.7619
   85CHL1  H11A 8731   3.650   6.217   7.145 -1.0059 -1.1794 -0.2268
   85CHL1  H11B 8732   3.495   6.311   7.119 -0.2132  0.0598  1.5304
   85CHL1    C9 8733   3.672   6.423   7.054  0.0905 -0.1454 -0.5052
   85CHL1    H9 8734   3.607   6.512   7.066 -0.1159 -0.0898 -1.8595
   85CHL1   C10 8735   3.691   6.384   6.907  0.7763 -0.0210  0.2117
   85CHL1   C19 8736   3.758   6.251   6.897  0.1188  0.1897 -0.7759
   85CHL1  H19A 8737   3.717   6.174   6.966  1.1334 -0.8698 -1.3029
   85CHL1  H19B 8738   3.760   6.207   6.795  0.0670  0.2158 -0.7877
   85CHL1  H19C 8739   3.865   6.268   6.923  0.2276  2.7446 -2.5339
   85CHL1    C1 8740   3.545   6.366   6.843  0.0795  0.4518 -0.0878
   85CHL1   H1A 8741   3.490   6.278   6.882 -1.4560  1.0231 -0.8808
   85CHL1   H1B 8742   3.492   6.462   6.862  0.9010  0.7438  0.7837
   85CHL1    C2 8743   3.558   6.332   6.692 -0.0150  0.4731 -0.2702
   85CHL1   H2A 8744   3.455   6.320   6.652 -0.1712 -1.1372  0.5162
   85CHL1   H2B 8745   3.604   6.231   6.678 -0.0548  0.4523 -0.2533
   85CHL1   C20 8746   3.763   6.400   7.625 -0.0565  0.6243  0.9194
   85CHL1   H20 8747   3.861   6.347   7.626 -0.0130  0.7028  2.6420
   85CHL1   C21 8748   3.655   6.284   7.625 -0.2508 -0.4178 -0.1984
   85CHL1  H21A 8749   3.555   6.331   7.626  0.4616  1.2280  2.1695
   85CHL1  H21B 8750   3.680   6.217   7.710  2.0688  2.4589  1.5740
   85CHL1  H21C 8751   3.665   6.215   7.538  1.5376 -0.3776 -0.0600
   85CHL1   C22 8752   3.748   6.492   7.746 -0.5437 -0.5245 -0.1386
   85CHL1  H22A 8753   3.817   6.580   7.746  1.2657 -1.8883 -0.3124
   85CHL1  H22B 8754   3.643   6.526   7.749  0.1679  1.8727  1.9497
   85CHL1   C23 8755   3.776   6.414   7.880 -0.1410 -0.0677  0.1389
   85CHL1  H23A 8756   3.689   6.349   7.902  0.2437  0.1514  2.6250
   85CHL1  H23B 8757   3.866   6.351   7.862 -0.3601 -0.1171 -0.8471
   85CHL1   C24 8758   3.801   6.495   8.005  0.0371 -0.2661  0.4571
   85CHL1  H24A 8759   3.901   6.541   7.996  0.5029 -1.1157  1.1381
   85CHL1  H24B 8760   3.722   6.573   8.010 -0.3097 -0.6839  2.6328
   85CHL1   C25 8761   3.797   6.420   8.134 -0.1203  0.2242  0.2752
   85CHL1   H25 8762   3.699   6.368   8.125  1.4776 -2.8024 -1.4278
   85CHL1   C26 8763   3.900   6.309   8.164 -0.2842  0.5771  1.1766
   85CHL1  H26A 8764   3.920   6.244   8.076  1.3470  1.3132  0.9814
   85CHL1  H26B 8765   3.999   6.354   8.182  1.1295 -0.2560 -3.2558
   85CHL1  H26C 8766   3.866   6.242   8.247 -1.2865  0.1181  0.4214
   85CHL1   C27 8767   3.806   6.513   8.260  0.0560  0.1471  0.3605
   85CHL1  H27A 8768   3.783   6.454   8.352  0.0380 -0.2603  0.0946
   85CHL1  H27B 8769   3.906   6.559   8.247  0.6864 -1.4513 -0.6301
   85CHL1  H27C 8770   3.728   6.589   8.235  0.1014 -0.5886 -2.2714
   86CHL1    C3 8771   5.615   3.419   6.990 -0.2839  0.1484  0.4836
   86CHL1    H3 8772   5.599   3.320   7.037 -0.6089 -0.8685 -1.6502
   86CHL1    O3 8773   5.592   3.419   6.852  0.2335  0.3263  0.2062
   86CHL1   H3' 8774   5.633   3.501   6.823  0.0207  0.3178 -0.1229
   86CHL1    C4 8775   5.536   3.533   7.054 -0.0923 -0.3205  0.6131
   86CHL1   H4A 8776   5.542   3.618   6.983  0.4037 -1.6567 -1.0168
   86CHL1   H4B 8777   5.430   3.503   7.046 -0.9944  2.6866  0.0703
   86CHL1    C5 8778   5.575   3.565   7.198 -0.8594  0.1140 -0.0173
   86CHL1    C6 8779   5.484   3.556   7.292  0.5593 -0.3678 -0.0307
   86CHL1    H6 8780   5.380   3.563   7.256  0.9449  1.4015 -0.8822
   86CHL1    C7 8781   5.509   3.584   7.438 -0.5199 -0.1175  0.8358
   86CHL1   H7A 8782   5.429   3.643   7.488 -1.0460 -0.3427  0.2664
   86CHL1   H7B 8783   5.509   3.485   7.488  0.1361 -1.2096 -1.2040
   86CHL1    C8 8784   5.637   3.668   7.463  0.2317  0.2077 -0.4627
   86CHL1    H8 8785   5.604   3.770   7.435 -1.3028  0.4871  2.0692
   86CHL1   C14 8786   5.675   3.672   7.613 -0.5632 -0.2466  0.1595
   86CHL1   H14 8787   5.673   3.569   7.656 -0.9248  0.2073  1.2650
   86CHL1   C15 8788   5.570   3.746   7.699  0.8073 -0.4180  0.2087
   86CHL1  H15A 8789   5.539   3.841   7.652 -0.5320 -0.3584  1.1799
   86CHL1  H15B 8790   5.490   3.673   7.722  1.2076  0.2190  4.3203
   86CHL1   C16 8791   5.643   3.767   7.830 -0.0440 -0.3286 -0.2935
   86CHL1  H16A 8792   5.633   3.875   7.853 -1.3743 -0.8713  2.0646
   86CHL1  H16B 8793   5.601   3.730   7.927 -1.2716  0.6930 -0.4147
   86CHL1   C17 8794   5.792   3.734   7.803  0.2452 -0.3569 -0.2016
   86CHL1   H17 8795   5.804   3.627   7.833 -0.2143 -0.5147 -0.5690
   86CHL1   C13 8796   5.809   3.731   7.650  0.3878 -0.1095 -0.1354
   86CHL1   C18 8797   5.825   3.872   7.597 -0.5701 -0.3789  0.9343
   86CHL1  H18A 8798   5.769   3.943   7.661  0.8884  2.5580 -0.8797
   86CHL1  H18B 8799   5.931   3.902   7.608 -0.5207  0.0082 -0.3487
   86CHL1  H18C 8800   5.796   3.881   7.490  0.3461 -1.8904  0.5158
   86CHL1   C12 8801   5.918   3.641   7.583 -0.6695  0.1330 -0.3199
   86CHL1  H12A 8802   6.019   3.686   7.596 -0.9751  0.9177 -0.5957
   86CHL1  H12B 8803   5.922   3.541   7.631 -0.2142  0.2333 -0.1383
   86CHL1   C11 8804   5.895   3.625   7.430  0.7467  0.2971  0.4993
   86CHL1  H11A 8805   5.937   3.719   7.388 -2.5296  1.1815 -1.1905
   86CHL1  H11B 8806   5.950   3.540   7.386 -0.9594 -0.5152 -0.1729
   86CHL1    C9 8807   5.747   3.595   7.385 -0.6194  0.6353  0.4381
   86CHL1    H9 8808   5.727   3.490   7.418  1.4272  0.2480  0.5758
   86CHL1   C10 8809   5.725   3.589   7.232  0.1965 -0.4028 -0.0899
   86CHL1   C19 8810   5.764   3.725   7.168 -0.6352  0.1923  0.3563
   86CHL1  H19A 8811   5.873   3.745   7.167 -0.9528  2.1208  0.2873
   86CHL1  H19B 8812   5.742   3.725   7.059  2.5941 -0.4397 -0.4031
   86CHL1  H19C 8813   5.703   3.809   7.207 -3.9114 -1.0792 -1.6140
   86CHL1    C1 8814   5.799   3.476   7.161  0.0719 -0.5835 -0.0506
   86CHL1   H1A 8815   5.909   3.493   7.165 -0.0067  0.2335 -1.0284
   86CHL1   H1B 8816   5.768   3.387   7.219 -0.3401 -1.0413 -0.9582
   86CHL1    C2 8817   5.764   3.439   7.009 -0.0414 -0.4125 -0.2366
   86CHL1   H2A 8818   5.817   3.348   6.973 -0.5508 -0.5714 -0.6022
   86CHL1   H2B 8819   5.789   3.531   6.954 -0.2112  2.3762  3.8807
   86CHL1   C20 8820   5.894   3.828   7.871  0.4034 -0.1720 -0.3141
   86CHL1   H20 8821   5.902   3.919   7.808  2.5387 -0.7171 -0.9222
   86CHL1   C21 8822   6.032   3.757   7.872  0.9914 -0.3419 -0.0059
   86CHL1  H21A 8823   6.104   3.835   7.906  0.9153 -0.2209 -0.1244
   86CHL1  H21B 8824   6.060   3.725   7.770 -2.8620 -0.0922 -1.2929
   86CHL1  H21C 8825   6.031   3.660   7.926  0.0720  0.6319  1.8595
   86CHL1   C22 8826   5.865   3.867   8.015 -0.4586  0.9164 -0.2176
   86CHL1  H22A 8827   5.765   3.915   8.029 -0.3401  1.3086 -0.7027
   86CHL1  H22B 8828   5.861   3.771   8.071 -0.6557  0.4724 -0.9646
   86CHL1   C23 8829   5.968   3.966   8.072  0.0779 -0.1656  0.4036
   86CHL1  H23A 8830   6.052   3.900   8.101 -1.0601 -1.6203  0.4699
   86CHL1  H23B 8831   6.010   4.028   7.990 -3.0287 -0.0680 -1.2487
   86CHL1   C24 8832   5.923   4.056   8.185  0.1427  0.5550  0.2631
   86CHL1  H24A 8833   5.854   4.134   8.147 -1.5287 -1.4652 -1.1308
   86CHL1  H24B 8834   5.866   3.994   8.257  0.0004  2.0091  1.4219
   86CHL1   C25 8835   6.039   4.118   8.259 -0.1099  0.4099  0.1413
   86CHL1   H25 8836   6.106   4.033   8.285 -0.7111 -0.0877  0.1047
   86CHL1   C26 8837   6.111   4.228   8.177 -0.1131 -0.2461  0.0983
   86CHL1  H26A 8838   6.171   4.174   8.101 -1.2136 -2.2934  0.6188
   86CHL1  H26B 8839   6.034   4.294   8.131 -0.0324  1.2085  1.8912
   86CHL1  H26C 8840   6.181   4.285   8.242  0.2497  0.5636 -0.9881
   86CHL1   C27 8841   5.988   4.170   8.393 -0.0813  0.7213 -0.3900
   86CHL1  H27A 8842   5.905   4.241   8.375 -0.1522  1.6483  2.8809
   86CHL1  H27B 8843   5.960   4.085   8.458  1.7439  1.9277  2.1711
   86CHL1  H27C 8844   6.078   4.223   8.432  1.1240 -0.2335 -1.7476
   87CHL1    C3 8845   0.226   1.560   7.002  0.3508 -0.2496 -0.2765
   87CHL1    H3 8846   0.205   1.669   6.990  0.9743  0.0308  1.0564
   87CHL1    O3 8847   0.297   1.526   6.882  0.0888  0.5768 -0.0519
   87CHL1   H3' 8848   0.320   1.434   6.872 -0.5150  0.2325  1.5121
   87CHL1    C4 8849   0.296   1.519   7.125 -0.4011  0.2433 -0.5408
   87CHL1   H4A 8850   0.334   1.415   7.117 -0.5241  0.1553  0.0162
   87CHL1   H4B 8851   0.392   1.575   7.120 -0.4556  0.5255  1.1932
   87CHL1    C5 8852   0.220   1.558   7.248  0.0930 -0.9085  0.4256
   87CHL1    C6 8853   0.277   1.631   7.347  0.4624 -0.0661  0.4111
   87CHL1    H6 8854   0.380   1.668   7.353  0.1007  0.7382  2.5337
   87CHL1    C7 8855   0.209   1.667   7.475 -0.0179 -0.2824  0.4249
   87CHL1   H7A 8856   0.280   1.663   7.560  0.8506  0.0803 -0.2747
   87CHL1   H7B 8857   0.178   1.774   7.470 -0.6532 -0.5283 -1.6866
   87CHL1    C8 8858   0.090   1.572   7.507  0.2920  0.4098  0.9733
   87CHL1    H8 8859   0.129   1.470   7.525  0.8830  0.5356  0.4544
   87CHL1   C14 8860   0.005   1.602   7.636 -0.6726  0.5047  0.4560
   87CHL1   H14 8861  -0.035   1.705   7.626 -1.5825  0.1303  0.0833
   87CHL1   C15 8862   0.079   1.606   7.773 -0.6216 -0.9789  0.9416
   87CHL1  H15A 8863   0.148   1.519   7.771 -2.5132 -2.7766  4.3723
   87CHL1  H15B 8864   0.135   1.701   7.781 -0.5458 -0.9712  0.3360
   87CHL1   C16 8865  -0.034   1.588   7.877  0.9557 -0.9681  0.1433
   87CHL1  H16A 8866  -0.014   1.496   7.937  0.2365 -1.2762 -0.0788
   87CHL1  H16B 8867  -0.042   1.676   7.943 -2.6080 -1.6584  0.8262
   87CHL1   C17 8868  -0.163   1.566   7.803 -0.3631 -0.1526  0.9762
   87CHL1   H17 8869  -0.206   1.667   7.782 -0.4970 -0.4893 -0.4562
   87CHL1   C13 8870  -0.124   1.522   7.655  0.0458  0.4664 -0.8393
   87CHL1   C18 8871  -0.089   1.370   7.666  0.3932 -0.9013  0.1745
   87CHL1  H18A 8872  -0.183   1.312   7.680 -0.8552  0.9286 -0.2528
   87CHL1  H18B 8873  -0.030   1.336   7.578 -0.5784  2.5297 -1.9944
   87CHL1  H18C 8874  -0.025   1.346   7.753 -0.6372  1.8995  1.8089
   87CHL1   C12 8875  -0.213   1.553   7.535  0.1033  0.5339  0.3299
   87CHL1  H12A 8876  -0.311   1.502   7.547  1.0840 -1.3995  0.5023
   87CHL1  H12B 8877  -0.228   1.663   7.536  1.6278  0.7533  1.5301
   87CHL1   C11 8878  -0.148   1.499   7.404  0.2454 -0.1929 -0.6070
   87CHL1  H11A 8879  -0.149   1.388   7.399  1.6688 -0.2224 -0.6779
   87CHL1  H11B 8880  -0.213   1.527   7.318 -1.0788 -1.0337  0.0990
   87CHL1    C9 8881  -0.004   1.561   7.384  0.0687  0.2361 -0.0065
   87CHL1    H9 8882  -0.017   1.666   7.350  1.1521  0.0593 -1.0420
   87CHL1   C10 8883   0.076   1.508   7.258  0.3020 -0.0938 -0.4304
   87CHL1   C19 8884   0.082   1.355   7.277 -0.3327  0.4213  0.2267
   87CHL1  H19A 8885  -0.009   1.308   7.235  0.8581 -1.2209 -0.6360
   87CHL1  H19B 8886   0.177   1.316   7.233  0.6220 -0.2097  2.6927
   87CHL1  H19C 8887   0.085   1.333   7.385 -0.9275  3.1799  0.8915
   87CHL1    C1 8888   0.001   1.540   7.122  0.2997 -0.4020  0.3072
   87CHL1   H1A 8889  -0.100   1.493   7.117 -0.1106  0.3442  1.2416
   87CHL1   H1B 8890  -0.028   1.646   7.107  0.4104 -0.6757 -2.2896
   87CHL1    C2 8891   0.081   1.495   6.997  0.7760  0.3398  0.1595
   87CHL1   H2A 8892   0.025   1.512   6.903  0.4043  1.2555  0.5359
   87CHL1   H2B 8893   0.105   1.387   7.002  0.3628  0.2684  0.7321
   87CHL1   C20 8894  -0.270   1.479   7.880 -0.1053  0.5517 -0.1757
   87CHL1   H20 8895  -0.237   1.373   7.869  0.2119  0.7839 -1.6897
   87CHL1   C21 8896  -0.415   1.493   7.829 -0.2744  0.0925 -0.0234
   87CHL1  H21A 8897  -0.410   1.486   7.718  0.0059 -0.4076  0.0141
   87CHL1  H21B 8898  -0.446   1.598   7.842  0.0673 -0.0254  2.1353
   87CHL1  H21C 8899  -0.495   1.424   7.862  0.2381 -0.0192  1.0369
   87CHL1   C22 8900  -0.278   1.497   8.033 -0.4095  0.0348 -0.8162
   87CHL1  H22A 8901  -0.179   1.475   8.079 -0.6722  0.9018  0.2220
   87CHL1  H22B 8902  -0.296   1.606   8.050  0.7558  0.4540 -2.0463
   87CHL1   C23 8903  -0.372   1.403   8.109  0.6830  0.1799  0.2848
   87CHL1  H23A 8904  -0.477   1.419   8.078 -0.3429 -3.5279  1.3069
   87CHL1  H23B 8905  -0.340   1.297   8.095 -0.1406 -0.0468  0.0927
   87CHL1   C24 8906  -0.373   1.420   8.261 -0.0005 -0.1751  0.7902
   87CHL1  H24A 8907  -0.274   1.394   8.305 -0.2514  1.2626  2.3272
   87CHL1  H24B 8908  -0.391   1.528   8.279 -1.3201  0.3613 -2.9123
   87CHL1   C25 8909  -0.485   1.336   8.322  0.5164 -0.3482  0.1944
   87CHL1   H25 8910  -0.481   1.236   8.274  0.3573  0.9676 -2.7214
   87CHL1   C26 8911  -0.466   1.317   8.471 -0.0362  0.4040  0.0421
   87CHL1  H26A 8912  -0.395   1.234   8.491  0.7505  0.6855 -1.4504
   87CHL1  H26B 8913  -0.430   1.414   8.510 -0.5302  0.5813  0.0695
   87CHL1  H26C 8914  -0.561   1.296   8.526 -0.5607  2.2870 -0.0897
   87CHL1   C27 8915  -0.620   1.398   8.288  0.5817 -0.2779  0.1881
   87CHL1  H27A 8916  -0.637   1.496   8.339  0.5133 -0.1357 -0.1040
   87CHL1  H27B 8917  -0.630   1.405   8.177 -1.9553 -2.0467  0.2252
   87CHL1  H27C 8918  -0.697   1.329   8.328 -2.1211  1.4706 -1.6239
   88CHL1    C3 8919   3.678   0.518   6.987  0.5281  0.4449  0.1910
   88CHL1    H3 8920   3.575   0.490   7.015  1.2126 -2.5690 -0.0049
   88CHL1    O3 8921   3.691   0.579   6.861 -0.0588  0.1849  0.1665
   88CHL1   H3' 8922   3.770   0.633   6.871 -0.3583  0.6818 -0.1132
   88CHL1    C4 8923   3.729   0.618   7.089 -0.5972 -0.5896  0.0755
   88CHL1   H4A 8924   3.831   0.654   7.064 -0.2503 -0.2219  1.8741
   88CHL1   H4B 8925   3.667   0.710   7.086  1.3321  0.7670  0.1369
   88CHL1    C5 8926   3.730   0.560   7.233 -0.5068 -0.1151 -0.1585
   88CHL1    C6 8927   3.657   0.621   7.326  0.1640  0.5555  0.2633
   88CHL1    H6 8928   3.614   0.718   7.296 -0.0674 -0.5803 -3.5420
   88CHL1    C7 8929   3.660   0.582   7.470  0.2395  0.4220  0.4594
   88CHL1   H7A 8930   3.692   0.671   7.528 -2.7831  1.7873  0.2376
   88CHL1   H7B 8931   3.563   0.550   7.512  0.3519 -3.4605 -1.6998
   88CHL1    C8 8932   3.761   0.471   7.504 -0.3837  0.2906  0.1233
   88CHL1    H8 8933   3.862   0.516   7.513 -0.0505 -0.5652  0.8256
   88CHL1   C14 8934   3.729   0.397   7.639  0.0001  0.3594  0.5782
   88CHL1   H14 8935   3.633   0.345   7.616  0.8337 -0.6884 -0.7032
   88CHL1   C15 8936   3.697   0.477   7.762 -0.4026  0.1077  0.2398
   88CHL1  H15A 8937   3.768   0.562   7.776 -0.5067 -0.2212  3.9948
   88CHL1  H15B 8938   3.598   0.525   7.751  0.3871  1.3129 -2.4016
   88CHL1   C16 8939   3.711   0.376   7.876 -0.8628 -0.4907  0.1979
   88CHL1  H16A 8940   3.789   0.406   7.949  0.7426 -3.7150 -0.0415
   88CHL1  H16B 8941   3.618   0.368   7.936 -0.2114  0.8873  1.4602
   88CHL1   C17 8942   3.737   0.237   7.810  0.1213 -0.0356  0.1273
   88CHL1   H17 8943   3.636   0.198   7.786 -0.0714  1.3361 -1.5367
   88CHL1   C13 8944   3.812   0.278   7.682  0.0995  0.2485 -0.3136
   88CHL1   C18 8945   3.955   0.319   7.716  0.0099 -0.3422  0.1252
   88CHL1  H18A 8946   4.024   0.235   7.737  2.6363  1.4059 -0.8363
   88CHL1  H18B 8947   3.999   0.389   7.641 -0.8973 -0.1705 -0.2634
   88CHL1  H18C 8948   3.964   0.390   7.801  0.5928 -0.7035  0.3648
   88CHL1   C12 8949   3.809   0.181   7.563 -0.2914 -0.1316 -0.6298
   88CHL1  H12A 8950   3.870   0.092   7.590 -0.0062  0.9256  2.5928
   88CHL1  H12B 8951   3.706   0.139   7.555 -0.5740 -0.1954  2.1621
   88CHL1   C11 8952   3.854   0.237   7.426 -0.6337 -0.2723 -0.5841
   88CHL1  H11A 8953   3.960   0.268   7.441 -1.8709  3.4525  2.2698
   88CHL1  H11B 8954   3.856   0.157   7.349  0.4171  0.3274 -1.1974
   88CHL1    C9 8955   3.771   0.363   7.392 -0.3854  0.4564 -0.7467
   88CHL1    H9 8956   3.676   0.307   7.376  1.2377 -2.7666  0.2100
   88CHL1   C10 8957   3.802   0.425   7.255 -0.5533 -0.8189 -0.3779
   88CHL1   C19 8958   3.953   0.459   7.253 -0.0669  0.7646 -0.0192
   88CHL1  H19A 8959   3.992   0.538   7.320 -0.3109  1.6293 -0.8778
   88CHL1  H19B 8960   4.012   0.370   7.282 -0.0324  1.1203  1.0254
   88CHL1  H19C 8961   3.984   0.480   7.148  0.5029 -0.8541 -0.2128
   88CHL1    C1 8962   3.769   0.331   7.140 -0.1874  0.2289  0.0017
   88CHL1   H1A 8963   3.849   0.254   7.137 -0.8613 -0.5340  0.9354
   88CHL1   H1B 8964   3.675   0.274   7.158 -0.2128  0.6749  1.4463
   88CHL1    C2 8965   3.763   0.388   6.997 -0.7039 -0.1211 -0.0844
   88CHL1   H2A 8966   3.737   0.317   6.915  0.7278 -0.8076  0.0148
   88CHL1   H2B 8967   3.865   0.424   6.970 -0.7542 -0.5374 -0.8622
   88CHL1   C20 8968   3.816   0.143   7.898  0.7564 -0.0275  0.1408
   88CHL1   H20 8969   3.914   0.183   7.932  0.8707 -2.0524  2.5458
   88CHL1   C21 8970   3.847   0.009   7.819  0.0684  0.4056 -0.8905
   88CHL1  H21A 8971   3.937   0.014   7.755 -0.6515  0.2292 -1.9411
   88CHL1  H21B 8972   3.758  -0.024   7.760 -0.8542 -0.1545  0.7237
   88CHL1  H21C 8973   3.858  -0.081   7.883  3.2770  0.1924 -1.6148
   88CHL1   C22 8974   3.736   0.109   8.031  0.0095  0.0786 -0.2002
   88CHL1  H22A 8975   3.651   0.179   8.045 -0.5984 -1.2038  3.7947
   88CHL1  H22B 8976   3.687   0.010   8.016  1.5975 -1.2567  2.5962
   88CHL1   C23 8977   3.826   0.105   8.150 -0.3338 -0.1420 -0.4083
   88CHL1  H23A 8978   3.901   0.025   8.130 -1.5687 -1.1458 -1.1755
   88CHL1  H23B 8979   3.888   0.195   8.168  1.0429 -1.1006 -0.1311
   88CHL1   C24 8980   3.756   0.065   8.280  0.6677  0.5000  0.0706
   88CHL1  H24A 8981   3.739  -0.045   8.280  0.0949  0.5736 -0.8852
   88CHL1  H24B 8982   3.828   0.083   8.362  0.4105 -1.4555  0.7758
   88CHL1   C25 8983   3.615   0.129   8.318 -0.6811 -0.3135  0.9897
   88CHL1   H25 8984   3.550   0.133   8.227  0.0634 -0.6362  0.4315
   88CHL1   C26 8985   3.539   0.035   8.417  0.3916 -0.3269 -0.1583
   88CHL1  H26A 8986   3.526  -0.062   8.364 -1.5384 -0.3740  0.3334
   88CHL1  H26B 8987   3.599   0.035   8.511 -0.0447 -0.0760  0.1239
   88CHL1  H26C 8988   3.439   0.082   8.429  0.6252  0.3975 -0.9606
   88CHL1   C27 8989   3.638   0.272   8.381  0.0498 -0.2185  0.5926
   88CHL1  H27A 8990   3.692   0.334   8.306 -1.6444  2.2421  1.2822
   88CHL1  H27B 8991   3.536   0.312   8.397 -0.0569 -0.6588  1.0354
   88CHL1  H27C 8992   3.702   0.267   8.471  0.4418 -0.7875  0.2915
   89CHL1    C3 8993   1.313   2.653   6.960 -0.0001  0.2363 -0.3826
   89CHL1    H3 8994   1.370   2.564   6.993  0.5165  0.5316 -0.4721
   89CHL1    O3 8995   1.288   2.638   6.823 -0.0503 -0.3509  0.5756
   89CHL1   H3' 8996   1.254   2.725   6.799 -1.8058 -0.5016  2.3137
   89CHL1    C4 8997   1.182   2.669   7.040  0.4933  0.5228 -0.2349
   89CHL1   H4A 8998   1.129   2.758   6.999 -0.9822 -0.7650 -1.2171
   89CHL1   H4B 8999   1.115   2.582   7.023 -1.0059  1.3654  1.1226
   89CHL1    C5 9000   1.207   2.693   7.185 -0.8528 -0.7998 -0.0298
   89CHL1    C6 9001   1.156   2.602   7.272 -0.0101 -0.5588 -0.1629
   89CHL1    H6 9002   1.089   2.527   7.228 -1.2724  0.9431 -0.9190
   89CHL1    C7 9003   1.188   2.614   7.420  0.0998 -0.1501 -0.6322
   89CHL1   H7A 9004   1.096   2.574   7.469  0.7224 -2.7448 -1.4110
   89CHL1   H7B 9005   1.264   2.538   7.447 -1.0617 -0.7792  1.0778
   89CHL1    C8 9006   1.238   2.756   7.456 -0.0191  0.1209  0.0534
   89CHL1    H8 9007   1.149   2.822   7.461 -1.4267 -1.7092  0.1930
   89CHL1   C14 9008   1.290   2.754   7.597 -0.0229 -0.2840 -0.0470
   89CHL1   H14 9009   1.383   2.694   7.595  0.5090  0.4682  1.4098
   89CHL1   C15 9010   1.207   2.677   7.703 -0.5034 -0.0942  0.2605
   89CHL1  H15A 9011   1.098   2.697   7.700 -0.5579  0.2249  2.6923
   89CHL1  H15B 9012   1.218   2.566   7.706  0.8018  0.0375  1.2676
   89CHL1   C16 9013   1.255   2.735   7.836  0.0568  0.1786 -0.2229
   89CHL1  H16A 9014   1.166   2.782   7.881  0.7151  0.8388  0.4031
   89CHL1  H16B 9015   1.290   2.658   7.909  0.8971  1.5918  0.9051
   89CHL1   C17 9016   1.358   2.842   7.805 -0.1898  0.1744 -0.4110
   89CHL1   H17 9017   1.455   2.788   7.799  0.4053  1.1328  0.3928
   89CHL1   C13 9018   1.328   2.884   7.661  0.5218 -0.3484 -0.6086
   89CHL1   C18 9019   1.203   2.976   7.662  0.2201  0.1148  0.2320
   89CHL1  H18A 9020   1.240   3.069   7.711  1.6598 -0.0752 -0.4375
   89CHL1  H18B 9021   1.181   3.010   7.559  2.6119  1.1227 -0.0222
   89CHL1  H18C 9022   1.113   2.939   7.715  0.9057 -0.3432  1.1115
   89CHL1   C12 9023   1.448   2.939   7.568  1.1304 -0.1817 -0.9540
   89CHL1  H12A 9024   1.472   3.042   7.600  1.6683 -1.0387  1.6632
   89CHL1  H12B 9025   1.534   2.871   7.586  0.9032 -0.2464 -0.0636
   89CHL1   C11 9026   1.415   2.945   7.422  0.6952  0.2978  0.6843
   89CHL1  H11A 9027   1.339   3.025   7.407 -1.1956 -0.9258  3.1295
   89CHL1  H11B 9028   1.507   2.957   7.360  0.2562  0.5601  0.0753
   89CHL1    C9 9029   1.354   2.808   7.365  0.1353 -0.3279  0.2685
   89CHL1    H9 9030   1.436   2.733   7.367 -0.0635 -0.6543  3.9644
   89CHL1   C10 9031   1.298   2.812   7.222  0.3714 -0.0908  0.1666
   89CHL1   C19 9032   1.220   2.941   7.204  0.2582 -0.3288  0.4392
   89CHL1  H19A 9033   1.147   2.963   7.285 -1.2424  2.1555 -1.4375
   89CHL1  H19B 9034   1.286   3.030   7.208 -0.9428  0.5913  0.5185
   89CHL1  H19C 9035   1.173   2.944   7.103  1.8112 -0.0299 -0.3002
   89CHL1    C1 9036   1.422   2.807   7.129 -0.4603 -0.2688  0.6714
   89CHL1   H1A 9037   1.488   2.896   7.126 -1.5982  0.5792  0.0722
   89CHL1   H1B 9038   1.482   2.716   7.151  1.2078  0.6057 -0.0312
   89CHL1    C2 9039   1.388   2.786   6.977 -0.3814  0.8434  0.0721
   89CHL1   H2A 9040   1.482   2.768   6.921 -0.3371 -1.4786  0.7752
   89CHL1   H2B 9041   1.344   2.878   6.933 -0.2361  1.1642  0.5913
   89CHL1   C20 9042   1.367   2.949   7.918 -0.3552  0.3897 -0.6111
   89CHL1   H20 9043   1.267   2.997   7.931  0.1993  0.8627  2.5926
   89CHL1   C21 9044   1.476   3.056   7.874  0.2133 -0.2345 -0.8592
   89CHL1  H21A 9045   1.555   3.006   7.814  0.3330  0.2038 -1.0704
   89CHL1  H21B 9046   1.525   3.116   7.954 -0.4265 -1.3580  0.4177
   89CHL1  H21C 9047   1.425   3.134   7.814  0.5093 -0.3142 -1.2199
   89CHL1   C22 9048   1.385   2.898   8.069 -0.5381  0.3205  0.6461
   89CHL1  H22A 9049   1.374   2.984   8.138  0.0896  0.0855  1.0499
   89CHL1  H22B 9050   1.310   2.817   8.080  0.1202 -0.6442 -1.4066
   89CHL1   C23 9051   1.527   2.836   8.089 -0.7186  0.2236  0.0395
   89CHL1  H23A 9052   1.539   2.756   8.012  0.0736  0.6791 -0.3265
   89CHL1  H23B 9053   1.608   2.909   8.069  1.9287 -1.8515  2.4596
   89CHL1   C24 9054   1.552   2.788   8.229  0.5570  0.0924 -0.2643
   89CHL1  H24A 9055   1.528   2.875   8.293 -0.4750  0.7064 -1.4263
   89CHL1  H24B 9056   1.477   2.709   8.253  0.4302  0.7014  1.4658
   89CHL1   C25 9057   1.698   2.748   8.249  0.9645 -0.3047 -0.3917
   89CHL1   H25 9058   1.773   2.823   8.217  0.8023  0.7906  1.5866
   89CHL1   C26 9059   1.722   2.746   8.400 -0.5085 -0.1769 -1.2122
   89CHL1  H26A 9060   1.659   2.677   8.459 -1.3307 -0.3741 -2.2932
   89CHL1  H26B 9061   1.825   2.707   8.412 -0.4557 -0.0619 -1.2895
   89CHL1  H26C 9062   1.723   2.846   8.450 -1.4146 -1.1433  0.8587
   89CHL1   C27 9063   1.736   2.617   8.187  0.6258  0.1485  0.1330
   89CHL1  H27A 9064   1.720   2.628   8.078 -1.2882  0.4354  0.4021
   89CHL1  H27B 9065   1.840   2.588   8.213  0.6554  1.7237  2.0225
   89CHL1  H27C 9066   1.664   2.537   8.213  0.5529 -0.2001 -1.0951
   90CHL1    C3 9067   5.914   4.629   6.965  0.7144  1.0004 -0.1727
   90CHL1    H3 9068   5.826   4.563   6.951  1.7651 -0.2569 -1.0540
   90CHL1    O3 9069   5.955   4.660   6.829 -0.0335  0.1144  0.2780
   90CHL1   H3' 9070   6.022   4.727   6.844 -0.1915  0.1666  0.7738
   90CHL1    C4 9071   5.859   4.762   7.031  0.2144 -0.0921  0.4256
   90CHL1   H4A 9072   5.936   4.841   7.016  0.9136 -0.9051 -0.4369
   90CHL1   H4B 9073   5.771   4.798   6.974 -0.8251 -1.3461  1.1830
   90CHL1    C5 9074   5.833   4.739   7.181  0.2958 -0.2739  1.0424
   90CHL1    C6 9075   5.708   4.766   7.227 -0.2505  0.7213 -0.6473
   90CHL1    H6 9076   5.634   4.803   7.153 -1.1485 -1.1933 -0.7679
   90CHL1    C7 9077   5.682   4.743   7.375  0.4313 -0.0445  0.5431
   90CHL1   H7A 9078   5.620   4.820   7.426 -1.3761 -2.0058  1.4404
   90CHL1   H7B 9079   5.627   4.648   7.390 -1.6344  1.0856  0.4826
   90CHL1    C8 9080   5.807   4.731   7.464 -0.6686  0.1811 -0.2087
   90CHL1    H8 9081   5.846   4.835   7.469 -1.3622  0.5008 -1.1823
   90CHL1   C14 9082   5.767   4.682   7.601 -0.0086 -0.4406 -0.2730
   90CHL1   H14 9083   5.728   4.579   7.586 -0.2000 -0.3787 -0.2017
   90CHL1   C15 9084   5.670   4.768   7.692 -0.2375 -0.4904  0.8895
   90CHL1  H15A 9085   5.698   4.875   7.697 -1.5946 -0.0349 -0.5259
   90CHL1  H15B 9086   5.571   4.759   7.642  0.5308 -2.1027 -0.4284
   90CHL1   C16 9087   5.697   4.712   7.835 -0.3536 -0.2037  0.4791
   90CHL1  H16A 9088   5.740   4.801   7.886  0.9417  1.7525 -3.6306
   90CHL1  H16B 9089   5.606   4.667   7.880  1.2925 -0.0568  4.4110
   90CHL1   C17 9090   5.816   4.620   7.825 -0.6637  0.7578  0.1867
   90CHL1   H17 9091   5.781   4.516   7.805 -0.7337  0.1910  2.9238
   90CHL1   C13 9092   5.889   4.665   7.700 -0.0680  0.4071  0.0729
   90CHL1   C18 9093   5.961   4.807   7.730 -0.0071  0.0027  0.5883
   90CHL1  H18A 9094   6.045   4.805   7.803 -0.5939  0.8951  1.3159
   90CHL1  H18B 9095   6.006   4.849   7.638 -0.0522 -0.5179  0.3214
   90CHL1  H18C 9096   5.892   4.889   7.758 -1.9291 -0.8638 -1.3582
   90CHL1   C12 9097   5.996   4.567   7.638  0.4702 -0.3193 -0.1789
   90CHL1  H12A 9098   6.091   4.558   7.693  0.2963  2.4192  0.7064
   90CHL1  H12B 9099   5.957   4.463   7.624  0.8125 -0.8420  2.2543
   90CHL1   C11 9100   6.037   4.626   7.498  0.7604 -0.1323 -0.4767
   90CHL1  H11A 9101   6.092   4.721   7.514  1.2540 -0.9258  3.6537
   90CHL1  H11B 9102   6.110   4.557   7.451  0.5742  0.3138 -1.4633
   90CHL1    C9 9103   5.916   4.635   7.407  0.2105  0.0488  0.2039
   90CHL1    H9 9104   5.870   4.534   7.407  1.9132 -0.8004  2.3694
   90CHL1   C10 9105   5.954   4.670   7.258 -0.4351 -0.9270  0.3163
   90CHL1   C19 9106   6.078   4.765   7.261 -0.0626 -0.1040 -0.1953
   90CHL1  H19A 9107   6.066   4.852   7.329  4.3097 -0.0229  0.7742
   90CHL1  H19B 9108   6.165   4.699   7.279 -2.1658 -2.9146  0.5135
   90CHL1  H19C 9109   6.082   4.813   7.161  0.6815  0.7730  0.2415
   90CHL1    C1 9110   5.984   4.542   7.187 -0.1848  1.1006  0.0949
   90CHL1   H1A 9111   6.070   4.495   7.239  0.1141 -0.8027 -1.9866
   90CHL1   H1B 9112   5.897   4.473   7.201  0.6134  0.0905  0.1439
   90CHL1    C2 9113   6.025   4.568   7.046  0.0311  0.2284  0.2991
   90CHL1   H2A 9114   6.056   4.473   6.999  1.6459  1.7890 -2.0174
   90CHL1   H2B 9115   6.109   4.637   7.025  0.1624  0.1326  0.5124
   90CHL1   C20 9116   5.887   4.621   7.959 -0.4200  0.5014 -0.1474
   90CHL1   H20 9117   5.929   4.722   7.979  2.8322 -0.6204 -0.7241
   90CHL1   C21 9118   6.011   4.525   7.960  0.5499  0.6534 -0.5931
   90CHL1  H21A 9119   5.982   4.420   7.941  3.9552 -0.7995  1.1810
   90CHL1  H21B 9120   6.066   4.512   8.056  1.4498 -0.8853 -1.2678
   90CHL1  H21C 9121   6.092   4.562   7.893  0.2452  3.0837  0.2938
   90CHL1   C22 9122   5.783   4.597   8.073 -0.5224  0.2519 -0.3265
   90CHL1  H22A 9123   5.707   4.679   8.071 -1.0092 -0.2002 -0.5450
   90CHL1  H22B 9124   5.717   4.512   8.047 -1.7436  1.0149  0.1743
   90CHL1   C23 9125   5.843   4.585   8.212 -0.7065  0.0861  1.0324
   90CHL1  H23A 9126   5.925   4.511   8.204  2.0855  3.1116 -1.7509
   90CHL1  H23B 9127   5.893   4.684   8.217 -2.2948  1.0096 -0.1849
   90CHL1   C24 9128   5.768   4.554   8.342  0.6777 -0.4137  0.0440
   90CHL1  H24A 9129   5.662   4.533   8.315 -0.1213  1.6558  1.3351
   90CHL1  H24B 9130   5.805   4.457   8.383 -1.7049 -1.9071 -1.1216
   90CHL1   C25 9131   5.788   4.664   8.458  0.1395  0.4696  0.2381
   90CHL1   H25 9132   5.750   4.757   8.412 -0.8448  0.2224  0.5351
   90CHL1   C26 9133   5.696   4.623   8.583 -0.7654 -0.2106  0.6362
   90CHL1  H26A 9134   5.744   4.535   8.631 -2.9769 -0.8849  1.7295
   90CHL1  H26B 9135   5.699   4.711   8.650 -1.9209  0.7383 -0.5086
   90CHL1  H26C 9136   5.591   4.609   8.549 -0.4925  1.1318 -0.9396
   90CHL1   C27 9137   5.934   4.663   8.488  0.2720 -0.6572 -0.1179
   90CHL1  H27A 9138   5.996   4.711   8.409 -1.4301  1.3166 -0.3402
   90CHL1  H27B 9139   5.939   4.728   8.578 -1.0307  2.4711 -2.1279
   90CHL1  H27C 9140   5.982   4.565   8.511  0.7632 -0.4439 -0.2214
   91CHL1    C3 9141   0.431   5.859   7.134  0.0261 -0.0645 -0.3228
   91CHL1    H3 9142   0.339   5.917   7.159  0.0616 -0.4101  0.6630
   91CHL1    O3 9143   0.435   5.817   6.997  0.1177  0.4669 -0.1634
   91CHL1   H3' 9144   0.345   5.791   6.975  0.8257 -0.9260 -1.6153
   91CHL1    C4 9145   0.549   5.958   7.165  0.5232 -0.1312 -0.6309
   91CHL1   H4A 9146   0.643   5.907   7.134  1.6620  3.2598 -3.3494
   91CHL1   H4B 9147   0.543   6.047   7.099 -2.5069  0.3588  0.1486
   91CHL1    C5 9148   0.571   5.986   7.312 -0.2130  0.0368  0.1024
   91CHL1    C6 9149   0.584   6.117   7.348 -0.5158  0.0997 -0.6141
   91CHL1    H6 9150   0.581   6.194   7.269  0.0245 -0.6862 -1.4244
   91CHL1    C7 9151   0.612   6.166   7.483 -0.7610  0.0607 -0.1010
   91CHL1   H7A 9152   0.691   6.244   7.487 -1.9467  1.2628  1.4195
   91CHL1   H7B 9153   0.525   6.212   7.535 -0.6119 -2.4565  2.6826
   91CHL1    C8 9154   0.669   6.052   7.573 -0.1820  0.8733  0.1170
   91CHL1    H8 9155   0.768   6.024   7.530  0.2050 -0.6390  1.8675
   91CHL1   C14 9156   0.683   6.102   7.718  1.0203 -0.0681 -0.1329
   91CHL1   H14 9157   0.583   6.131   7.756  0.7257 -0.8797 -0.2676
   91CHL1   C15 9158   0.779   6.218   7.734  0.3235 -0.5767 -0.1046
   91CHL1  H15A 9159   0.864   6.210   7.663 -0.8571 -0.9381 -1.5382
   91CHL1  H15B 9160   0.735   6.318   7.712  0.0177 -0.8095 -0.5663
   91CHL1   C16 9161   0.815   6.210   7.880 -0.2885  0.7051 -0.1106
   91CHL1  H16A 9162   0.922   6.183   7.889 -0.2744 -0.1245 -2.1550
   91CHL1  H16B 9163   0.789   6.298   7.943  0.5665 -0.4404  1.9348
   91CHL1   C17 9164   0.750   6.071   7.938  0.5108 -0.0655  0.1163
   91CHL1   H17 9165   0.648   6.096   7.974  1.2386  1.2039  1.4083
   91CHL1   C13 9166   0.733   5.989   7.810  0.7474 -0.4246 -0.2206
   91CHL1   C18 9167   0.855   5.915   7.764 -0.8310 -0.2861  0.3342
   91CHL1  H18A 9168   0.884   5.836   7.837  2.1442  1.9530  1.7680
   91CHL1  H18B 9169   0.841   5.867   7.665  1.2089  2.2673 -1.3129
   91CHL1  H18C 9170   0.942   5.983   7.754 -2.2268  1.6830  0.9935
   91CHL1   C12 9171   0.608   5.883   7.808 -0.0751 -0.5516 -0.1797
   91CHL1  H12A 9172   0.625   5.805   7.885 -0.0141 -0.4244 -0.0672
   91CHL1  H12B 9173   0.514   5.934   7.835  0.8785  1.6899 -0.8743
   91CHL1   C11 9174   0.582   5.816   7.671  0.6209 -0.1515  0.4179
   91CHL1  H11A 9175   0.650   5.730   7.654 -0.1821 -0.8781  0.7866
   91CHL1  H11B 9176   0.481   5.768   7.671 -0.1756  1.4205 -1.0522
   91CHL1    C9 9177   0.578   5.925   7.561  0.2806  0.5541  0.7565
   91CHL1    H9 9178   0.476   5.964   7.584 -0.2172 -0.4185  0.2856
   91CHL1   C10 9179   0.581   5.873   7.414  0.0730  0.2206 -1.0580
   91CHL1   C19 9180   0.711   5.793   7.386 -0.1075  0.0559  0.4380
   91CHL1  H19A 9181   0.794   5.864   7.408 -2.1735  2.0550  2.2118
   91CHL1  H19B 9182   0.712   5.702   7.451 -2.3981  0.6892  1.4413
   91CHL1  H19C 9183   0.722   5.760   7.281 -0.8232  0.7815  0.1332
   91CHL1    C1 9184   0.458   5.786   7.386 -0.0898 -0.6659 -0.2866
   91CHL1   H1A 9185   0.458   5.697   7.453  1.3170 -0.8085 -0.4497
   91CHL1   H1B 9186   0.373   5.849   7.419  1.6960  0.9077  1.6598
   91CHL1    C2 9187   0.442   5.739   7.237  0.6605  0.4664  0.2842
   91CHL1   H2A 9188   0.353   5.673   7.235 -1.2880  2.9234  1.4274
   91CHL1   H2B 9189   0.528   5.675   7.205 -0.2797  0.6444 -3.0146
   91CHL1   C20 9190   0.817   6.005   8.059  0.2551  0.2062 -0.0267
   91CHL1   H20 9191   0.921   5.988   8.024 -0.5364 -1.9523 -1.5364
   91CHL1   C21 9192   0.755   5.871   8.111  0.4210  0.0867 -0.0408
   91CHL1  H21A 9193   0.646   5.877   8.132  0.3500 -4.6032  2.0891
   91CHL1  H21B 9194   0.800   5.836   8.206 -0.4656 -1.8536 -0.2888
   91CHL1  H21C 9195   0.764   5.788   8.038 -0.8179 -2.0274  2.0877
   91CHL1   C22 9196   0.821   6.104   8.177 -0.0047  0.2066  0.1595
   91CHL1  H22A 9197   0.862   6.204   8.150  0.7862 -0.5441 -1.5531
   91CHL1  H22B 9198   0.721   6.110   8.225 -0.2355  2.3399 -0.4807
   91CHL1   C23 9199   0.911   6.061   8.297 -0.3475 -0.4795  0.0435
   91CHL1  H23A 9200   0.877   5.965   8.342 -4.0048  1.5072  2.0047
   91CHL1  H23B 9201   1.007   6.033   8.248 -0.6140 -0.5532 -0.4384
   91CHL1   C24 9202   0.927   6.168   8.406 -0.0901  0.7748 -0.5517
   91CHL1  H24A 9203   0.939   6.273   8.373 -1.6024  0.8384 -0.9729
   91CHL1  H24B 9204   0.838   6.145   8.468  0.9790 -1.7102  0.2121
   91CHL1   C25 9205   1.045   6.133   8.505  0.3004 -0.6929 -0.1582
   91CHL1   H25 9206   1.124   6.129   8.427 -0.0644 -1.4764 -0.4900
   91CHL1   C26 9207   1.069   6.249   8.601  0.0161 -0.0027 -0.0682
   91CHL1  H26A 9208   1.147   6.219   8.675  1.3251  2.0157 -0.5621
   91CHL1  H26B 9209   1.108   6.339   8.549 -1.0557  2.0267  2.4323
   91CHL1  H26C 9210   0.978   6.285   8.652  0.4102  2.0021 -0.6852
   91CHL1   C27 9211   1.026   6.008   8.587 -0.0674  0.0596  0.3260
   91CHL1  H27A 9212   1.014   5.930   8.509 -0.2049  1.0774 -0.6930
   91CHL1  H27B 9213   1.115   5.983   8.649 -0.1073  0.4612  0.5481
   91CHL1  H27C 9214   0.930   6.019   8.642 -0.9495 -0.2583 -1.0918
   92CHL1    C3 9215   3.752   1.020   6.722  0.5991 -0.0293 -0.8948
   92CHL1    H3 9216   3.744   0.911   6.740 -1.3650  0.2429  0.1322
   92CHL1    O3 9217   3.771   1.045   6.587  0.6960  0.7092  0.7199
   92CHL1   H3' 9218   3.681   1.043   6.552  1.3717 -0.5013 -1.1192
   92CHL1    C4 9219   3.621   1.086   6.768  0.6068 -0.7150  0.2827
   92CHL1   H4A 9220   3.630   1.194   6.746  2.2246 -1.0892 -1.0539
   92CHL1   H4B 9221   3.531   1.052   6.713 -0.3932  2.5287 -0.3035
   92CHL1    C5 9222   3.608   1.076   6.919 -0.5689 -0.5937 -0.2318
   92CHL1    C6 9223   3.493   1.024   6.966  0.2010  0.0265  0.2820
   92CHL1    H6 9224   3.419   0.984   6.895  0.9953  0.4149 -0.7809
   92CHL1    C7 9225   3.470   1.024   7.120  0.8876  0.5650  0.8442
   92CHL1   H7A 9226   3.368   1.059   7.146 -0.0665 -2.1181  1.0012
   92CHL1   H7B 9227   3.481   0.919   7.153  0.0139 -0.1767 -1.0351
   92CHL1    C8 9228   3.563   1.121   7.203 -0.1854  0.0518  0.4447
   92CHL1    H8 9229   3.525   1.221   7.171 -0.6841 -0.8374 -1.9514
   92CHL1   C14 9230   3.540   1.103   7.352 -0.6624  0.4503 -0.4374
   92CHL1   H14 9231   3.570   0.998   7.373 -0.2621  0.7266  0.4006
   92CHL1   C15 9232   3.395   1.128   7.412 -0.5671  0.4046  0.2920
   92CHL1  H15A 9233   3.348   1.215   7.361  3.0489  1.3460 -1.8126
   92CHL1  H15B 9234   3.340   1.033   7.396  0.7060  0.0594 -2.5918
   92CHL1   C16 9235   3.423   1.139   7.564 -0.2365 -0.7266 -0.3709
   92CHL1  H16A 9236   3.365   1.226   7.602  0.5410 -0.4435  0.1912
   92CHL1  H16B 9237   3.388   1.046   7.614 -0.7542 -0.3289  0.0076
   92CHL1   C17 9238   3.581   1.151   7.585  0.2665 -0.2864 -0.3108
   92CHL1   H17 9239   3.629   1.056   7.616  0.3747 -0.0424  0.2855
   92CHL1   C13 9240   3.630   1.183   7.441  0.0590  0.1224 -0.4391
   92CHL1   C18 9241   3.620   1.336   7.419 -0.0270 -0.3957  0.6110
   92CHL1  H18A 9242   3.622   1.366   7.312 -1.2959 -1.9206  0.1255
   92CHL1  H18B 9243   3.525   1.366   7.466 -0.4599  0.6314 -0.8494
   92CHL1  H18C 9244   3.703   1.387   7.472  0.4753  0.7267 -1.1559
   92CHL1   C12 9245   3.771   1.135   7.406 -0.1645  0.3931 -0.4372
   92CHL1  H12A 9246   3.844   1.180   7.477 -0.8462  0.9702 -0.0966
   92CHL1  H12B 9247   3.779   1.024   7.413 -0.1204  0.5049  2.8219
   92CHL1   C11 9248   3.815   1.161   7.263  0.7237 -0.4098 -0.6186
   92CHL1  H11A 9249   3.832   1.271   7.263  2.8908 -0.6606 -2.6496
   92CHL1  H11B 9250   3.913   1.113   7.244  0.5910 -1.1557  0.4936
   92CHL1    C9 9251   3.709   1.097   7.161 -0.3658  0.1517 -0.0442
   92CHL1    H9 9252   3.723   0.987   7.169 -1.8218 -0.3710 -3.0186
   92CHL1   C10 9253   3.722   1.128   7.008 -0.5929 -0.1784  0.1904
   92CHL1   C19 9254   3.735   1.278   6.996  0.1963 -0.2897  0.3566
   92CHL1  H19A 9255   3.732   1.315   6.891 -0.4239 -1.2846  0.0178
   92CHL1  H19B 9256   3.651   1.331   7.044 -2.1288  1.0957 -4.5728
   92CHL1  H19C 9257   3.828   1.323   7.038 -0.8349  0.5910  1.7461
   92CHL1    C1 9258   3.855   1.057   6.955  0.3499 -0.3394 -0.0831
   92CHL1   H1A 9259   3.936   1.109   7.010 -0.3955 -1.1155  1.8200
   92CHL1   H1B 9260   3.847   0.950   6.984  0.8499  0.0396  1.5756
   92CHL1    C2 9261   3.869   1.076   6.808  0.0742  0.3730  0.2284
   92CHL1   H2A 9262   3.960   1.020   6.776  0.0047 -0.7766  1.8730
   92CHL1   H2B 9263   3.902   1.179   6.784  0.0597  0.6539  1.3396
   92CHL1   C20 9264   3.612   1.247   7.698 -0.4230  0.3184 -0.1474
   92CHL1   H20 9265   3.571   1.349   7.685  1.1189  0.6055 -3.6522
   92CHL1   C21 9266   3.762   1.253   7.726 -0.1407 -0.2581  0.3380
   92CHL1  H21A 9267   3.801   1.150   7.729 -0.3061 -0.5177 -2.9472
   92CHL1  H21B 9268   3.787   1.294   7.827  1.0513  0.5203 -0.2564
   92CHL1  H21C 9269   3.815   1.303   7.643 -0.4954  0.2004  0.3795
   92CHL1   C22 9270   3.546   1.201   7.833 -0.4359 -0.6863  0.3305
   92CHL1  H22A 9271   3.589   1.274   7.905  0.8902 -1.4066  0.3118
   92CHL1  H22B 9272   3.437   1.222   7.827  0.1183  1.9629 -2.5616
   92CHL1   C23 9273   3.576   1.057   7.878  0.4150 -0.9907  0.6438
   92CHL1  H23A 9274   3.546   0.984   7.800 -0.6621  0.6144 -0.4987
   92CHL1  H23B 9275   3.686   1.054   7.885  0.5656  1.6187  0.4820
   92CHL1   C24 9276   3.499   1.023   8.009  0.4829  0.1586 -0.0129
   92CHL1  H24A 9277   3.549   1.077   8.092  0.3981 -1.4385  1.1248
   92CHL1  H24B 9278   3.397   1.067   7.999  1.1231  1.8945  0.8740
   92CHL1   C25 9279   3.501   0.871   8.037  0.9463 -0.3883  0.1796
   92CHL1   H25 9280   3.452   0.816   7.954 -0.0316  1.2931 -0.4185
   92CHL1   C26 9281   3.638   0.823   8.040 -0.8882  0.1943 -0.1541
   92CHL1  H26A 9282   3.689   0.874   8.125 -0.8278  0.9919 -0.6538
   92CHL1  H26B 9283   3.626   0.714   8.058 -1.8321  0.6063  2.1425
   92CHL1  H26C 9284   3.697   0.841   7.948  1.2418 -1.0964  0.8644
   92CHL1   C27 9285   3.430   0.839   8.168  1.0750  0.2336 -0.0490
   92CHL1  H27A 9286   3.474   0.895   8.254  0.2546  0.3068  0.3368
   92CHL1  H27B 9287   3.322   0.868   8.166  1.0857  1.4018  4.3919
   92CHL1  H27C 9288   3.436   0.730   8.188 -0.1771 -0.4618 -2.9542
   93CHL1    C3 9289   1.772   3.771   6.938 -0.0314 -0.5216  0.2182
   93CHL1    H3 9290   1.883   3.758   6.934 -0.1125 -1.2177  0.1101
   93CHL1    O3 9291   1.710   3.765   6.805  0.1835 -0.0500  0.1548
   93CHL1   H3' 9292   1.652   3.842   6.800  0.0769 -0.0086  1.5174
   93CHL1    C4 9293   1.712   3.654   7.015 -0.0360 -0.3754 -0.0857
   93CHL1   H4A 9294   1.602   3.665   7.004 -0.0397  1.4530  1.3006
   93CHL1   H4B 9295   1.745   3.564   6.958  1.7539  0.9430 -1.2293
   93CHL1    C5 9296   1.744   3.643   7.168  0.3760 -0.3031  0.4969
   93CHL1    C6 9297   1.789   3.529   7.217  0.1251 -0.1481 -0.7200
   93CHL1    H6 9298   1.770   3.440   7.156 -1.1723 -0.1403 -0.3564
   93CHL1    C7 9299   1.841   3.510   7.353  0.2663 -0.7658 -0.4240
   93CHL1   H7A 9300   1.807   3.412   7.394 -1.3504  0.1015  0.3931
   93CHL1   H7B 9301   1.950   3.488   7.345  0.4250 -0.3479  0.4458
   93CHL1    C8 9302   1.814   3.629   7.449  0.3338  0.3076 -0.6111
   93CHL1    H8 9303   1.711   3.600   7.479  0.8209 -0.1811  0.6420
   93CHL1   C14 9304   1.890   3.625   7.582  0.2473 -0.4489 -0.0737
   93CHL1   H14 9305   1.995   3.656   7.565 -0.5530  1.8889 -1.2051
   93CHL1   C15 9306   1.904   3.493   7.666  0.3807  0.3504  1.0388
   93CHL1  H15A 9307   1.807   3.438   7.664 -0.7592  2.2704  0.3909
   93CHL1  H15B 9308   1.983   3.422   7.636  0.3934  1.1477 -0.9643
   93CHL1   C16 9309   1.907   3.536   7.815 -0.0122 -0.0335  0.2417
   93CHL1  H16A 9310   1.816   3.505   7.872 -0.9732  2.5849  0.2499
   93CHL1  H16B 9311   1.998   3.497   7.866 -1.4333 -2.5728  1.0521
   93CHL1   C17 9312   1.913   3.689   7.817 -0.3833 -0.4384  0.1381
   93CHL1   H17 9313   2.020   3.716   7.800 -0.9157  0.4517 -2.2971
   93CHL1   C13 9314   1.835   3.730   7.683 -0.1887 -0.1052  0.1091
   93CHL1   C18 9315   1.687   3.708   7.713  0.8831 -0.6282  0.3231
   93CHL1  H18A 9316   1.659   3.784   7.789  1.4880  0.4121 -0.4827
   93CHL1  H18B 9317   1.623   3.719   7.623 -1.2063 -1.6450  1.5913
   93CHL1  H18C 9318   1.682   3.605   7.755  2.8044 -0.3820  1.2551
   93CHL1   C12 9319   1.868   3.872   7.615 -0.2965 -0.1260  0.2131
   93CHL1  H12A 9320   1.830   3.941   7.693 -0.3878  1.5158 -1.2016
   93CHL1  H12B 9321   1.978   3.886   7.610 -0.0201 -0.8880  2.9202
   93CHL1   C11 9322   1.796   3.884   7.484  0.4258 -0.0926 -0.6267
   93CHL1  H11A 9323   1.686   3.874   7.498  0.4864 -0.6624 -0.5294
   93CHL1  H11B 9324   1.804   3.985   7.437 -1.7811  0.4774  0.0976
   93CHL1    C9 9325   1.824   3.764   7.383 -0.2917  0.3381  0.2803
   93CHL1    H9 9326   1.930   3.785   7.359 -0.1050  0.1833  0.9362
   93CHL1   C10 9327   1.750   3.778   7.243 -0.8308  0.1740  0.3624
   93CHL1   C19 9328   1.600   3.812   7.269  0.3926 -0.3367 -0.1055
   93CHL1  H19A 9329   1.551   3.810   7.169  0.7464  0.4149 -0.2998
   93CHL1  H19B 9330   1.542   3.750   7.340  0.4511 -0.8658 -0.5067
   93CHL1  H19C 9331   1.602   3.919   7.298  0.1197 -0.9033  2.1623
   93CHL1    C1 9332   1.810   3.891   7.158 -0.7887 -0.1790  0.6510
   93CHL1   H1A 9333   1.814   3.988   7.212  2.4408 -0.0315  0.3369
   93CHL1   H1B 9334   1.919   3.866   7.152 -0.7230 -0.4855  2.3780
   93CHL1    C2 9335   1.755   3.903   7.014 -0.6344  0.0080  0.1729
   93CHL1   H2A 9336   1.811   3.989   6.972  0.5548  0.0682  1.7829
   93CHL1   H2B 9337   1.647   3.931   7.014 -0.4094  1.1719  2.6562
   93CHL1   C20 9338   1.883   3.767   7.944 -0.2339  0.5536 -0.0457
   93CHL1   H20 9339   1.773   3.785   7.951 -0.5139  0.1230 -2.4979
   93CHL1   C21 9340   1.960   3.902   7.949  0.5025  0.0994 -0.0685
   93CHL1  H21A 9341   2.067   3.897   7.979  0.5683 -1.4923 -0.4971
   93CHL1  H21B 9342   1.911   3.972   8.021 -0.1728 -1.3500  0.9436
   93CHL1  H21C 9343   1.954   3.953   7.851  1.9747  0.7391  0.1490
   93CHL1   C22 9344   1.915   3.691   8.072 -0.0651 -0.1807 -0.4755
   93CHL1  H22A 9345   1.867   3.591   8.071 -1.3346  0.3412  1.8836
   93CHL1  H22B 9346   2.024   3.673   8.061  0.3239  1.0864  0.9250
   93CHL1   C23 9347   1.883   3.751   8.209 -0.2932  0.0480 -0.9337
   93CHL1  H23A 9348   1.895   3.861   8.219 -1.0838  0.0935 -0.3652
   93CHL1  H23B 9349   1.774   3.740   8.232 -0.1641 -1.0750 -0.7815
   93CHL1   C24 9350   1.948   3.675   8.329  0.3654  0.2662  0.7542
   93CHL1  H24A 9351   1.924   3.567   8.340  1.1661  0.1887  1.8868
   93CHL1  H24B 9352   2.057   3.692   8.312 -0.2173  1.6942 -2.1727
   93CHL1   C25 9353   1.913   3.734   8.463 -0.5369  0.0278  0.0368
   93CHL1   H25 9354   1.918   3.844   8.463  2.0750  0.0618 -2.8707
   93CHL1   C26 9355   1.776   3.675   8.510 -0.3880 -0.5847 -0.0221
   93CHL1  H26A 9356   1.764   3.699   8.618 -0.8815  1.3992 -0.4794
   93CHL1  H26B 9357   1.691   3.724   8.458 -0.0399 -1.1799 -1.1853
   93CHL1  H26C 9358   1.774   3.565   8.494 -0.1913 -0.5403 -0.3513
   93CHL1   C27 9359   2.016   3.689   8.576 -0.5118 -0.1501  0.2994
   93CHL1  H27A 9360   1.975   3.720   8.674 -1.3165  0.4325 -0.2084
   93CHL1  H27B 9361   2.021   3.578   8.571 -1.1702 -0.2782  2.0252
   93CHL1  H27C 9362   2.112   3.739   8.552 -1.1646  1.1029  0.2359
   94CHL1    C3 9363   4.860   2.628   6.957 -0.2150 -0.2328 -0.4027
   94CHL1    H3 9364   4.951   2.565   6.944  0.4248  0.6089 -0.1729
   94CHL1    O3 9365   4.798   2.666   6.833 -0.2191 -0.2904 -0.3336
   94CHL1   H3' 9366   4.787   2.582   6.789 -1.1133 -0.6240  0.4796
   94CHL1    C4 9367   4.750   2.555   7.039 -0.5910 -1.1390  0.4568
   94CHL1   H4A 9368   4.661   2.621   7.045  1.3686  1.8770 -0.9592
   94CHL1   H4B 9369   4.719   2.465   6.982  0.6005 -0.8793 -0.6618
   94CHL1    C5 9370   4.793   2.513   7.178  0.0438 -0.5169  0.6904
   94CHL1    C6 9371   4.805   2.385   7.217  0.6162  0.3802  0.2128
   94CHL1    H6 9372   4.767   2.303   7.155  1.7582 -0.5739  0.7457
   94CHL1    C7 9373   4.841   2.345   7.361  0.5481 -0.3135 -0.3334
   94CHL1   H7A 9374   4.759   2.274   7.384 -1.3213  1.1919 -1.9331
   94CHL1   H7B 9375   4.938   2.293   7.363  0.5846 -0.3437 -1.8067
   94CHL1    C8 9376   4.839   2.470   7.459 -0.2405  0.6019  0.3788
   94CHL1    H8 9377   4.730   2.489   7.470 -0.7838 -2.3951  1.2686
   94CHL1   C14 9378   4.902   2.433   7.592  0.9010  0.6236 -0.4469
   94CHL1   H14 9379   5.006   2.400   7.569  0.9592 -0.1157  0.7926
   94CHL1   C15 9380   4.843   2.322   7.675  0.5136 -0.2613 -0.2663
   94CHL1  H15A 9381   4.732   2.331   7.668  0.5020 -0.9934 -1.4068
   94CHL1  H15B 9382   4.870   2.218   7.645 -1.3476 -0.4680 -1.4358
   94CHL1   C16 9383   4.893   2.336   7.814  0.5932 -0.3614  0.3014
   94CHL1  H16A 9384   4.802   2.348   7.877 -0.4594 -0.5735 -1.1310
   94CHL1  H16B 9385   4.955   2.252   7.852  2.2106  1.1783  1.1978
   94CHL1   C17 9386   4.966   2.472   7.809  0.4215 -0.2217 -0.4413
   94CHL1   H17 9387   5.072   2.452   7.779  0.3790  1.6816 -2.0163
   94CHL1   C13 9388   4.914   2.539   7.692 -0.1935  0.4212 -0.0754
   94CHL1   C18 9389   4.772   2.601   7.732  0.2155  0.1278 -0.7719
   94CHL1  H18A 9390   4.712   2.611   7.640  0.7456  0.4324 -1.0863
   94CHL1  H18B 9391   4.723   2.533   7.805  1.2619 -0.4987 -0.6280
   94CHL1  H18C 9392   4.795   2.697   7.784 -1.8182  1.1213 -1.6136
   94CHL1   C12 9393   4.997   2.653   7.621 -0.0325  0.0493 -0.5162
   94CHL1  H12A 9394   4.990   2.738   7.692  0.4442  1.0535 -1.6269
   94CHL1  H12B 9395   5.099   2.612   7.607 -1.0461 -2.2595 -1.5905
   94CHL1   C11 9396   4.926   2.705   7.493  1.1572 -0.2667 -0.3038
   94CHL1  H11A 9397   4.831   2.757   7.519  1.0221 -0.3131 -0.7017
   94CHL1  H11B 9398   4.988   2.780   7.439  1.9438 -1.7093 -1.4789
   94CHL1    C9 9399   4.900   2.590   7.390  0.5417  0.1185  0.0412
   94CHL1    H9 9400   5.006   2.565   7.366  0.2415 -0.2524 -0.9118
   94CHL1   C10 9401   4.832   2.634   7.261 -0.3220  0.0918  0.5674
   94CHL1   C19 9402   4.704   2.717   7.299  0.1048  0.3826 -0.6127
   94CHL1  H19A 9403   4.641   2.660   7.370 -0.3412  1.3512 -0.2091
   94CHL1  H19B 9404   4.749   2.812   7.337 -0.9881  1.4143 -1.8083
   94CHL1  H19C 9405   4.656   2.725   7.200  2.4640 -1.6785 -2.0453
   94CHL1    C1 9406   4.933   2.731   7.178  0.4973  0.2754  0.2384
   94CHL1   H1A 9407   4.941   2.827   7.234 -2.8394 -0.0472  1.5546
   94CHL1   H1B 9408   5.029   2.676   7.178 -0.1088 -1.0020  3.3431
   94CHL1    C2 9409   4.897   2.756   7.031  0.6355  0.6475 -0.1000
   94CHL1   H2A 9410   4.978   2.814   6.981  0.6332  1.0347  0.3374
   94CHL1   H2B 9411   4.806   2.820   7.033  0.2248  0.0903  1.9209
   94CHL1   C20 9412   4.955   2.543   7.945 -0.6088  0.0215  0.6483
   94CHL1   H20 9413   4.854   2.580   7.971 -0.8580 -0.4211  0.3175
   94CHL1   C21 9414   5.053   2.662   7.934 -0.1486  0.2049 -0.1042
   94CHL1  H21A 9415   5.148   2.623   7.892 -0.3868 -1.4100  0.7592
   94CHL1  H21B 9416   5.076   2.696   8.037  0.2008  0.6652 -0.3316
   94CHL1  H21C 9417   5.018   2.758   7.891 -0.3335 -0.1580 -0.7722
   94CHL1   C22 9418   4.988   2.450   8.065  0.2459 -0.3239 -0.0835
   94CHL1  H22A 9419   4.948   2.347   8.058  3.0565 -1.5762  0.7886
   94CHL1  H22B 9420   5.097   2.430   8.058  0.8732  2.1940  1.3058
   94CHL1   C23 9421   4.947   2.505   8.208  0.1409 -0.4546  0.2471
   94CHL1  H23A 9422   5.009   2.594   8.231 -0.1970 -0.0169 -0.4952
   94CHL1  H23B 9423   4.841   2.534   8.197 -0.6100 -2.4611  1.4882
   94CHL1   C24 9424   4.948   2.403   8.318 -0.9869  0.1081  0.4951
   94CHL1  H24A 9425   4.882   2.321   8.283 -0.8900 -0.1902  1.0060
   94CHL1  H24B 9426   5.052   2.367   8.331 -0.5680 -0.3478 -3.0374
   94CHL1   C25 9427   4.909   2.463   8.454 -0.2565  0.9993 -0.6559
   94CHL1   H25 9428   4.987   2.539   8.476  0.6381  0.4334 -1.7716
   94CHL1   C26 9429   4.767   2.522   8.463  0.3789 -0.4303 -0.9358
   94CHL1  H26A 9430   4.764   2.572   8.562  1.5591 -0.4209 -0.8955
   94CHL1  H26B 9431   4.753   2.608   8.394  1.3547  1.5133  1.1609
   94CHL1  H26C 9432   4.680   2.453   8.455 -3.0884  3.5611 -1.2095
   94CHL1   C27 9433   4.927   2.361   8.568 -0.3741  0.0652 -0.1567
   94CHL1  H27A 9434   5.037   2.346   8.577 -0.0496  1.6058 -1.2520
   94CHL1  H27B 9435   4.899   2.399   8.669  0.6520 -2.5026  1.2192
   94CHL1  H27C 9436   4.875   2.264   8.552 -0.1945  0.1958 -1.6534
   95CHL1    C3 9437   6.255   0.772   6.709  0.1257  0.5364  0.7453
   95CHL1    H3 9438   6.343   0.839   6.720  1.2948 -1.0370  1.4354
   95CHL1    O3 9439   6.204   0.770   6.577 -0.5070 -0.3307  0.1313
   95CHL1   H3' 9440   6.270   0.730   6.520 -0.4576 -0.0591 -0.0076
   95CHL1    C4 9441   6.309   0.636   6.742  0.2412  0.2323  0.6866
   95CHL1   H4A 9442   6.230   0.559   6.726  0.6171 -0.0143 -0.0140
   95CHL1   H4B 9443   6.392   0.609   6.673  0.5163 -2.6221  1.9882
   95CHL1    C5 9444   6.351   0.618   6.880  0.0058  0.5488  0.0437
   95CHL1    C6 9445   6.476   0.579   6.914  0.7124  0.8143  1.0844
   95CHL1    H6 9446   6.553   0.567   6.836 -0.7716  1.0268 -0.4703
   95CHL1    C7 9447   6.525   0.547   7.053 -0.7975  0.4094 -0.0913
   95CHL1   H7A 9448   6.571   0.446   7.052 -1.3781  0.1453 -0.7897
   95CHL1   H7B 9449   6.604   0.625   7.058 -1.7839  1.4566 -0.2167
   95CHL1    C8 9450   6.411   0.553   7.160  0.0568  0.8795  0.3063
   95CHL1    H8 9451   6.348   0.463   7.149 -1.6466  2.0010  0.5778
   95CHL1   C14 9452   6.473   0.556   7.302  0.7658  0.0963  0.4187
   95CHL1   H14 9453   6.531   0.651   7.301  1.3404 -0.2187 -1.4446
   95CHL1   C15 9454   6.575   0.448   7.338 -0.1939 -0.0465 -0.1163
   95CHL1  H15A 9455   6.546   0.343   7.317  3.2883 -1.6771  2.1885
   95CHL1  H15B 9456   6.670   0.466   7.284 -0.2379 -1.7190 -0.8111
   95CHL1   C16 9457   6.582   0.456   7.489 -0.3785 -0.1725 -0.4369
   95CHL1  H16A 9458   6.555   0.359   7.537 -1.5351  0.5118  0.3675
   95CHL1  H16B 9459   6.683   0.493   7.517  0.2978 -1.2560 -1.3867
   95CHL1   C17 9460   6.474   0.560   7.526 -0.0920  0.0709 -0.3548
   95CHL1   H17 9461   6.514   0.664   7.526 -0.9585  0.4714  1.8806
   95CHL1   C13 9462   6.368   0.569   7.417 -0.5197 -0.0445  0.1257
   95CHL1   C18 9463   6.268   0.445   7.430 -0.3275  0.4446 -0.1110
   95CHL1  H18A 9464   6.335   0.364   7.467 -1.2206  0.0426  0.6360
   95CHL1  H18B 9465   6.196   0.459   7.513 -0.1442  2.6651 -0.2646
   95CHL1  H18C 9466   6.237   0.411   7.329 -1.7913  0.6845  0.2393
   95CHL1   C12 9467   6.300   0.702   7.381 -0.0313 -0.8882  0.0146
   95CHL1  H12A 9468   6.228   0.734   7.459  0.4374  0.1770  0.0306
   95CHL1  H12B 9469   6.369   0.789   7.380 -0.8282 -0.2502 -0.2759
   95CHL1   C11 9470   6.225   0.703   7.244  0.5293 -0.5358 -0.0017
   95CHL1  H11A 9471   6.145   0.626   7.251  1.5760 -1.5430  1.5689
   95CHL1  H11B 9472   6.180   0.800   7.217  4.0607  1.3226  0.1291
   95CHL1    C9 9473   6.325   0.677   7.125  0.4408 -0.2190 -0.1960
   95CHL1    H9 9474   6.395   0.763   7.118 -1.2514  1.2806  0.4652
   95CHL1   C10 9475   6.253   0.663   6.988  0.5487  0.5846  0.3920
   95CHL1   C19 9476   6.140   0.552   6.990  0.4091  0.4159 -0.4797
   95CHL1  H19A 9477   6.064   0.582   7.065 -0.6930 -0.8832 -1.0389
   95CHL1  H19B 9478   6.084   0.537   6.895 -3.7429 -0.2443  1.8706
   95CHL1  H19C 9479   6.178   0.452   7.020 -1.1734  0.1878  0.8801
   95CHL1    C1 9480   6.191   0.803   6.948  0.1499  0.9081 -0.2414
   95CHL1   H1A 9481   6.110   0.835   7.017 -1.3998 -1.6823 -0.7370
   95CHL1   H1B 9482   6.276   0.873   6.961  0.1516  0.6544  1.2183
   95CHL1    C2 9483   6.142   0.808   6.799  0.9782  0.3359  0.3958
   95CHL1   H2A 9484   6.087   0.901   6.771  0.8726  0.3633  0.6916
   95CHL1   H2B 9485   6.061   0.733   6.789  0.6816  0.2999  2.5202
   95CHL1   C20 9486   6.404   0.558   7.666  0.3076 -0.2215  0.3875
   95CHL1   H20 9487   6.318   0.487   7.669  0.4911 -0.5368 -1.0000
   95CHL1   C21 9488   6.355   0.691   7.714 -0.5175  0.3851 -0.0675
   95CHL1  H21A 9489   6.276   0.736   7.650 -1.5356 -0.7916  0.3108
   95CHL1  H21B 9490   6.442   0.760   7.721 -0.6692  0.6260 -0.5597
   95CHL1  H21C 9491   6.315   0.691   7.818  0.8560  0.4891  0.4908
   95CHL1   C22 9492   6.507   0.490   7.762  0.2335  0.4099 -0.1595
   95CHL1  H22A 9493   6.530   0.387   7.726 -0.7869 -0.0571  0.4523
   95CHL1  H22B 9494   6.595   0.557   7.766  1.3603 -0.9391 -1.2479
   95CHL1   C23 9495   6.451   0.488   7.903  0.4346 -0.4644  0.3919
   95CHL1  H23A 9496   6.467   0.585   7.955  0.0816 -0.6685  0.8979
   95CHL1  H23B 9497   6.342   0.469   7.906  0.1313  1.2238  1.9109
   95CHL1   C24 9498   6.529   0.383   7.971  0.1128  0.0119  0.1185
   95CHL1  H24A 9499   6.502   0.283   7.932  1.1464  0.2264 -1.2525
   95CHL1  H24B 9500   6.639   0.394   7.953  0.2938 -1.0178  0.5327
   95CHL1   C25 9501   6.520   0.380   8.128  0.2350  0.4452  0.5598
   95CHL1   H25 9502   6.560   0.480   8.156 -0.4433  0.4394  1.5977
   95CHL1   C26 9503   6.374   0.369   8.165 -0.7158  0.4136 -0.0517
   95CHL1  H26A 9504   6.356   0.352   8.273  2.0894 -0.9036  0.2948
   95CHL1  H26B 9505   6.319   0.462   8.140  2.6297  2.2616 -1.2654
   95CHL1  H26C 9506   6.340   0.283   8.103  1.2404  0.6097 -1.5190
   95CHL1   C27 9507   6.605   0.274   8.200 -0.5068  0.4588  0.6318
   95CHL1  H27A 9508   6.580   0.172   8.162  1.5839 -1.0591  2.9750
   95CHL1  H27B 9509   6.713   0.293   8.182 -0.4543 -1.0910 -0.9400
   95CHL1  H27C 9510   6.573   0.293   8.305  0.7180  1.1759  0.8952
   96CHL1    C3 9511   2.946   0.311   6.651 -0.1676 -0.3180  0.0944
   96CHL1    H3 9512   2.892   0.233   6.708  0.9130 -1.7514 -0.7712
   96CHL1    O3 9513   2.913   0.303   6.510  0.0154  0.0902 -0.2838
   96CHL1   H3' 9514   2.834   0.356   6.498  0.0397  0.1610 -0.1286
   96CHL1    C4 9515   2.903   0.444   6.704  0.5163 -0.3539  0.0344
   96CHL1   H4A 9516   2.956   0.531   6.659 -2.7391  1.4087 -0.6953
   96CHL1   H4B 9517   2.796   0.457   6.677 -0.3601 -2.8454  1.9090
   96CHL1    C5 9518   2.921   0.453   6.857  0.0099  0.2217 -0.2753
   96CHL1    C6 9519   2.819   0.494   6.934  0.5368  0.7198 -0.5311
   96CHL1    H6 9520   2.721   0.525   6.896  1.9788  2.7521 -2.9184
   96CHL1    C7 9521   2.849   0.512   7.084 -0.3325 -0.3062  0.3386
   96CHL1   H7A 9522   2.812   0.608   7.126  1.9433  1.2319 -0.9792
   96CHL1   H7B 9523   2.784   0.434   7.130 -0.2545 -1.5706 -1.5722
   96CHL1    C8 9524   2.995   0.502   7.132 -0.5541  0.6862 -0.2621
   96CHL1    H8 9525   3.053   0.596   7.117 -0.2482  0.5778  0.2377
   96CHL1   C14 9526   3.000   0.452   7.275  0.2245  0.7150  0.6871
   96CHL1   H14 9527   2.951   0.353   7.269  2.2291 -0.3179  0.4599
   96CHL1   C15 9528   2.902   0.516   7.380 -0.4822  0.0421  0.3663
   96CHL1  H15A 9529   2.917   0.626   7.380 -0.1448 -0.0036  0.6972
   96CHL1  H15B 9530   2.798   0.480   7.362  0.5601 -3.4212  0.6713
   96CHL1   C16 9531   2.956   0.464   7.512  0.6142  0.3574 -0.1987
   96CHL1  H16A 9532   2.979   0.547   7.583  2.0760 -0.3333  0.1733
   96CHL1  H16B 9533   2.883   0.405   7.571  0.6362 -0.1152 -0.6373
   96CHL1   C17 9534   3.090   0.389   7.489  0.4111 -0.8069  0.6313
   96CHL1   H17 9535   3.048   0.287   7.472  0.0480 -0.6455  0.5466
   96CHL1   C13 9536   3.136   0.435   7.348  0.2311  0.5119 -0.4181
   96CHL1   C18 9537   3.207   0.577   7.360  0.0027  0.6323  0.2360
   96CHL1  H18A 9538   3.309   0.564   7.402  0.2791 -2.5060 -1.1317
   96CHL1  H18B 9539   3.218   0.630   7.264  0.2223 -2.9011 -1.8690
   96CHL1  H18C 9540   3.150   0.648   7.424 -2.5941 -0.8334 -0.2955
   96CHL1   C12 9541   3.213   0.328   7.263 -0.3945 -0.6922  0.0746
   96CHL1  H12A 9542   3.322   0.322   7.287 -0.2816  1.5748  0.3605
   96CHL1  H12B 9543   3.172   0.227   7.280 -0.2999 -0.9476 -1.1037
   96CHL1   C11 9544   3.214   0.359   7.111  0.4057 -0.2259  0.2103
   96CHL1  H11A 9545   3.291   0.437   7.090  0.1019  0.2792  0.9683
   96CHL1  H11B 9546   3.256   0.275   7.052  0.7683  1.6983 -2.4718
   96CHL1    C9 9547   3.071   0.386   7.054 -0.2320  0.0626  0.1099
   96CHL1    H9 9548   3.007   0.298   7.072 -1.2566  1.0827  1.7699
   96CHL1   C10 9549   3.064   0.417   6.901 -0.2497  0.6830 -0.2886
   96CHL1   C19 9550   3.156   0.529   6.861  0.0291  0.3632 -0.1060
   96CHL1  H19A 9551   3.135   0.608   6.936 -1.5444 -2.5751  2.7945
   96CHL1  H19B 9552   3.259   0.499   6.890  0.5034  1.7958 -0.2492
   96CHL1  H19C 9553   3.157   0.567   6.756 -2.5990  0.3740 -0.1932
   96CHL1    C1 9554   3.110   0.284   6.825  0.0112 -0.0496  0.7630
   96CHL1   H1A 9555   3.217   0.268   6.851 -0.3122  0.3485  2.3867
   96CHL1   H1B 9556   3.055   0.192   6.853 -0.5377 -0.1833 -0.6323
   96CHL1    C2 9557   3.096   0.295   6.667 -0.5470  0.2786 -0.7851
   96CHL1   H2A 9558   3.136   0.199   6.629  1.6613  1.2759 -1.1314
   96CHL1   H2B 9559   3.159   0.376   6.624 -0.7454  0.7377 -0.2311
   96CHL1   C20 9560   3.187   0.410   7.605 -0.2975  0.4153 -0.0466
   96CHL1   H20 9561   3.221   0.514   7.622  0.2600  0.2844 -0.3078
   96CHL1   C21 9562   3.304   0.324   7.568 -0.6299  0.1598  0.1120
   96CHL1  H21A 9563   3.377   0.327   7.651 -0.6275  1.1948  0.0839
   96CHL1  H21B 9564   3.369   0.365   7.487  1.6024  0.0327  1.7406
   96CHL1  H21C 9565   3.277   0.217   7.559 -0.4275  0.1511 -0.4262
   96CHL1   C22 9566   3.126   0.357   7.737 -0.7306 -0.0712 -0.3733
   96CHL1  H22A 9567   3.032   0.408   7.768 -0.4874  0.1115  0.0736
   96CHL1  H22B 9568   3.114   0.248   7.724  2.2841 -0.3344 -1.6684
   96CHL1   C23 9569   3.221   0.374   7.863  0.5453  0.4901  0.6523
   96CHL1  H23A 9570   3.323   0.333   7.843 -0.0617 -1.2733  1.0124
   96CHL1  H23B 9571   3.225   0.484   7.876 -1.4645  1.3861 -4.1630
   96CHL1   C24 9572   3.167   0.307   7.990 -0.4812  0.7268  0.3458
   96CHL1  H24A 9573   3.056   0.306   7.985 -0.6335  2.8989  1.7123
   96CHL1  H24B 9574   3.192   0.199   7.997  0.0759  0.8462  0.2300
   96CHL1   C25 9575   3.194   0.378   8.123  0.1993  0.1944  0.3119
   96CHL1   H25 9576   3.145   0.320   8.203 -0.7774 -0.1078 -0.4826
   96CHL1   C26 9577   3.346   0.378   8.142  0.2016  0.0227  0.5793
   96CHL1  H26A 9578   3.384   0.467   8.088 -1.3190 -0.1551 -0.8772
   96CHL1  H26B 9579   3.373   0.404   8.246  0.5584  0.8790  0.2803
   96CHL1  H26C 9580   3.394   0.280   8.119 -1.3514 -0.8088  0.6878
   96CHL1   C27 9581   3.128   0.513   8.136  1.1684  0.0177  0.0953
   96CHL1  H27A 9582   3.167   0.576   8.053 -0.7766  2.0685  0.6055
   96CHL1  H27B 9583   3.018   0.511   8.121  1.1801  2.0281 -0.6742
   96CHL1  H27C 9584   3.153   0.571   8.228 -0.5479 -0.2820  0.7980
   97OSM      N 9585   1.989   1.297  11.043 -0.1846 -0.5027  0.4782
   97OSM    C15 9586   2.130   1.331  11.039 -0.0077  0.4171  0.2992
   97OSM   H15A 9587   2.151   1.383  11.131 -2.4282  1.4994  0.2973
   97OSM   H15B 9588   2.154   1.380  10.945 -1.5740 -0.7291 -0.7525
   97OSM   H15C 9589   2.186   1.239  11.031  1.0841  1.1987 -2.3940
   97OSM    C14 9590   1.962   1.213  11.159 -0.1027 -0.3063  0.1099
   97OSM   H14A 9591   1.866   1.236  11.201 -0.4663 -1.1170 -0.2713
   97OSM   H14B 9592   2.041   1.221  11.232  0.9051 -0.5237 -0.9114
   97OSM   H14C 9593   1.965   1.110  11.127  1.1023 -0.4721  0.6781
   97OSM    C13 9594   1.902   1.417  11.051 -0.2024  0.2517 -0.0360
   97OSM   H13A 9595   1.801   1.379  11.053  0.0565 -0.5575 -1.3886
   97OSM   H13B 9596   1.917   1.475  10.961 -0.8877 -0.6882 -0.7671
   97OSM   H13C 9597   1.925   1.477  11.138  0.1368  0.9752 -0.6105
   97OSM    C12 9598   1.962   1.221  10.911 -0.2799 -0.3231 -0.3499
   97OSM   H12A 9599   1.980   1.293  10.833  0.5360 -0.6582 -0.4784
   97OSM   H12B 9600   1.856   1.199  10.913 -0.5017  0.5947 -0.9779
   97OSM    C11 9601   2.045   1.099  10.894  0.2033  1.0243  0.9772
   97OSM   H11A 9602   2.153   1.123  10.889  0.2219  1.4591  2.8802
   97OSM   H11B 9603   2.023   1.053  10.795 -2.7125  1.1934  1.4741
   97OSM      P 9604   2.118   0.871  11.000  0.2410 -0.3711  0.2510
   97OSM    O13 9605   2.242   0.918  11.062 -0.8867 -0.1639  0.4254
   97OSM    O14 9606   2.055   0.748  11.059  0.3815  0.4240 -0.0842
   97OSM    O11 9607   2.147   0.843  10.850  0.0718 -0.3123  0.1178
   97OSM    O12 9608   2.012   0.993  10.987  0.3380  0.5688  0.0573
   97OSM    C1S 9609   2.074   0.748  10.767 -0.3716  0.0218  0.1973
   97OSM    H1S 9610   1.966   0.736  10.790 -0.1903 -2.3457  0.0065
   97OSM    H1T 9611   2.111   0.644  10.779 -0.1850 -0.4536 -3.4365
   97OSM     NF 9612   2.007   0.678  10.539 -0.0300 -0.3194  0.1660
   97OSM    HNF 9613   2.044   0.632  10.459  0.0429  3.5980 -2.2920
   97OSM    C2S 9614   2.081   0.778  10.613 -0.1288 -0.1642  0.2072
   97OSM    H2S 9615   2.033   0.875  10.589  0.6939 -0.4717 -3.1949
   97OSM    C3S 9616   2.224   0.795  10.558  0.1675 -0.2894  0.5499
   97OSM    H3S 9617   2.262   0.691  10.552  2.7933  0.6131  0.1099
   97OSM     O3 9618   2.314   0.864  10.652  0.2264 -0.6018  0.4067
   97OSM    HO3 9619   2.265   0.855  10.735 -0.7110  1.1253  0.0764
   97OSM    C4S 9620   2.241   0.855  10.420  1.1040  0.1852  0.4576
   97OSM    H4S 9621   2.202   0.794  10.337  0.3700  3.3544 -1.6910
   97OSM    C5S 9622   2.293   0.979  10.394  0.5619  0.0894 -0.2970
   97OSM    H5S 9623   2.330   1.045  10.474 -0.2487 -0.5046  0.5823
   97OSM    C6S 9624   2.309   1.034  10.256 -0.3417  0.6328  0.4199
   97OSM    H6S 9625   2.417   1.036  10.229 -0.4106  2.0552  0.2046
   97OSM    H6T 9626   2.289   1.143  10.258  2.1429  1.1978 -1.0165
   97OSM    C7S 9627   2.217   0.969  10.149 -0.1508  0.1922 -0.2859
   97OSM    H7S 9628   2.111   0.972  10.180  0.6305 -1.3106  2.8854
   97OSM    H7T 9629   2.245   0.865  10.121  0.6358  0.7906 -1.8604
   97OSM    C8S 9630   2.227   1.048  10.015  0.2655  0.2048 -0.2218
   97OSM    H8S 9631   2.318   1.021   9.958  0.1086 -0.4760 -0.1616
   97OSM    H8T 9632   2.224   1.157  10.037 -1.1371  0.2531 -0.5622
   97OSM    C9S 9633   2.095   1.017   9.926 -0.6734  0.1601  0.2149
   97OSM    H9S 9634   2.009   1.022   9.997  0.8815 -3.7945  2.7578
   97OSM    H9T 9635   2.108   0.912   9.890 -1.9742 -0.5204  1.5955
   97OSM   C10S 9636   2.076   1.100   9.791 -0.2303 -0.4740 -0.4683
   97OSM   H10S 9637   2.087   1.208   9.813  0.7747  0.0276 -3.1318
   97OSM   H10T 9638   1.971   1.082   9.759  0.0438 -0.2880 -1.5062
   97OSM   C11S 9639   2.176   1.071   9.682 -0.1387 -0.1721 -0.1572
   97OSM   H11S 9640   2.171   0.963   9.660  1.8217 -0.3276 -0.0181
   97OSM   H11T 9641   2.276   1.104   9.718  0.8103 -0.6406 -2.2569
   97OSM   C12S 9642   2.129   1.140   9.553 -0.1012  0.5598  0.0254
   97OSM   H12S 9643   2.124   1.248   9.578  1.7770  0.5286  0.7121
   97OSM   H12T 9644   2.020   1.125   9.538 -0.0271 -0.2323  0.2328
   97OSM   C13S 9645   2.202   1.096   9.425  0.1090  0.3747  0.0215
   97OSM   H13S 9646   2.170   0.993   9.401 -2.3171  0.3374  2.8982
   97OSM   H13T 9647   2.310   1.121   9.424  0.0233  0.8028  0.6093
   97OSM   C14S 9648   2.166   1.182   9.298  0.4731 -0.0644 -0.3104
   97OSM   H14S 9649   2.199   1.287   9.311  0.0931  0.1797 -1.2094
   97OSM   H14T 9650   2.058   1.180   9.273  0.5745  0.2470 -0.7854
   97OSM   C15S 9651   2.226   1.123   9.174 -1.3187 -0.7715  0.5029
   97OSM   H15S 9652   2.193   1.019   9.150  0.4837 -1.7038  1.8142
   97OSM   H15T 9653   2.335   1.131   9.194 -1.7406  1.6080  2.2837
   97OSM   C16S 9654   2.192   1.208   9.051  0.2460 -0.5220 -0.0653
   97OSM   H16S 9655   2.208   1.313   9.083 -1.2138 -1.1451  3.0781
   97OSM   H16T 9656   2.082   1.199   9.033  0.1885 -1.3542  0.6577
   97OSM   C17S 9657   2.273   1.164   8.928 -0.0390 -0.2800  0.1833
   97OSM   H17S 9658   2.253   1.055   8.919 -1.3319  0.1069 -2.6922
   97OSM   H17T 9659   2.376   1.195   8.956  0.2589 -0.3959 -0.7604
   97OSM   C18S 9660   2.227   1.216   8.792  0.4003 -0.2308 -0.7167
   97OSM   H18S 9661   2.121   1.187   8.780  0.4437 -1.5407  1.4625
   97OSM   H18T 9662   2.296   1.185   8.711  1.3757 -0.2414  0.0938
   97OSM   H18U 9663   2.250   1.323   8.774  0.3601 -0.7096 -4.1569
   97OSM    C1F 9664   1.879   0.658  10.554  1.2918 -0.6541  0.1032
   97OSM     OF 9665   1.805   0.731  10.615 -0.2243 -0.1771  0.3479
   97OSM    C2F 9666   1.826   0.539  10.479 -0.0894 -0.6683 -0.0835
   97OSM    H2F 9667   1.908   0.468  10.458 -1.7104 -1.8555 -3.0131
   97OSM    H2G 9668   1.805   0.582  10.378 -0.0499 -0.5963 -0.0611
   97OSM    C3F 9669   1.701   0.465  10.527  0.4394  0.4807 -0.3830
   97OSM    H3F 9670   1.621   0.542  10.529  0.6026  0.8760 -3.6002
   97OSM    H3G 9671   1.722   0.426  10.629  0.0943  0.5672 -0.2761
   97OSM    C4F 9672   1.657   0.345  10.443 -0.3097 -0.5091  0.0779
   97OSM    H4F 9673   1.574   0.289  10.490 -1.3640  1.0365  0.1418
   97OSM    H4G 9674   1.751   0.286  10.434  0.4352  0.8413 -1.4630
   97OSM    C5F 9675   1.606   0.398  10.307 -0.2556 -0.6844  0.1729
   97OSM    H5F 9676   1.696   0.436  10.254 -0.8757  0.0509 -0.3719
   97OSM    H5G 9677   1.539   0.485  10.321  0.5043  0.3711 -2.1999
   97OSM    C6F 9678   1.557   0.277  10.216  0.2630  0.6738  0.1743
   97OSM    H6F 9679   1.455   0.245  10.247 -0.0650  0.5725 -0.9676
   97OSM    H6G 9680   1.625   0.189  10.228 -0.1956  0.6840  4.3455
   97OSM    C7F 9681   1.558   0.324  10.068 -0.1345  0.1053 -0.7095
   97OSM    H7F 9682   1.661   0.360  10.047  0.3983  2.1280  4.1806
   97OSM    H7G 9683   1.480   0.400  10.044 -2.1707 -1.2196  1.3108
   97OSM    C8F 9684   1.547   0.208   9.963 -0.2461  0.0502 -0.4345
   97OSM    H8F 9685   1.639   0.146   9.967 -0.8603 -0.8416  0.0725
   97OSM    H8G 9686   1.545   0.264   9.867 -3.4964  2.1998  0.7065
   97OSM    C9F 9687   1.434   0.122   9.988  0.1247  0.6092  0.7371
   97OSM    H9F 9688   1.431   0.065  10.082 -0.6762  0.3071  0.5416
   97OSM   C10F 9689   1.324   0.109   9.916  0.1211  0.8388 -0.2114
   97OSM   H10F 9690   1.249   0.037   9.951  1.6211  0.6086  2.8595
   97OSM   C11F 9691   1.303   0.194   9.789  0.6263 -0.2354 -0.0027
   97OSM   H11F 9692   1.369   0.281   9.770 -0.1367  0.4610  0.4739
   97OSM   H11G 9693   1.203   0.241   9.773  2.0091  2.5309 -1.1995
   97OSM   C12F 9694   1.315   0.106   9.660  0.2849  0.1370  0.6944
   97OSM   H12F 9695   1.233   0.033   9.646 -1.5660  2.2341 -0.1141
   97OSM   H12G 9696   1.404   0.040   9.675 -0.1540 -0.2509  1.6667
   97OSM   C13F 9697   1.320   0.179   9.520  0.2615  0.5987  0.1068
   97OSM   H13F 9698   1.409   0.244   9.509  1.2986 -0.4907  1.6507
   97OSM   H13G 9699   1.231   0.246   9.523 -1.7585 -1.7830 -2.1357
   97OSM   C14F 9700   1.322   0.081   9.399 -0.5682 -0.1630  0.4011
   97OSM   H14F 9701   1.228   0.023   9.388  0.0639 -1.2612  0.6957
   97OSM   H14G 9702   1.395  -0.002   9.407 -1.1627 -1.5147 -4.4644
   97OSM   C15F 9703   1.353   0.161   9.272  0.2442  0.1860 -0.2385
   97OSM   H15F 9704   1.380   0.101   9.182  5.0679  1.3380  0.1555
   97OSM   H15G 9705   1.453   0.210   9.280  0.4942 -0.1724 -1.0577
   97OSM   C16F 9706   1.267   0.281   9.242  0.4989  0.6287 -0.7278
   97OSM   H16F 9707   1.267   0.361   9.319 -0.6985  0.5668 -0.6341
   97OSM   H16G 9708   1.162   0.252   9.217 -0.2023  1.7839  0.6929
   97OSM   C17F 9709   1.314   0.351   9.112 -0.6787  0.1493 -0.2502
   97OSM   H17F 9710   1.414   0.398   9.119 -0.7071  0.5879 -2.1806
   97OSM   H17G 9711   1.248   0.440   9.108  1.0512  1.5029  0.1528
   97OSM   C18F 9712   1.307   0.271   8.981 -0.0300  0.3206 -0.6623
   97OSM   H18F 9713   1.357   0.325   8.898  0.7870 -0.3580 -0.6278
   97OSM   H18G 9714   1.200   0.261   8.952 -0.3908 -2.1418  1.1822
   97OSM   H18H 9715   1.346   0.167   8.991 -1.6636 -0.3838 -1.2171
   98OSM      N 9716   1.908   0.276  11.323 -0.0421  0.0800  0.3503
   98OSM    C15 9717   1.981   0.303  11.195 -0.6959 -0.3414  0.5623
   98OSM   H15A 9718   1.909   0.341  11.124  0.9784  0.5177 -0.7257
   98OSM   H15B 9719   2.036   0.214  11.168 -1.3102 -2.0915  4.3201
   98OSM   H15C 9720   2.056   0.377  11.215 -1.4556  0.8991 -0.9959
   98OSM    C14 9721   2.005   0.246  11.425 -0.1097 -0.0591  0.5601
   98OSM   H14A 9722   2.061   0.335  11.452 -3.0293  2.6367 -1.5708
   98OSM   H14B 9723   2.059   0.161  11.388 -0.8030  0.1385 -0.9486
   98OSM   H14C 9724   1.949   0.202  11.506 -0.2963  0.9067  0.9703
   98OSM    C13 9725   1.844   0.406  11.356  0.1497 -0.2445  0.3194
   98OSM   H13A 9726   1.767   0.426  11.284  0.3651 -0.1681  0.1089
   98OSM   H13B 9727   1.920   0.483  11.350  0.0300 -0.1570 -0.0505
   98OSM   H13C 9728   1.809   0.419  11.458 -1.7721 -0.8039 -0.2318
   98OSM    C12 9729   1.805   0.166  11.308  0.2818  0.4696 -0.2559
   98OSM   H12A 9730   1.741   0.157  11.395  0.6612 -0.0469 -0.0224
   98OSM   H12B 9731   1.852   0.069  11.295  1.4996  0.9498  0.4120
   98OSM    C11 9732   1.695   0.178  11.198  0.0341 -0.2629  0.0850
   98OSM   H11A 9733   1.663   0.284  11.201  1.4384  0.1926  3.2772
   98OSM   H11B 9734   1.610   0.106  11.209  0.1249 -0.7708 -2.0972
   98OSM      P 9735   1.766   0.009  11.004 -0.3028  0.3564  0.1237
   98OSM    O13 9736   1.912  -0.027  11.013 -0.0767 -0.5083  0.4380
   98OSM    O14 9737   1.669  -0.080  11.068 -0.1304 -0.1518 -0.1111
   98OSM    O11 9738   1.730   0.037  10.855  0.8264  0.4501 -0.4412
   98OSM    O12 9739   1.750   0.152  11.070 -0.2143  0.1899  0.1230
   98OSM    C1S 9740   1.717  -0.079  10.763  0.6180 -0.1367 -0.9332
   98OSM    H1S 9741   1.614  -0.121  10.768 -0.0456  1.5123  0.6788
   98OSM    H1T 9742   1.789  -0.160  10.788  1.5813  0.2535 -2.3872
   98OSM     NF 9743   1.728  -0.145  10.530 -0.2666 -0.6491 -0.2553
   98OSM    HNF 9744   1.807  -0.205  10.524  0.9317  0.8742 -0.4166
   98OSM    C2S 9745   1.744  -0.032  10.625  0.2070 -0.1573  0.4847
   98OSM    H2S 9746   1.683   0.053  10.585 -0.2041 -1.5275 -1.9751
   98OSM    C3S 9747   1.891   0.026  10.623 -0.4943  0.6955 -0.2079
   98OSM    H3S 9748   1.961  -0.043  10.675  0.6352 -0.6673 -3.2944
   98OSM     O3 9749   1.909   0.157  10.681 -0.7581 -0.0154  0.9562
   98OSM    HO3 9750   1.832   0.164  10.738 -0.9981  0.0244  0.6279
   98OSM    C4S 9751   1.945   0.041  10.478 -0.0933  0.8421  0.5168
   98OSM    H4S 9752   1.870   0.095  10.417 -2.0291 -1.8195  0.3179
   98OSM    C5S 9753   2.054  -0.013  10.422 -0.2752 -0.1831 -0.3189
   98OSM    H5S 9754   2.106  -0.090  10.482 -0.3502  1.4123  1.9112
   98OSM    C6S 9755   2.090  -0.001  10.272 -0.2442 -0.1041 -0.0583
   98OSM    H6S 9756   2.126  -0.104  10.252 -1.1174 -0.3252 -0.5061
   98OSM    H6T 9757   2.174   0.067  10.246  0.0413 -0.6739 -0.6687
   98OSM    C7S 9758   1.974   0.028  10.175  0.4302  0.2883  0.2091
   98OSM    H7S 9759   1.924   0.120  10.212  1.7336  0.0258  2.8306
   98OSM    H7T 9760   1.908  -0.061  10.186 -0.8096  1.0894 -0.5452
   98OSM    C8S 9761   2.012   0.038  10.034 -0.7392 -0.3272  0.1243
   98OSM    H8S 9762   2.038  -0.066  10.001 -1.7165  0.2019 -2.5103
   98OSM    H8T 9763   2.104   0.100  10.029 -0.9391 -0.0481 -0.1116
   98OSM    C9S 9764   1.906   0.088   9.934 -0.8370  0.1062 -0.2359
   98OSM    H9S 9765   1.870   0.185   9.975  1.4052 -0.3150  3.0778
   98OSM    H9T 9766   1.829   0.009   9.926  1.0852 -1.7407 -1.3423
   98OSM   C10S 9767   1.960   0.111   9.790 -0.2452 -0.0388  0.5748
   98OSM   H10S 9768   2.001   0.013   9.757  1.2959  0.8221 -0.1538
   98OSM   H10T 9769   2.033   0.194   9.784  0.4579 -0.5241  2.0505
   98OSM   C11S 9770   1.843   0.128   9.690 -0.1285 -0.2873 -0.3120
   98OSM   H11S 9771   1.776   0.205   9.733  1.2677 -0.0830  1.6795
   98OSM   H11T 9772   1.797   0.027   9.683 -0.5592 -0.0574 -0.8441
   98OSM   C12S 9773   1.900   0.153   9.550 -0.2480 -0.5109  0.5141
   98OSM   H12S 9774   1.818   0.149   9.475  0.2756 -0.1975 -0.0798
   98OSM   H12T 9775   1.977   0.073   9.537 -2.0762 -2.2730  0.0472
   98OSM   C13S 9776   1.949   0.293   9.529  0.1405  0.5644 -0.1053
   98OSM   H13S 9777   2.046   0.310   9.581  0.6627 -1.7574 -0.1988
   98OSM   H13T 9778   1.880   0.361   9.584 -1.1267 -1.2370  0.6461
   98OSM   C14S 9779   1.957   0.332   9.374 -0.6267  0.4772 -0.5563
   98OSM   H14S 9780   2.023   0.419   9.355  0.1675 -0.1622 -0.7704
   98OSM   H14T 9781   1.854   0.363   9.345 -1.2524 -0.4601  0.5720
   98OSM   C15S 9782   1.997   0.215   9.285 -0.2018  0.2471 -0.1892
   98OSM   H15S 9783   1.918   0.138   9.272 -0.0084  0.4795 -3.5681
   98OSM   H15T 9784   2.075   0.149   9.330 -0.6825  0.1755  0.5648
   98OSM   C16S 9785   2.024   0.257   9.136  0.2855 -0.3862 -0.6111
   98OSM   H16S 9786   2.066   0.168   9.086  4.0938  0.1406  1.3229
   98OSM   H16T 9787   2.109   0.328   9.129  0.3686 -0.3064  0.8677
   98OSM   C17S 9788   1.911   0.310   9.049 -0.7507  0.8824  0.2812
   98OSM   H17S 9789   1.892   0.413   9.089  1.1989  1.2237  0.4352
   98OSM   H17T 9790   1.818   0.252   9.063  0.9617 -2.0284  0.3750
   98OSM   C18S 9791   1.946   0.317   8.901 -0.7127 -0.4094 -0.0054
   98OSM   H18S 9792   1.982   0.217   8.869 -2.0259 -0.7110 -0.6184
   98OSM   H18T 9793   2.031   0.388   8.898 -0.6955 -0.4741 -1.3640
   98OSM   H18U 9794   1.857   0.342   8.840 -0.6227 -3.3697 -1.5231
   98OSM    C1F 9795   1.608  -0.186  10.498 -0.6347  0.1977  0.7210
   98OSM     OF 9796   1.514  -0.111  10.514 -0.1805 -0.3500  0.5444
   98OSM    C2F 9797   1.593  -0.332  10.460 -0.2208 -0.0186 -0.2085
   98OSM    H2F 9798   1.534  -0.373  10.545 -1.3856  0.0789 -0.9430
   98OSM    H2G 9799   1.688  -0.389  10.467 -0.5860 -0.4376  2.2857
   98OSM    C3F 9800   1.540  -0.376  10.322 -0.5608  0.0398  0.2662
   98OSM    H3F 9801   1.437  -0.340  10.304  0.2090  1.4782 -1.6018
   98OSM    H3G 9802   1.542  -0.487  10.315  0.9788  0.1552 -3.2829
   98OSM    C4F 9803   1.639  -0.320  10.219 -0.1010 -0.2413  0.0227
   98OSM    H4F 9804   1.744  -0.350  10.239 -0.7478 -3.6869 -1.1481
   98OSM    H4G 9805   1.633  -0.209  10.213  2.9062  0.0276  0.3451
   98OSM    C5F 9806   1.618  -0.369  10.076 -0.3688  0.3658 -0.0895
   98OSM    H5F 9807   1.510  -0.359  10.052 -0.2008  0.1159 -0.9682
   98OSM    H5G 9808   1.637  -0.478  10.072 -0.4023  0.2426  2.0052
   98OSM    C6F 9809   1.709  -0.286   9.982  0.4653  0.4262 -0.0773
   98OSM    H6F 9810   1.807  -0.270  10.032 -0.2566 -0.2172  1.6407
   98OSM    H6G 9811   1.666  -0.186   9.963 -0.3745 -0.2688 -2.2159
   98OSM    C7F 9812   1.729  -0.357   9.852  0.6592  0.2547  0.0291
   98OSM    H7F 9813   1.769  -0.460   9.861 -2.9132 -1.4088 -1.2110
   98OSM    H7G 9814   1.802  -0.297   9.795 -0.9126  2.6726  0.4089
   98OSM    C8F 9815   1.610  -0.376   9.766  0.0909 -0.0791 -0.3470
   98OSM    H8F 9816   1.561  -0.277   9.754  2.2081  0.9431 -1.0313
   98OSM    H8G 9817   1.548  -0.443   9.828  0.8163 -0.4994 -0.0633
   98OSM    C9F 9818   1.652  -0.442   9.635 -0.3736  0.0240  0.1585
   98OSM    H9F 9819   1.645  -0.551   9.627  0.1285 -0.0576  0.7678
   98OSM   C10F 9820   1.676  -0.371   9.522  0.1990 -0.1125 -0.2213
   98OSM   H10F 9821   1.696  -0.415   9.423  0.8049  0.3326 -0.3042
   98OSM   C11F 9822   1.683  -0.220   9.512 -0.1172 -0.1916 -0.0882
   98OSM   H11F 9823   1.788  -0.187   9.527 -0.4250  1.3010 -0.9922
   98OSM   H11G 9824   1.627  -0.174   9.597  0.6149  0.5374  0.0105
   98OSM   C12F 9825   1.642  -0.155   9.378 -0.4020 -0.0620  0.0588
   98OSM   H12F 9826   1.648  -0.046   9.400  3.5380 -0.3128  0.9832
   98OSM   H12G 9827   1.537  -0.179   9.350 -1.3944  2.0930  1.5850
   98OSM   C13F 9828   1.747  -0.166   9.260  0.3756 -0.0651  0.3365
   98OSM   H13F 9829   1.751  -0.267   9.212  1.8310 -0.5086  1.3397
   98OSM   H13G 9830   1.850  -0.144   9.293  0.4616 -0.6909  0.5003
   98OSM   C14F 9831   1.725  -0.066   9.138 -0.2975 -0.3905 -1.1228
   98OSM   H14F 9832   1.822  -0.067   9.084 -0.4414  0.8948 -1.4272
   98OSM   H14G 9833   1.701   0.038   9.168 -2.7529 -1.0589 -0.5718
   98OSM   C15F 9834   1.619  -0.121   9.034 -0.3074  0.0027 -0.4130
   98OSM   H15F 9835   1.521  -0.072   9.054  0.2800  1.4634 -0.9894
   98OSM   H15G 9836   1.618  -0.231   9.051  0.1966  0.0259 -0.2149
   98OSM   C16F 9837   1.650  -0.096   8.880 -0.1204  0.0320 -0.3223
   98OSM   H16F 9838   1.571  -0.148   8.823 -1.0571 -0.8139  1.6435
   98OSM   H16G 9839   1.749  -0.142   8.860 -0.7151 -1.4161 -0.0886
   98OSM   C17F 9840   1.659   0.054   8.854 -1.1171  0.1194  1.0739
   98OSM   H17F 9841   1.746   0.099   8.906  0.5195 -0.7616 -0.7668
   98OSM   H17G 9842   1.568   0.104   8.894 -0.0189  1.4315  1.9816
   98OSM   C18F 9843   1.659   0.084   8.705 -0.5701 -0.2610 -0.3204
   98OSM   H18F 9844   1.715   0.004   8.653  1.1259 -0.1188  1.1750
   98OSM   H18G 9845   1.693   0.189   8.686 -0.2966  0.2598  2.5694
   98OSM   H18H 9846   1.558   0.078   8.659 -1.5826  1.1700  1.5550
   99OSM      N 9847   4.556   3.059  10.855  0.5835 -0.6886 -0.6312
   99OSM    C15 9848   4.625   3.195  10.882  0.3313  0.4457  0.0072
   99OSM   H15A 9849   4.682   3.197  10.974 -1.4718 -0.8217  1.2381
   99OSM   H15B 9850   4.545   3.265  10.899  0.3609  0.5081 -0.1098
   99OSM   H15C 9851   4.686   3.227  10.799 -0.6628  1.3829 -0.3869
   99OSM    C14 9852   4.448   3.087  10.744  0.0022  0.2886 -0.7746
   99OSM   H14A 9853   4.490   3.126  10.653  0.5390  0.7141 -0.3500
   99OSM   H14B 9854   4.388   3.171  10.776  1.8539  0.7951  1.6330
   99OSM   H14C 9855   4.380   3.003  10.736  1.4814 -0.9819 -0.4934
   99OSM    C13 9856   4.635   2.957  10.789  0.2153 -0.3611 -0.5293
   99OSM   H13A 9857   4.587   2.862  10.774  1.8324 -1.3294  0.1126
   99OSM   H13B 9858   4.718   2.937  10.855 -0.6726 -1.5460  0.2474
   99OSM   H13C 9859   4.667   2.996  10.693 -2.3989 -1.5556 -1.9804
   99OSM    C12 9860   4.493   3.005  10.978 -0.5616  0.1532  0.2616
   99OSM   H12A 9861   4.435   3.082  11.028  2.3724  1.4306  1.9536
   99OSM   H12B 9862   4.571   2.986  11.050 -0.8235  0.1713  0.5538
   99OSM    C11 9863   4.405   2.888  10.957 -0.1298  0.2210 -0.4002
   99OSM   H11A 9864   4.386   2.860  11.062  0.2670  0.3633 -0.2908
   99OSM   H11B 9865   4.445   2.803  10.897  1.9200  0.8680 -0.0161
   99OSM      P 9866   4.167   2.828  10.889 -0.2025 -0.0374 -0.1897
   99OSM    O13 9867   4.158   2.752  11.016  0.4731 -0.3430  0.1412
   99OSM    O14 9868   4.051   2.898  10.841  0.5456 -0.6319  0.1685
   99OSM    O11 9869   4.213   2.725  10.777  0.2115 -0.3122  0.7226
   99OSM    O12 9870   4.284   2.935  10.908 -0.3456  0.6362  0.5248
   99OSM    C1S 9871   4.286   2.774  10.665 -0.1717  0.0742  0.7261
   99OSM    H1S 9872   4.391   2.738  10.674  0.1257 -0.7674 -3.6338
   99OSM    H1T 9873   4.276   2.884  10.653 -0.1255  0.1197  1.1226
   99OSM     NF 9874   4.302   2.813  10.428 -0.7164 -0.0270  0.2933
   99OSM    HNF 9875   4.280   2.910  10.428 -1.4007 -0.1775 -0.2245
   99OSM    C2S 9876   4.231   2.726  10.522  0.2207  0.1857 -0.6220
   99OSM    H2S 9877   4.246   2.617  10.501 -1.0266 -0.0289 -0.4504
   99OSM    C3S 9878   4.077   2.754  10.524 -0.1949 -0.8684 -0.0395
   99OSM    H3S 9879   4.060   2.857  10.561  0.6996 -1.4805  2.2562
   99OSM     O3 9880   4.002   2.672  10.610  0.2135  0.5028 -0.7898
   99OSM    HO3 9881   4.064   2.629  10.669 -1.4879  0.9922  1.5037
   99OSM    C4S 9882   4.030   2.732  10.384 -0.5720  0.3529  0.5069
   99OSM    H4S 9883   4.008   2.629  10.352 -1.6693  0.5819  0.4917
   99OSM    C5S 9884   3.995   2.828  10.297  0.2802  0.1926  0.0047
   99OSM    H5S 9885   4.008   2.935  10.322  1.7285  0.5719 -2.1063
   99OSM    C6S 9886   3.941   2.788  10.163 -0.0681  0.0757  0.1837
   99OSM    H6S 9887   3.899   2.875  10.110  2.0780  1.7569  1.0780
   99OSM    H6T 9888   3.861   2.713  10.181  0.4827 -0.2855  1.1965
   99OSM    C7S 9889   4.042   2.708  10.074  0.3001  0.3582 -0.1836
   99OSM    H7S 9890   4.055   2.610  10.124 -0.4004  0.0387 -0.6128
   99OSM    H7T 9891   4.137   2.765  10.082  0.1800  0.7237 -1.1834
   99OSM    C8S 9892   3.996   2.690   9.930 -0.5604 -0.1951 -0.6251
   99OSM    H8S 9893   4.029   2.777   9.869  3.4871  0.5549  2.2405
   99OSM    H8T 9894   3.886   2.678   9.921 -0.4362 -1.6968 -0.3552
   99OSM    C9S 9895   4.063   2.574   9.869 -0.1394  0.2883 -0.4006
   99OSM    H9S 9896   4.065   2.480   9.927  3.2369 -0.5653 -1.6703
   99OSM    H9T 9897   4.173   2.582   9.861  0.0123  0.9908  1.7966
   99OSM   C10S 9898   4.013   2.565   9.720  0.1872 -0.0776  0.2053
   99OSM   H10S 9899   4.008   2.663   9.667 -2.1109 -0.4321 -0.3424
   99OSM   H10T 9900   3.908   2.538   9.743  0.2084  0.7850  1.3823
   99OSM   C11S 9901   4.080   2.454   9.644  0.3146 -0.0253  1.2120
   99OSM   H11S 9902   4.063   2.354   9.690 -2.0262 -0.3620 -0.2059
   99OSM   H11T 9903   4.188   2.479   9.643 -0.2146  2.4988  0.7369
   99OSM   C12S 9904   4.032   2.454   9.493 -0.9527 -0.2974 -0.7002
   99OSM   H12S 9905   3.923   2.435   9.497 -1.3046  1.6582  2.6440
   99OSM   H12T 9906   4.058   2.556   9.457  2.3164 -0.9649 -0.5373
   99OSM   C13S 9907   4.093   2.341   9.407  0.2251 -0.0455  0.0674
   99OSM   H13S 9908   4.083   2.243   9.459  1.0637  0.2974  0.9008
   99OSM   H13T 9909   4.203   2.356   9.410  0.2056  0.8955 -2.1187
   99OSM   C14S 9910   4.049   2.335   9.259 -0.1463 -0.9703  0.2790
   99OSM   H14S 9911   3.954   2.279   9.254  1.0780 -3.3056  1.5817
   99OSM   H14T 9912   4.122   2.281   9.194  0.5207  0.6509 -0.3831
   99OSM   C15S 9913   4.031   2.474   9.191 -0.4651  0.7503  0.2284
   99OSM   H15S 9914   4.129   2.526   9.201  0.2191 -0.4531 -0.0588
   99OSM   H15T 9915   3.957   2.530   9.253 -0.0571  2.0100 -0.3881
   99OSM   C16S 9916   3.996   2.465   9.047 -0.1468  0.4431 -0.2106
   99OSM   H16S 9917   3.957   2.563   9.014  0.6904  0.7994 -0.1563
   99OSM   H16T 9918   3.899   2.409   9.041  0.9022 -1.5248  0.1620
   99OSM   C17S 9919   4.096   2.395   8.950  0.0258  0.4167 -0.2915
   99OSM   H17S 9920   4.136   2.303   8.998 -2.0358 -0.3521  0.0800
   99OSM   H17T 9921   4.188   2.456   8.949 -0.2260  0.8340  0.9693
   99OSM   C18S 9922   4.035   2.382   8.812  0.3570  0.0966 -0.1029
   99OSM   H18S 9923   4.119   2.374   8.740 -0.2231 -1.5952 -0.6593
   99OSM   H18T 9924   3.963   2.465   8.793 -1.0446 -1.3988 -1.6629
   99OSM   H18U 9925   3.976   2.289   8.798 -1.9169  1.6194 -1.4254
   99OSM    C1F 9926   4.420   2.761  10.385  0.9533 -0.4859  0.7684
   99OSM     OF 9927   4.476   2.673  10.448  0.3488  0.0310  0.0444
   99OSM    C2F 9928   4.490   2.829  10.274 -0.2525 -0.3097  0.1965
   99OSM    H2F 9929   4.599   2.815  10.291 -0.0282  1.9749  0.9909
   99OSM    H2G 9930   4.462   2.936  10.276  2.1268  0.4508 -1.9368
   99OSM    C3F 9931   4.441   2.771  10.141 -0.2052 -0.1098 -0.2317
   99OSM    H3F 9932   4.473   2.666  10.127  3.3318  0.6126  1.2253
   99OSM    H3G 9933   4.331   2.782  10.147 -0.1901 -0.7711  2.4582
   99OSM    C4F 9934   4.498   2.857  10.029  0.4494 -0.1572  0.4131
   99OSM    H4F 9935   4.607   2.835  10.028  0.4057 -0.3711  0.3130
   99OSM    H4G 9936   4.481   2.962  10.059 -0.1832 -0.2589  0.4258
   99OSM    C5F 9937   4.420   2.835   9.899 -0.1873  0.0134  0.7594
   99OSM    H5F 9938   4.418   2.931   9.843  1.0746 -1.8949 -2.9472
   99OSM    H5G 9939   4.313   2.814   9.916  0.2861 -1.5709  1.9746
   99OSM    C6F 9940   4.476   2.720   9.808 -0.2482  0.0946 -0.2455
   99OSM    H6F 9941   4.477   2.619   9.855  2.0955  0.2804  0.2670
   99OSM    H6G 9942   4.578   2.749   9.773 -0.4663 -0.5272 -1.4409
   99OSM    C7F 9943   4.379   2.701   9.690 -0.0564  0.0426 -0.4449
   99OSM    H7F 9944   4.346   2.792   9.635 -0.5179 -0.2094 -0.5983
   99OSM    H7G 9945   4.281   2.668   9.732  2.1310 -1.2458  4.1801
   99OSM    C8F 9946   4.412   2.593   9.589  0.1473 -0.6196  0.3394
   99OSM    H8F 9947   4.331   2.567   9.518  1.5436 -2.1373 -0.7598
   99OSM    H8G 9948   4.425   2.492   9.634  0.1480 -0.2144  1.2861
   99OSM    C9F 9949   4.533   2.641   9.507 -0.8108  0.1218  0.4438
   99OSM    H9F 9950   4.621   2.652   9.572 -0.5119  0.8825 -0.0810
   99OSM   C10F 9951   4.544   2.673   9.374  0.0986  0.2130 -0.2192
   99OSM   H10F 9952   4.647   2.692   9.340 -0.5409  2.1699 -1.1806
   99OSM   C11F 9953   4.440   2.668   9.269  0.2185 -0.3665  0.4099
   99OSM   H11F 9954   4.350   2.713   9.315  2.0176  2.4091  1.4702
   99OSM   H11G 9955   4.412   2.565   9.238  1.3155 -0.3106 -0.8959
   99OSM   C12F 9956   4.467   2.757   9.146 -0.2598  0.2305  0.9367
   99OSM   H12F 9957   4.574   2.741   9.119 -0.6200 -0.2274 -0.3070
   99OSM   H12G 9958   4.477   2.866   9.165  1.9294  0.4427 -0.9754
   99OSM   C13F 9959   4.380   2.719   9.023 -0.2958  0.5805  0.2995
   99OSM   H13F 9960   4.281   2.767   9.032 -0.7298 -0.0971 -0.6653
   99OSM   H13G 9961   4.359   2.611   9.011  2.5395 -0.0498  0.1037
   99OSM   C14F 9962   4.455   2.770   8.897 -0.1932 -0.6189  0.0411
   99OSM   H14F 9963   4.561   2.736   8.892 -0.7695 -2.4138 -0.7143
   99OSM   H14G 9964   4.450   2.880   8.885 -1.0894 -0.2788  2.7863
   99OSM   C15F 9965   4.387   2.716   8.774  0.4298  0.2867  0.5748
   99OSM   H15F 9966   4.295   2.777   8.764 -0.0212 -0.4754 -0.0281
   99OSM   H15G 9967   4.353   2.613   8.797  0.2116  0.3998  0.7661
   99OSM   C16F 9968   4.464   2.734   8.648 -0.1397  0.2131  0.2402
   99OSM   H16F 9969   4.553   2.670   8.665  1.0612  2.2504  2.0914
   99OSM   H16G 9970   4.488   2.840   8.626 -2.0284  1.3758  3.1636
   99OSM   C17F 9971   4.391   2.686   8.525  0.6240 -0.3418  0.3029
   99OSM   H17F 9972   4.346   2.585   8.533 -2.3912  0.8728  0.0981
   99OSM   H17G 9973   4.475   2.654   8.461  1.0504 -0.2187  0.7964
   99OSM   C18F 9974   4.279   2.780   8.468 -0.3967  0.3482 -0.1416
   99OSM   H18F 9975   4.237   2.726   8.380  0.2052  1.0010 -0.8474
   99OSM   H18G 9976   4.321   2.879   8.441  0.4224  0.6189  1.9136
   99OSM   H18H 9977   4.202   2.786   8.547  1.0802 -1.1285  1.5216
  100OSM      N 9978   0.589   2.820  10.534 -0.3162 -0.1864 -0.2756
  100OSM    C15 9979   0.717   2.797  10.608 -0.3400  0.0189  0.0368
  100OSM   H15A 9980   0.750   2.888  10.655  1.9571 -0.6340 -0.1740
  100OSM   H15B 9981   0.799   2.764  10.546  0.5927  2.3113 -0.0220
  100OSM   H15C 9982   0.699   2.726  10.688  1.9416  1.1440  1.6699
  100OSM    C14 9983   0.483   2.876  10.628 -0.2789  0.5872 -0.9593
  100OSM   H14A 9984   0.524   2.952  10.693 -2.6735  0.9145  0.2590
  100OSM   H14B 9985   0.442   2.794  10.685 -1.0828  1.7762  0.2195
  100OSM   H14C 9986   0.399   2.922  10.579 -1.2624 -1.7941 -1.6123
  100OSM    C13 9987   0.622   2.920  10.428  0.1013 -0.3882  0.9871
  100OSM   H13A 9988   0.639   3.023  10.455  0.1452 -0.6182  1.8629
  100OSM   H13B 9989   0.539   2.924  10.359  0.4475 -2.8096  0.3161
  100OSM   H13C 9990   0.705   2.894  10.364 -1.0931 -1.0330 -0.3816
  100OSM    C12 9991   0.541   2.688  10.466  0.1118  0.1214  0.2479
  100OSM   H12A 9992   0.613   2.642  10.400  0.7546  0.9514  0.3521
  100OSM   H12B 9993   0.454   2.707  10.406 -0.5686 -0.3908  1.0425
  100OSM    C11 9994   0.486   2.576  10.565  0.3605 -0.1144 -0.2290
  100OSM   H11A 9995   0.579   2.549  10.619 -1.4284 -0.0500  3.1128
  100OSM   H11B 9996   0.460   2.490  10.500 -0.2117 -1.4399  1.6770
  100OSM      P 9997   0.224   2.574  10.619 -0.1684 -0.0998 -0.0462
  100OSM    O13 9998   0.176   2.478  10.727 -0.0163 -0.5902  0.4853
  100OSM    O14 9999   0.144   2.702  10.616 -0.5253  0.6095  0.2450
  100OSM    O1110000   0.216   2.505  10.483  0.5912 -0.1014  0.9639
  100OSM    O1210001   0.371   2.617  10.643 -0.0573  0.0120  0.4410
  100OSM    C1S10002   0.086   2.469  10.431  0.0865 -0.7879  0.3318
  100OSM    H1S10003   0.037   2.564  10.398  2.6331  0.7757  0.7377
  100OSM    H1T10004   0.021   2.412  10.500 -1.6460  2.2437  1.4058
  100OSM     NF10005  -0.048   2.383  10.242 -0.5110  0.3433 -0.2923
  100OSM    HNF10006  -0.092   2.295  10.258  0.4248 -1.1061 -4.3117
  100OSM    C2S10007   0.087   2.390  10.294 -0.0687  0.1239  0.4137
  100OSM    H2S10008   0.142   2.451  10.220 -1.0611  0.3336 -0.1672
  100OSM    C3S10009   0.151   2.249  10.307 -0.4888  0.0762 -0.1134
  100OSM    H3S10010   0.077   2.197  10.371  1.1587 -2.7338 -0.3363
  100OSM     O310011   0.277   2.242  10.377  0.2083 -0.1506 -0.3077
  100OSM    HO310012   0.299   2.335  10.388 -1.0171  0.1676 -0.3627
  100OSM    C4S10013   0.169   2.187  10.171 -0.1156  0.2948  0.3713
  100OSM    H4S10014   0.242   2.231  10.101  0.5597 -2.1853 -0.5846
  100OSM    C5S10015   0.126   2.064  10.137  0.6333 -0.3399  0.0048
  100OSM    H5S10016   0.082   1.993  10.209 -0.4055 -0.1281 -0.4067
  100OSM    C6S10017   0.171   2.013   9.996 -0.2675 -0.4957 -0.5144
  100OSM    H6S10018   0.158   2.097   9.924 -4.1873  1.9353  2.6100
  100OSM    H6T10019   0.109   1.932   9.953  2.1380 -2.0612 -1.2391
  100OSM    C7S10020   0.313   1.962  10.006 -0.5536  0.0143  0.0423
  100OSM    H7S10021   0.326   1.885  10.084 -0.0648 -1.6234 -1.5738
  100OSM    H7T10022   0.381   2.045  10.036  0.6434 -1.2405  0.9011
  100OSM    C8S10023   0.355   1.906   9.864 -0.3749 -0.1423 -0.2108
  100OSM    H8S10024   0.327   1.979   9.786  1.8120 -0.3705 -1.2765
  100OSM    H8T10025   0.301   1.811   9.847 -0.3872 -0.2798  0.5437
  100OSM    C9S10026   0.507   1.886   9.858 -0.2775 -0.3380  0.0404
  100OSM    H9S10027   0.535   1.796   9.916 -2.6955 -1.6026 -0.6124
  100OSM    H9T10028   0.551   1.974   9.910  1.6027 -1.0943 -0.2153
  100OSM   C10S10029   0.552   1.884   9.705  0.7725 -0.4145 -0.2385
  100OSM   H10S10030   0.660   1.879   9.683  0.1144  1.8955 -5.4218
  100OSM   H10T10031   0.516   1.980   9.662  0.6112 -1.0950 -1.6792
  100OSM   C11S10032   0.492   1.772   9.615  0.4181  0.7892 -0.7926
  100OSM   H11S10033   0.382   1.771   9.635  0.0830 -0.1933 -2.4788
  100OSM   H11T10034   0.539   1.682   9.661  2.5339  2.4760  0.4966
  100OSM   C12S10035   0.511   1.778   9.474  0.1582 -0.6636  0.4791
  100OSM   H12S10036   0.618   1.795   9.447  0.3978 -0.4087  1.5073
  100OSM   H12T10037   0.450   1.861   9.433  0.4648 -0.1860  0.9655
  100OSM   C13S10038   0.453   1.652   9.406  0.0809 -0.3622 -0.2924
  100OSM   H13S10039   0.354   1.643   9.455 -0.3814 -1.7324 -1.3972
  100OSM   H13T10040   0.512   1.560   9.426  0.7920 -0.3875 -2.2892
  100OSM   C14S10041   0.417   1.655   9.260  1.2306 -0.1061  0.1858
  100OSM   H14S10042   0.356   1.744   9.235 -0.4503 -0.1526  3.6450
  100OSM   H14T10043   0.355   1.566   9.236 -1.2296  1.1010  1.7290
  100OSM   C15S10044   0.546   1.637   9.184  0.5094 -1.0922  0.3454
  100OSM   H15S10045   0.615   1.575   9.244 -0.8510 -2.6240  0.3775
  100OSM   H15T10046   0.594   1.736   9.165 -0.0201 -0.8894  0.0195
  100OSM   C16S10047   0.518   1.600   9.043 -0.7345  0.4383 -0.2059
  100OSM   H16S10048   0.587   1.649   8.971 -1.2626  0.0964 -0.9638
  100OSM   H16T10049   0.423   1.642   9.004 -0.8220  1.8906  1.4727
  100OSM   C17S10050   0.509   1.449   9.013 -0.4524  0.0008 -0.1818
  100OSM   H17S10051   0.411   1.421   9.055 -1.5285  0.0432 -2.5029
  100OSM   H17T10052   0.591   1.399   9.069 -0.1695 -0.2866 -0.8465
  100OSM   C18S10053   0.509   1.415   8.862  0.3469  0.0240  0.4680
  100OSM   H18S10054   0.609   1.422   8.814  0.3023 -0.3868  0.3117
  100OSM   H18T10055   0.443   1.484   8.805  1.2145 -0.8321 -1.6545
  100OSM   H18U10056   0.468   1.314   8.840 -1.9567  1.2692 -1.3904
  100OSM    C1F10057  -0.120   2.478  10.185  0.4585  0.8112  0.4170
  100OSM     OF10058  -0.083   2.589  10.158 -0.3521  0.4384 -0.4603
  100OSM    C2F10059  -0.260   2.438  10.151  0.3395  0.3046 -0.7029
  100OSM    H2F10060  -0.333   2.451  10.234  2.2081 -0.5858  1.1805
  100OSM    H2G10061  -0.255   2.328  10.139  1.6937  0.2507  0.1273
  100OSM    C3F10062  -0.303   2.508  10.023  0.3414 -0.4595 -0.5833
  100OSM    H3F10063  -0.321   2.613  10.054  0.9277 -0.2612 -0.8846
  100OSM    H3G10064  -0.404   2.478   9.988 -0.4320  0.6456  0.6217
  100OSM    C4F10065  -0.219   2.517   9.894 -0.8137  0.0663 -0.1235
  100OSM    H4F10066  -0.164   2.421   9.891  2.2862  1.7096 -0.8717
  100OSM    H4G10067  -0.151   2.604   9.911 -0.7099 -0.1448  0.5747
  100OSM    C5F10068  -0.289   2.550   9.768  0.7242  0.2304 -0.0547
  100OSM    H5F10069  -0.321   2.657   9.770  0.2547  0.0888  0.1889
  100OSM    H5G10070  -0.384   2.495   9.753  0.7630  0.1483  0.0047
  100OSM    C6F10071  -0.203   2.519   9.650  0.2264 -0.5467  0.4306
  100OSM    H6F10072  -0.197   2.408   9.649 -1.3299 -0.6460 -0.2664
  100OSM    H6G10073  -0.100   2.556   9.674  0.9116 -2.0802 -0.0273
  100OSM    C7F10074  -0.247   2.569   9.513  0.3785 -0.3249 -1.1237
  100OSM    H7F10075  -0.227   2.678   9.519 -1.9039  0.1091 -0.4198
  100OSM    H7G10076  -0.355   2.551   9.495  0.2988  1.0305 -2.1291
  100OSM    C8F10077  -0.180   2.500   9.393  0.7695  0.4644  0.1748
  100OSM    H8F10078  -0.180   2.389   9.401 -0.3962  0.1962 -2.3897
  100OSM    H8G10079  -0.072   2.524   9.390  1.0397 -0.7454 -0.1480
  100OSM    C9F10080  -0.248   2.549   9.266  0.1205 -0.1347 -0.3392
  100OSM    H9F10081  -0.298   2.645   9.282  0.6910 -0.1499  1.8643
  100OSM   C10F10082  -0.249   2.485   9.142  0.3289  0.1297 -0.1121
  100OSM   H10F10083  -0.313   2.531   9.066  0.7902  0.4576 -0.3046
  100OSM   C11F10084  -0.191   2.360   9.098 -0.0380  0.0531 -0.5101
  100OSM   H11F10085  -0.283   2.301   9.079 -1.0235  1.3211  0.1922
  100OSM   H11G10086  -0.131   2.303   9.173 -2.1270 -0.4085  0.8813
  100OSM   C12F10087  -0.094   2.381   8.980  0.0475  0.5872  0.6135
  100OSM   H12F10088  -0.147   2.422   8.892 -0.6301 -0.8764  0.2962
  100OSM   H12G10089  -0.063   2.278   8.950 -0.1224  0.9775 -0.9720
  100OSM   C13F10090   0.032   2.467   9.005  0.5903 -0.2381 -0.7618
  100OSM   H13F10091   0.076   2.436   9.102 -0.7363  0.4502  0.0916
  100OSM   H13G10092  -0.017   2.567   9.014 -0.0782 -0.6791  1.0491
  100OSM   C14F10093   0.128   2.475   8.890  0.0822 -0.1144  0.2445
  100OSM   H14F10094   0.177   2.376   8.881 -0.0911 -0.5116  2.9078
  100OSM   H14G10095   0.207   2.546   8.923  0.3912 -0.1903 -0.3215
  100OSM   C15F10096   0.066   2.526   8.759  0.1229  0.3370 -0.1115
  100OSM   H15F10097  -0.007   2.603   8.794  0.3542 -0.4356  2.2471
  100OSM   H15G10098   0.001   2.448   8.714 -0.5765  0.2969  0.9219
  100OSM   C16F10099   0.169   2.582   8.650  0.9436 -0.3360 -0.8429
  100OSM   H16F10100   0.261   2.622   8.699 -1.3306  1.1455  2.6152
  100OSM   H16G10101   0.132   2.666   8.587  1.6409  0.4611 -0.2225
  100OSM   C17F10102   0.214   2.465   8.566 -0.0567 -0.0096  0.0503
  100OSM   H17F10103   0.124   2.414   8.526  0.2354 -1.2754  0.9314
  100OSM   H17G10104   0.273   2.397   8.631  1.4071  1.0538 -0.1186
  100OSM   C18F10105   0.306   2.514   8.454  0.2389 -0.1762  0.4077
  100OSM   H18F10106   0.263   2.595   8.391  0.2159 -0.4165  0.1167
  100OSM   H18G10107   0.338   2.436   8.382  1.1968  1.3090 -0.8370
  100OSM   H18H10108   0.403   2.541   8.501 -0.8415 -1.4504  3.6574
  101OSM      N10109   0.944   1.400  11.200 -0.9183 -0.1033 -0.6070
  101OSM    C1510110   0.942   1.453  11.343  0.2189  0.0238 -0.2811
  101OSM   H15A10111   1.015   1.531  11.359 -0.9041  0.9202  0.5808
  101OSM   H15B10112   0.962   1.384  11.423 -1.7005 -1.6462 -1.1498
  101OSM   H15C10113   0.854   1.512  11.364  1.2480  1.6835 -0.4161
  101OSM    C1410114   1.061   1.314  11.186 -0.1097 -0.2871 -0.2652
  101OSM   H14A10115   1.151   1.368  11.212  0.0016  0.0614 -1.3294
  101OSM   H14B10116   1.080   1.293  11.082 -0.1889 -0.4389 -0.2498
  101OSM   H14C10117   1.052   1.224  11.245  0.2692 -0.8107 -0.9975
  101OSM    C1310118   0.814   1.314  11.170 -0.4620  0.0317  0.9114
  101OSM   H13A10119   0.811   1.292  11.064 -0.6189 -1.3527  1.1854
  101OSM   H13B10120   0.720   1.357  11.199 -0.9612 -1.2094  1.1847
  101OSM   H13C10121   0.827   1.216  11.214  3.2418  0.4242  1.0566
  101OSM    C1210122   0.947   1.522  11.104 -0.3222  0.4454 -0.0328
  101OSM   H12A10123   1.049   1.558  11.105  0.2680 -0.9300  3.4020
  101OSM   H12B10124   0.886   1.600  11.147 -0.8779  0.9939 -1.7522
  101OSM    C1110125   0.910   1.502  10.954 -0.1033  0.0940  0.0338
  101OSM   H11A10126   0.901   1.604  10.912 -0.5226 -0.6359 -1.7684
  101OSM   H11B10127   0.808   1.458  10.956 -0.3201  0.6309  1.3624
  101OSM      P10128   1.142   1.493  10.850 -0.0166 -0.0219  0.0400
  101OSM    O1310129   1.146   1.501  10.703 -0.2493 -0.3338  0.1701
  101OSM    O1410130   1.185   1.612  10.926  0.9248 -0.1264 -0.1473
  101OSM    O1110131   1.246   1.381  10.885  0.1364  0.1718  0.6054
  101OSM    O1210132   1.005   1.414  10.885  0.0506 -0.4274 -0.2602
  101OSM    C1S10133   1.221   1.250  10.829  0.3009  0.2111 -0.2793
  101OSM    H1S10134   1.113   1.231  10.811 -0.3080  2.0934  1.0566
  101OSM    H1T10135   1.246   1.181  10.913 -2.0601 -2.8141 -1.8704
  101OSM     NF10136   1.283   1.083  10.662 -0.4217 -0.0237 -0.1222
  101OSM    HNF10137   1.332   1.003  10.697  1.1809  1.2336  0.6727
  101OSM    C2S10138   1.315   1.210  10.716 -0.2353 -0.9637  0.7829
  101OSM    H2S10139   1.291   1.291  10.643  1.3479  1.5092  2.8242
  101OSM    C3S10140   1.465   1.219  10.768 -0.0229 -0.3509 -0.3259
  101OSM    H3S10141   1.471   1.142  10.849  2.9314  0.8503  0.7429
  101OSM     O310142   1.500   1.349  10.821  0.6830  0.5739 -0.2972
  101OSM    HO310143   1.417   1.388  10.851 -0.0935 -0.9514 -0.3641
  101OSM    C4S10144   1.551   1.191  10.657 -0.3438 -0.2135 -0.2554
  101OSM    H4S10145   1.554   1.258  10.570  0.8470 -1.0139 -0.8541
  101OSM    C5S10146   1.640   1.094  10.664 -0.5422  0.2155 -0.3324
  101OSM    H5S10147   1.656   1.032  10.753  0.9770  0.0130 -0.7324
  101OSM    C6S10148   1.738   1.074  10.553  1.0324  0.3805  0.2690
  101OSM    H6S10149   1.797   0.983  10.578 -0.9604 -0.7542  1.0716
  101OSM    H6T10150   1.815   1.153  10.546  2.5745 -1.0671  0.1234
  101OSM    C7S10151   1.670   1.057  10.414 -0.1370  0.0057  0.2635
  101OSM    H7S10152   1.744   1.080  10.334  0.6232 -1.5152  0.4944
  101OSM    H7T10153   1.595   1.139  10.410  0.0760  0.2096  0.4633
  101OSM    C8S10154   1.610   0.921  10.389 -0.4006 -0.4063 -0.0628
  101OSM    H8S10155   1.533   0.898  10.467 -0.6323  1.5189  0.3175
  101OSM    H8T10156   1.687   0.843  10.405 -0.0021 -0.0117 -0.0439
  101OSM    C9S10157   1.552   0.912  10.251  0.5144  0.0191 -0.1514
  101OSM    H9S10158   1.632   0.924  10.175 -1.0491  0.0898 -1.8847
  101OSM    H9T10159   1.493   1.004  10.229  0.7479 -0.1029 -1.3983
  101OSM   C10S10160   1.484   0.776  10.224  0.2599 -0.5117  0.4053
  101OSM   H10S10161   1.394   0.756  10.285 -0.1152 -1.0769 -0.3131
  101OSM   H10T10162   1.562   0.701  10.251 -0.7488 -0.8043  2.6828
  101OSM   C11S10163   1.454   0.749  10.070  0.3245 -0.3335 -0.1114
  101OSM   H11S10164   1.408   0.844  10.036  0.9456 -0.2520 -0.7630
  101OSM   H11T10165   1.374   0.672  10.060 -2.3228  2.3687 -1.3575
  101OSM   C12S10166   1.575   0.715   9.990 -0.5543  0.0812 -0.5078
  101OSM   H12S10167   1.624   0.619  10.018  0.3246  0.1373 -1.7526
  101OSM   H12T10168   1.650   0.796  10.005 -1.3059  0.8043 -0.6317
  101OSM   C13S10169   1.558   0.711   9.836 -0.7299 -0.3414 -0.1616
  101OSM   H13S10170   1.625   0.783   9.785 -1.7691  0.6066 -0.2269
  101OSM   H13T10171   1.461   0.753   9.803 -0.3719  0.3221 -0.3895
  101OSM   C14S10172   1.589   0.580   9.777 -0.3700  0.0200 -0.7440
  101OSM   H14S10173   1.503   0.512   9.793  0.4911 -1.1481 -0.9294
  101OSM   H14T10174   1.684   0.541   9.820 -0.8276 -1.1932 -0.7987
  101OSM   C15S10175   1.630   0.585   9.632  0.4690 -0.0072  0.6192
  101OSM   H15S10176   1.688   0.501   9.589  1.2663 -0.4395  2.4601
  101OSM   H15T10177   1.697   0.671   9.611 -0.3038  0.0951 -1.7269
  101OSM   C16S10178   1.505   0.601   9.541 -0.6433  0.4861  0.0974
  101OSM   H16S10179   1.440   0.681   9.584 -0.6569  1.9642 -2.4654
  101OSM   H16T10180   1.457   0.502   9.552 -0.2031  0.4327  1.7315
  101OSM   C17S10181   1.532   0.638   9.401 -0.7324  0.2957  0.3293
  101OSM   H17S10182   1.610   0.569   9.365  0.9049  2.5015 -0.5656
  101OSM   H17T10183   1.586   0.735   9.397  0.4968 -0.2110  2.5574
  101OSM   C18S10184   1.398   0.641   9.318  0.4189 -0.1959  0.3176
  101OSM   H18S10185   1.340   0.549   9.338 -0.0678  0.3067  1.2725
  101OSM   H18T10186   1.411   0.647   9.208 -1.2571 -5.8314 -0.5115
  101OSM   H18U10187   1.341   0.730   9.351  1.0770  0.5259 -0.4588
  101OSM    C1F10188   1.181   1.060  10.585  0.4832 -0.5979 -0.6141
  101OSM     OF10189   1.093   1.147  10.567  0.4796  0.1016 -0.4129
  101OSM    C2F10190   1.148   0.914  10.549  0.2455 -0.5687  0.5794
  101OSM    H2F10191   1.107   0.869  10.642 -1.3617 -1.8343 -0.6805
  101OSM    H2G10192   1.245   0.864  10.525  1.6013  1.9875  0.3814
  101OSM    C3F10193   1.042   0.902  10.441 -0.7357 -0.3377  0.1991
  101OSM    H3F10194   0.957   0.974  10.438  0.2815  0.8997 -2.6023
  101OSM    H3G10195   0.991   0.804  10.444 -2.6578  0.6327  1.3121
  101OSM    C4F10196   1.116   0.938  10.311  0.9395  0.3880  0.5014
  101OSM    H4F10197   1.200   0.868  10.289  0.1742 -0.3001 -0.3522
  101OSM    H4G10198   1.160   1.038  10.330 -0.6795  0.9047  1.7427
  101OSM    C5F10199   1.027   0.927  10.187  0.2868 -0.3788 -0.4314
  101OSM    H5F10200   0.978   0.828  10.190  1.6978 -1.1544 -1.6034
  101OSM    H5G10201   1.086   0.931  10.093  2.0105  0.5196  0.6227
  101OSM    C6F10202   0.915   1.039  10.176  0.5262  0.5916  1.0204
  101OSM    H6F10203   0.854   1.047  10.268 -0.7994 -2.8283  0.6057
  101OSM    H6G10204   0.969   1.135  10.163 -0.2027  0.9990  0.9513
  101OSM    C7F10205   0.805   1.024  10.072  0.4033  0.7743 -0.1594
  101OSM    H7F10206   0.748   1.119  10.068  0.9117  1.0782 -0.3080
  101OSM    H7G10207   0.736   0.943  10.106  0.3572 -0.0538 -2.1033
  101OSM    C8F10208   0.839   0.963   9.935 -0.5890  0.5908 -0.0857
  101OSM    H8F10209   0.746   0.957   9.875 -0.0279  1.8316 -1.1313
  101OSM    H8G10210   0.880   0.862   9.957  0.8755  1.1340 -0.2020
  101OSM    C9F10211   0.939   1.046   9.859 -0.0841 -1.0392 -0.3337
  101OSM    H9F10212   1.025   1.067   9.924 -1.0426 -2.6205  1.5473
  101OSM   C10F10213   0.934   1.082   9.727 -0.8139 -0.1287  1.1340
  101OSM   H10F10214   1.016   1.144   9.689  0.2383 -0.9286  2.0239
  101OSM   C11F10215   0.824   1.056   9.626  0.4851  0.5881  0.4539
  101OSM   H11F10216   0.806   1.151   9.570  1.3938  0.4279 -0.1423
  101OSM   H11G10217   0.733   1.019   9.678  0.6410 -0.3195  0.0846
  101OSM   C12F10218   0.867   0.949   9.528  0.0081 -0.6180  0.9734
  101OSM   H12F10219   0.847   0.849   9.572 -3.0894 -1.3386 -1.6839
  101OSM   H12G10220   0.974   0.952   9.497 -0.5783 -1.0494 -1.2867
  101OSM   C13F10221   0.783   0.934   9.402 -1.3733  0.1650  0.0199
  101OSM   H13F10222   0.679   0.914   9.436 -1.7028  0.7167 -0.6396
  101OSM   H13G10223   0.818   0.843   9.350 -0.4951  0.1945  0.5508
  101OSM   C14F10224   0.788   1.055   9.299 -0.0610  0.0416  0.0986
  101OSM   H14F10225   0.883   1.104   9.330 -1.0935  1.1376  1.6514
  101OSM   H14G10226   0.704   1.123   9.324 -0.8105 -0.5236 -0.7964
  101OSM   C15F10227   0.780   1.018   9.150 -0.8269  0.0087  1.0245
  101OSM   H15F10228   0.697   0.954   9.112  0.6434 -0.5654 -1.4487
  101OSM   H15G10229   0.867   0.957   9.121 -2.4377 -1.3718 -1.2584
  101OSM   C16F10230   0.762   1.148   9.063 -0.2689  0.0109  1.1806
  101OSM   H16F10231   0.847   1.220   9.072 -0.7741  1.5180 -3.5289
  101OSM   H16G10232   0.671   1.200   9.100 -0.5658  0.9888 -0.8002
  101OSM   C17F10233   0.733   1.125   8.907  0.0540 -0.0201  0.2372
  101OSM   H17F10234   0.653   1.188   8.863  0.2781  0.7336  0.8950
  101OSM   H17G10235   0.695   1.021   8.901 -2.5507  0.8877 -0.5323
  101OSM   C18F10236   0.861   1.122   8.830  0.1898 -0.6563  0.2882
  101OSM   H18F10237   0.898   1.224   8.807  0.6074 -0.9639 -0.4632
  101OSM   H18G10238   0.828   1.083   8.731 -1.4471 -1.0177  0.9542
  101OSM   H18H10239   0.943   1.074   8.887  0.8284 -1.2843 -1.0989
  102OSM      N10240   3.594   3.892  10.670  0.0847  0.5343 -0.5465
  102OSM    C1510241   3.524   3.767  10.637 -0.5577  0.0970 -0.4578
  102OSM   H15A10242   3.589   3.681  10.629  0.0796  0.4584  0.5157
  102OSM   H15B10243   3.467   3.769  10.546 -0.3989 -0.3542 -0.5707
  102OSM   H15C10244   3.453   3.738  10.713 -0.2189  0.6621  0.0898
  102OSM    C1410245   3.483   3.976  10.734 -0.3440  0.2958  0.1070
  102OSM   H14A10246   3.409   3.997  10.658 -0.8221  0.6308  0.6616
  102OSM   H14B10247   3.520   4.067  10.778  2.6319 -0.6534 -0.1719
  102OSM   H14C10248   3.432   3.920  10.811  0.2523 -1.0216 -0.4109
  102OSM    C1310249   3.696   3.866  10.778  0.3169 -0.0418  0.5194
  102OSM   H13A10250   3.650   3.804  10.854 -0.6384 -1.7298 -1.3642
  102OSM   H13B10251   3.726   3.957  10.828 -1.7258  0.3175  1.1886
  102OSM   H13C10252   3.784   3.824  10.732 -0.5416  0.7121 -1.9270
  102OSM    C1210253   3.659   3.961  10.547 -0.1440 -0.4485 -0.2033
  102OSM   H12A10254   3.723   4.044  10.573 -0.5436 -0.4511  0.8295
  102OSM   H12B10255   3.578   4.009  10.494  0.0808  1.3511  0.9927
  102OSM    C1110256   3.748   3.880  10.461 -0.8002  0.3072 -0.0847
  102OSM   H11A10257   3.780   3.935  10.370  1.0492  1.3328  1.1212
  102OSM   H11B10258   3.691   3.787  10.436 -1.7462  1.0838 -0.9010
  102OSM      P10259   3.990   3.906  10.567 -0.0916 -0.1167 -0.0718
  102OSM    O1310260   3.943   4.027  10.642 -0.2820  0.4683  0.0066
  102OSM    O1410261   4.078   3.816  10.647 -0.5025 -0.1396  0.1490
  102OSM    O1110262   4.065   3.953  10.437  0.4630  0.0039  0.4085
  102OSM    O1210263   3.868   3.825  10.522 -0.5805  0.5665  0.2918
  102OSM    C1S10264   4.105   3.852  10.341  0.1544  0.4170  0.0053
  102OSM    H1S10265   4.012   3.798  10.313 -1.3307  0.4829  4.1544
  102OSM    H1T10266   4.182   3.780  10.377 -0.1871 -0.0290 -0.1442
  102OSM     NF10267   4.163   3.838  10.094 -0.0893  0.1513 -0.4921
  102OSM    HNF10268   4.250   3.793  10.076  0.0947 -0.8095  2.2332
  102OSM    C2S10269   4.152   3.925  10.209 -0.5340 -0.2240  0.4104
  102OSM    H2S10270   4.082   4.007  10.182  0.1059  0.3122  0.3229
  102OSM    C3S10271   4.287   4.004  10.227  0.4041 -0.4668  0.2121
  102OSM    H3S10272   4.370   3.944  10.269  1.0016  2.5595  3.8760
  102OSM     O310273   4.284   4.097  10.330 -0.1461  0.4371 -0.1524
  102OSM    HO310274   4.197   4.072  10.361 -0.9189 -1.0668 -3.1916
  102OSM    C4S10275   4.323   4.089  10.109  0.9188  0.0505 -0.5073
  102OSM    H4S10276   4.268   4.184  10.107 -1.4033 -1.2221 -2.7878
  102OSM    C5S10277   4.414   4.063  10.017 -0.4715 -0.1756  0.9901
  102OSM    H5S10278   4.474   3.972  10.028 -0.8885 -0.6894 -0.6909
  102OSM    C6S10279   4.454   4.144   9.897 -0.3322  0.1907 -0.3592
  102OSM    H6S10280   4.563   4.134   9.875  0.1727  2.1126  0.9721
  102OSM    H6T10281   4.439   4.253   9.911 -1.3755  0.0307 -0.1424
  102OSM    C7S10282   4.387   4.086   9.774  0.0049  0.3366 -0.3623
  102OSM    H7S10283   4.278   4.105   9.776  0.3161  2.4792 -0.6219
  102OSM    H7T10284   4.405   3.977   9.763  2.5404  0.5498  0.9039
  102OSM    C8S10285   4.434   4.159   9.648  0.3791  0.5057  0.0502
  102OSM    H8S10286   4.518   4.228   9.673  1.5448 -1.1103  0.7101
  102OSM    H8T10287   4.349   4.218   9.606 -1.6951 -1.0960  1.7182
  102OSM    C9S10288   4.469   4.055   9.541  0.2513 -0.6643 -0.5384
  102OSM    H9S10289   4.385   3.981   9.538 -1.7764  1.4481  0.5812
  102OSM    H9T10290   4.564   4.004   9.568  0.3482 -0.7554 -1.0561
  102OSM   C10S10291   4.474   4.110   9.399  0.0005 -0.1136 -0.1329
  102OSM   H10S10292   4.376   4.157   9.375 -0.0560  0.3182  0.9128
  102OSM   H10T10293   4.468   4.021   9.333 -1.5507 -0.0024 -0.1810
  102OSM   C11S10294   4.586   4.212   9.359 -0.6141  0.0922 -0.1377
  102OSM   H11S10295   4.676   4.157   9.326 -0.7891 -1.0143  1.1368
  102OSM   H11T10296   4.601   4.273   9.451 -0.8194 -0.0470 -0.0100
  102OSM   C12S10297   4.546   4.315   9.247  0.8679  1.2855  0.7207
  102OSM   H12S10298   4.611   4.405   9.255  1.3570  1.1044 -0.9669
  102OSM   H12T10299   4.443   4.349   9.272  0.0666  0.1582 -0.9328
  102OSM   C13S10300   4.555   4.246   9.115  0.3354  0.3890 -0.1696
  102OSM   H13S10301   4.501   4.149   9.124  1.4808 -0.3876 -1.2114
  102OSM   H13T10302   4.658   4.213   9.089  0.1895 -0.5871  0.4300
  102OSM   C14S10303   4.488   4.329   9.004  0.4580  0.0404  0.3764
  102OSM   H14S10304   4.519   4.290   8.904  0.4947  2.1668 -0.5040
  102OSM   H14T10305   4.544   4.424   9.019  1.6167 -0.5547 -0.0305
  102OSM   C15S10306   4.336   4.340   9.014 -0.6542 -0.6188  1.0329
  102OSM   H15S10307   4.322   4.420   9.090 -0.9790  0.9419 -0.6162
  102OSM   H15T10308   4.291   4.246   9.053  0.7644 -1.4547  0.7360
  102OSM   C16S10309   4.260   4.393   8.884  0.0855  0.1856 -0.0000
  102OSM   H16S10310   4.272   4.307   8.814  0.4618  2.0327 -2.3424
  102OSM   H16T10311   4.314   4.475   8.833  0.2466 -0.3029 -0.6331
  102OSM   C17S10312   4.113   4.415   8.911  0.1915 -0.0840 -0.2452
  102OSM   H17S10313   4.095   4.497   8.983 -0.1469 -1.7373  1.6215
  102OSM   H17T10314   4.062   4.328   8.959 -0.7143  0.1915 -0.6854
  102OSM   C18S10315   4.038   4.451   8.774  0.0301  0.2017 -0.0806
  102OSM   H18S10316   4.045   4.372   8.697  1.2608  1.3816 -1.2511
  102OSM   H18T10317   4.055   4.553   8.732  0.1951  0.7633  1.2597
  102OSM   H18U10318   3.928   4.460   8.787 -0.2342 -0.7662 -1.4543
  102OSM    C1F10319   4.064   3.779  10.029  0.6842  1.2524 -0.3312
  102OSM     OF10320   3.946   3.775  10.074 -0.3052 -0.3182 -0.0307
  102OSM    C2F10321   4.099   3.706   9.908  0.1132  0.4081  0.0016
  102OSM    H2F10322   4.012   3.642   9.880 -0.4985  1.2378 -0.0176
  102OSM    H2G10323   4.188   3.644   9.930 -0.0757  0.0772 -0.1506
  102OSM    C3F10324   4.120   3.806   9.791  0.0326 -0.5178  0.3696
  102OSM    H3F10325   4.202   3.873   9.822  0.1160 -1.4761  2.3869
  102OSM    H3G10326   4.029   3.870   9.783  0.6404  0.3648  0.4224
  102OSM    C4F10327   4.155   3.740   9.652  0.2912 -0.0304 -0.2851
  102OSM    H4F10328   4.171   3.832   9.591  1.9108  1.3737  2.0897
  102OSM    H4G10329   4.064   3.697   9.606  0.1397 -0.9663  0.8523
  102OSM    C5F10330   4.280   3.653   9.656  0.2422  0.0215 -0.4295
  102OSM    H5F10331   4.263   3.574   9.733  1.7921  2.0249  2.1370
  102OSM    H5G10332   4.370   3.712   9.685 -0.9322  1.5142  0.3289
  102OSM    C6F10333   4.315   3.595   9.518  0.7380  0.2004  0.2303
  102OSM    H6F10334   4.244   3.512   9.497  1.1249  0.4524 -2.4591
  102OSM    H6G10335   4.420   3.559   9.523  1.1081  1.2848  0.5024
  102OSM    C7F10336   4.315   3.695   9.403 -0.4622 -0.4398  0.5039
  102OSM    H7F10337   4.360   3.789   9.441  1.4043 -1.4468  0.8952
  102OSM    H7G10338   4.209   3.720   9.382 -0.2201  1.1149  0.9599
  102OSM    C8F10339   4.378   3.660   9.270 -0.0916 -0.3657  0.2305
  102OSM    H8F10340   4.489   3.653   9.271 -0.0335  0.0895 -1.2544
  102OSM    H8G10341   4.362   3.744   9.199 -0.9912 -0.2449  0.5625
  102OSM    C9F10342   4.309   3.538   9.224 -0.0219  0.1467  0.1970
  102OSM    H9F10343   4.200   3.529   9.239  0.1646  0.3701  1.9587
  102OSM   C10F10344   4.363   3.430   9.166 -0.3640  0.5997  0.2274
  102OSM   H10F10345   4.301   3.342   9.140  0.7500  0.4226 -2.1005
  102OSM   C11F10346   4.516   3.415   9.139  0.0798 -0.9308  0.1932
  102OSM   H11F10347   4.546   3.309   9.157  2.5019 -0.2438  0.5133
  102OSM   H11G10348   4.581   3.475   9.205  1.2196 -1.5959 -0.2869
  102OSM   C12F10349   4.545   3.447   8.986  0.0705 -0.4750  0.0802
  102OSM   H12F10350   4.482   3.373   8.931  1.7802 -0.1958 -2.4231
  102OSM   H12G10351   4.651   3.420   8.966 -0.0064 -1.3177  0.7687
  102OSM   C13F10352   4.515   3.591   8.943  0.9611  0.1618  0.7235
  102OSM   H13F10353   4.591   3.665   8.977  0.2632  0.6141  1.3362
  102OSM   H13G10354   4.414   3.616   8.983 -0.1441 -0.0453 -1.7610
  102OSM   C14F10355   4.502   3.610   8.793 -0.1764  0.6939 -0.4355
  102OSM   H14F10356   4.438   3.530   8.749  1.4127 -0.8843  0.0500
  102OSM   H14G10357   4.597   3.602   8.736 -0.8829  1.2084 -1.7392
  102OSM   C15F10358   4.442   3.746   8.761 -0.0539  0.9813 -0.2363
  102OSM   H15F10359   4.528   3.813   8.782  1.6447 -1.2757  0.4062
  102OSM   H15G10360   4.349   3.782   8.810 -1.9493  1.0578 -3.5853
  102OSM   C16F10361   4.418   3.771   8.612  0.1148 -0.3149 -0.6914
  102OSM   H16F10362   4.344   3.694   8.582  0.6863 -1.3899  0.5601
  102OSM   H16G10363   4.509   3.741   8.556  1.0715 -1.0540  1.1613
  102OSM   C17F10364   4.377   3.913   8.568  0.0344 -0.6018  0.2198
  102OSM   H17F10365   4.370   3.930   8.459  0.5150  0.1555  0.3062
  102OSM   H17G10366   4.457   3.978   8.610  0.3569 -1.2504  0.6352
  102OSM   C18F10367   4.235   3.950   8.618 -0.6719  0.3416 -0.1250
  102OSM   H18F10368   4.233   3.948   8.729 -1.0724  0.4283 -0.1310
  102OSM   H18G10369   4.150   3.890   8.580 -0.9078  0.8930 -0.4792
  102OSM   H18H10370   4.221   4.053   8.579  3.8343  1.5770  0.8403
  103OSM      N10371   2.655   1.705  10.989  0.0168 -0.9980 -0.2597
  103OSM    C1510372   2.697   1.729  11.132 -0.4083 -0.1081 -1.0691
  103OSM   H15A10373   2.724   1.636  11.180 -0.2254  0.4739 -0.0112
  103OSM   H15B10374   2.621   1.787  11.182  0.0077  0.7223 -1.3800
  103OSM   H15C10375   2.793   1.779  11.140  0.5799 -1.7818 -1.8546
  103OSM    C1410376   2.637   1.839  10.916 -0.3742 -0.0750  0.4887
  103OSM   H14A10377   2.558   1.897  10.962 -0.6174  1.4096 -1.6724
  103OSM   H14B10378   2.616   1.824  10.811  1.2377  0.1175  0.1060
  103OSM   H14C10379   2.729   1.895  10.918  0.6461 -1.5086 -1.7560
  103OSM    C1310380   2.766   1.626  10.931  0.1664 -0.1758 -0.2604
  103OSM   H13A10381   2.780   1.535  10.988 -1.5597  0.2187  0.8788
  103OSM   H13B10382   2.858   1.683  10.928 -0.0089  0.2552  1.3023
  103OSM   H13C10383   2.754   1.598  10.828 -0.5712  0.5230 -0.3761
  103OSM    C1210384   2.527   1.626  10.976  0.2049 -0.1027 -0.6419
  103OSM   H12A10385   2.521   1.591  10.874  3.1059 -0.3187 -0.8421
  103OSM   H12B10386   2.450   1.697  11.000  1.0100  0.9907 -1.2207
  103OSM    C1110387   2.528   1.499  11.070  0.9181 -0.0418 -0.4059
  103OSM   H11A10388   2.423   1.466  11.052  0.3644  1.4199  0.0269
  103OSM   H11B10389   2.535   1.523  11.178 -0.1261 -0.0246 -0.3332
  103OSM      P10390   2.588   1.249  11.027  0.2453  0.3540 -0.1691
  103OSM    O1310391   2.713   1.174  11.002 -0.0138  0.2500 -0.5499
  103OSM    O1410392   2.507   1.221  11.147  0.0704  0.0553 -0.3588
  103OSM    O1110393   2.498   1.233  10.891  0.0817  0.2184  0.2106
  103OSM    O1210394   2.626   1.401  11.036 -0.4109 -0.3110 -0.3265
  103OSM    C1S10395   2.566   1.269  10.765  0.7005  0.3932 -0.1914
  103OSM    H1S10396   2.658   1.208  10.748  0.5376  0.3576 -0.9726
  103OSM    H1T10397   2.591   1.377  10.756  1.9985 -0.0463 -3.3022
  103OSM     NF10398   2.543   1.279  10.517 -0.0735 -0.1488 -0.0952
  103OSM    HNF10399   2.551   1.376  10.495 -0.2683 -0.4248 -1.4944
  103OSM    C2S10400   2.471   1.249  10.637 -0.2368  0.1304  0.0888
  103OSM    H2S10401   2.438   1.144  10.617  2.6655 -0.3573 -2.9914
  103OSM    C3S10402   2.354   1.348  10.661  1.0502  0.3519 -1.4170
  103OSM    H3S10403   2.395   1.451  10.652  0.1174  1.0426  1.3620
  103OSM     O310404   2.296   1.343  10.788  0.4135  0.4002  0.0858
  103OSM    HO310405   2.371   1.301  10.831 -0.2872 -3.5111 -2.0671
  103OSM    C4S10406   2.253   1.328  10.550  0.3532 -0.5998 -0.2936
  103OSM    H4S10407   2.293   1.377  10.460  1.1960  0.4326  0.6115
  103OSM    C5S10408   2.137   1.262  10.547  0.6754  0.2587  0.0757
  103OSM    H5S10409   2.090   1.217  10.636  2.0283 -0.5396  0.4234
  103OSM    C6S10410   2.055   1.263  10.421 -0.2614  0.4990  0.1413
  103OSM    H6S10411   1.953   1.283  10.460 -0.4502 -1.8702  0.9851
  103OSM    H6T10412   2.061   1.165  10.369 -2.8592 -0.3656  1.2681
  103OSM    C7S10413   2.091   1.370  10.313 -0.0319  0.0793  0.3607
  103OSM    H7S10414   2.194   1.346  10.279 -0.7900 -0.1754 -1.9338
  103OSM    H7T10415   2.082   1.475  10.348 -0.2909  0.4736 -0.8221
  103OSM    C8S10416   2.002   1.344  10.189  0.1509 -0.2851 -0.4803
  103OSM    H8S10417   1.902   1.368  10.229  0.9918 -0.3994  1.8348
  103OSM    H8T10418   2.002   1.241  10.146  0.5802  0.9437 -3.7900
  103OSM    C9S10419   2.025   1.446  10.090 -0.1696  0.0273  0.0974
  103OSM    H9S10420   2.129   1.443  10.052 -0.6852  3.6313 -2.1230
  103OSM    H9T10421   2.026   1.549  10.132  1.7919  0.0688  0.0518
  103OSM   C10S10422   1.929   1.433   9.976  0.0520  0.2993  0.1218
  103OSM   H10S10423   1.820   1.449   9.994 -1.0785 -1.5507 -3.8955
  103OSM   H10T10424   1.920   1.325   9.948  0.6985  0.1379  0.5154
  103OSM   C11S10425   1.952   1.520   9.858  0.4158  0.7466  0.5073
  103OSM   H11S10426   2.059   1.503   9.834  0.7528  3.2857 -0.1685
  103OSM   H11T10427   1.929   1.621   9.898 -0.7749  0.5182  0.4458
  103OSM   C12S10428   1.864   1.492   9.729 -0.1847  0.8317 -0.1003
  103OSM   H12S10429   1.771   1.546   9.758 -1.6941 -1.1570 -0.9375
  103OSM   H12T10430   1.853   1.382   9.722 -2.2008  1.0585 -1.2020
  103OSM   C13S10431   1.918   1.551   9.598  0.7510 -0.5806 -0.5351
  103OSM   H13S10432   2.027   1.532   9.589  1.6127  3.6779 -1.1688
  103OSM   H13T10433   1.911   1.662   9.592  1.4475 -0.3989  1.3921
  103OSM   C14S10434   1.839   1.502   9.476 -0.3331  0.2586  0.7163
  103OSM   H14S10435   1.744   1.557   9.459 -0.5318 -0.8204 -2.2923
  103OSM   H14T10436   1.811   1.395   9.489  1.8851 -0.4533  0.0157
  103OSM   C15S10437   1.928   1.532   9.352 -0.3450  0.4573 -0.2765
  103OSM   H15S10438   2.031   1.501   9.377 -1.4283 -1.4531  2.2708
  103OSM   H15T10439   1.929   1.642   9.337 -1.0149  0.3014 -1.6680
  103OSM   C16S10440   1.886   1.463   9.222  0.6128 -0.3051 -0.3579
  103OSM   H16S10441   1.779   1.488   9.206  0.7353  1.6958  1.4162
  103OSM   H16T10442   1.895   1.353   9.230  2.6951 -0.1477  0.1406
  103OSM   C17S10443   1.965   1.524   9.102 -0.5307 -0.1384 -0.4701
  103OSM   H17S10444   2.073   1.502   9.113 -0.6555 -0.6361 -0.2226
  103OSM   H17T10445   1.961   1.635   9.103 -0.2793 -0.1214  1.2092
  103OSM   C18S10446   1.921   1.457   8.969 -0.6123  0.2763  0.3189
  103OSM   H18S10447   1.947   1.349   8.979  3.9194  1.1973  0.4478
  103OSM   H18T10448   1.976   1.496   8.881 -1.3183 -1.3585 -0.8918
  103OSM   H18U10449   1.812   1.480   8.959 -1.0996 -0.8016  2.3779
  103OSM    C1F10450   2.637   1.204  10.468 -0.4218  0.6763  0.2747
  103OSM     OF10451   2.642   1.086  10.507  0.3331  0.3780 -0.2468
  103OSM    C2F10452   2.742   1.268  10.375  1.1812  0.1495 -0.0026
  103OSM    H2F10453   2.841   1.221  10.396  0.1153 -2.2585  0.0530
  103OSM    H2G10454   2.740   1.375  10.402  0.4473 -0.1859  1.3645
  103OSM    C3F10455   2.704   1.253  10.223 -0.1057  0.9577  0.8507
  103OSM    H3F10456   2.671   1.149  10.201 -2.8949  2.1306 -1.1277
  103OSM    H3G10457   2.795   1.275  10.163 -0.5898  0.8121  0.0449
  103OSM    C4F10458   2.588   1.346  10.171  0.4024  0.2882 -0.4589
  103OSM    H4F10459   2.584   1.442  10.226  1.5150 -0.7032  1.4865
  103OSM    H4G10460   2.494   1.288  10.187 -0.6971  0.9386 -3.8576
  103OSM    C5F10461   2.582   1.365  10.021 -0.3417  0.0700 -0.0383
  103OSM    H5F10462   2.672   1.412   9.975  0.7784  0.6095  2.5329
  103OSM    H5G10463   2.505   1.444  10.006 -0.3028 -0.0694 -1.0364
  103OSM    C6F10464   2.542   1.232   9.958  0.2934  0.3500 -0.1227
  103OSM    H6F10465   2.436   1.204   9.974  1.2039 -2.0887  2.5172
  103OSM    H6G10466   2.598   1.150  10.007 -0.0988  1.6483  2.7555
  103OSM    C7F10467   2.571   1.232   9.812 -0.0158 -0.4664  0.2112
  103OSM    H7F10468   2.549   1.130   9.773 -0.0955 -0.2333 -0.3693
  103OSM    H7G10469   2.682   1.236   9.803  0.0123  1.6448  0.8107
  103OSM    C8F10470   2.486   1.342   9.744 -0.2934 -0.5587 -0.0248
  103OSM    H8F10471   2.524   1.445   9.760  1.7230 -1.1319 -0.7785
  103OSM    H8G10472   2.382   1.337   9.784 -0.8138 -1.1589 -1.4012
  103OSM    C9F10473   2.479   1.309   9.595  0.3621  0.1296 -0.2650
  103OSM    H9F10474   2.380   1.264   9.575  0.8550 -0.1163 -2.4184
  103OSM   C10F10475   2.562   1.331   9.492  0.2017  0.1304  1.2642
  103OSM   H10F10476   2.532   1.287   9.395 -0.6378  0.4704  1.3617
  103OSM   C11F10477   2.703   1.378   9.488 -0.1421 -0.0345 -0.9545
  103OSM   H11F10478   2.773   1.341   9.566 -0.3463 -2.8052 -1.9989
  103OSM   H11G10479   2.693   1.488   9.502  0.8630  0.0554 -0.8579
  103OSM   C12F10480   2.785   1.352   9.359 -0.3480  0.1180  0.1942
  103OSM   H12F10481   2.861   1.433   9.344 -0.5394  0.2457 -0.0930
  103OSM   H12G10482   2.720   1.354   9.269 -0.4732 -0.7158  0.2623
  103OSM   C13F10483   2.846   1.213   9.352 -0.3568  0.1831  0.1538
  103OSM   H13F10484   2.766   1.147   9.313 -0.3672  0.4514 -0.2768
  103OSM   H13G10485   2.870   1.186   9.458  0.5570  2.2073  0.5160
  103OSM   C14F10486   2.968   1.194   9.269  0.3910  0.4196  0.0799
  103OSM   H14F10487   3.006   1.090   9.274 -1.5084 -0.3208 -0.1930
  103OSM   H14G10488   3.050   1.267   9.287 -0.4869  1.3187  0.5136
  103OSM   C15F10489   2.933   1.226   9.126  0.0471 -0.6850  0.5284
  103OSM   H15F10490   2.906   1.334   9.117  1.9047 -0.1141  1.1748
  103OSM   H15G10491   2.841   1.167   9.108  0.3729 -1.3114  0.8779
  103OSM   C16F10492   3.045   1.201   9.028  0.2290  0.2222  0.1683
  103OSM   H16F10493   3.084   1.097   9.039  0.7860  0.1168 -2.3068
  103OSM   H16G10494   3.122   1.278   9.053 -2.1890  2.0119  2.7711
  103OSM   C17F10495   3.001   1.212   8.877  0.5969 -0.5863  0.2456
  103OSM   H17F10496   3.093   1.201   8.815  1.0905  3.3560  0.0609
  103OSM   H17G10497   2.972   1.317   8.858  2.1732 -0.1185  0.3325
  103OSM   C18F10498   2.895   1.111   8.835 -0.6088 -0.2654  0.0580
  103OSM   H18F10499   2.814   1.113   8.910 -0.6269  0.4750  0.0319
  103OSM   H18G10500   2.936   1.009   8.848 -0.4380 -0.2682 -0.4720
  103OSM   H18H10501   2.850   1.133   8.736  3.3294 -1.6414 -2.2811
  104OSM      N10502   3.308   0.416  10.921  0.0510  0.2331  1.1613
  104OSM    C1510503   3.446   0.461  10.934 -0.1273 -0.1897  0.2383
  104OSM   H15A10504   3.505   0.431  10.848  1.1049  1.8790  0.3003
  104OSM   H15B10505   3.495   0.420  11.021 -0.5906  0.7196  0.9511
  104OSM   H15C10506   3.455   0.569  10.942  0.3841 -0.3612  2.7498
  104OSM    C1410507   3.231   0.451  11.041 -0.0823  0.2476  0.5070
  104OSM   H14A10508   3.288   0.416  11.126  0.8737 -1.1985 -0.6621
  104OSM   H14B10509   3.135   0.401  11.048  1.2018 -2.2645  1.4311
  104OSM   H14C10510   3.227   0.556  11.064 -1.0180  0.4105 -0.3124
  104OSM    C1310511   3.248   0.482  10.807  0.7818  0.3046  0.3147
  104OSM   H13A10512   3.247   0.590  10.812 -1.1427  0.2765  1.1951
  104OSM   H13B10513   3.144   0.455  10.800  1.2168 -1.1579 -1.4209
  104OSM   H13C10514   3.296   0.449  10.716 -1.3876 -0.8116 -0.4795
  104OSM    C1210515   3.293   0.260  10.907 -0.1010 -0.6702 -0.8448
  104OSM   H12A10516   3.205   0.231  10.962 -1.3504 -0.2797 -2.5737
  104OSM   H12B10517   3.385   0.225  10.953 -0.1571 -0.3551 -0.4776
  104OSM    C1110518   3.291   0.202  10.766  1.1357  0.3049 -0.5351
  104OSM   H11A10519   3.195   0.225  10.714 -0.9969  0.2374  3.0300
  104OSM   H11B10520   3.279   0.092  10.775 -1.2090  0.0546 -4.2698
  104OSM      P10521   3.543   0.148  10.707 -0.3890 -0.1038  0.4184
  104OSM    O1310522   3.662   0.226  10.656 -0.2231  0.0444  0.2058
  104OSM    O1410523   3.555   0.104  10.848 -0.4769 -0.6140 -0.2904
  104OSM    O1110524   3.518   0.015  10.619 -0.0587  0.5794 -0.9547
  104OSM    O1210525   3.403   0.235  10.686  0.6634  0.4526  0.2128
  104OSM    C1S10526   3.462   0.009  10.490  0.3179  0.2674 -0.0332
  104OSM    H1S10527   3.421   0.110  10.470  0.0095  0.5105  1.6377
  104OSM    H1T10528   3.370  -0.052  10.481 -0.7694  2.0679 -2.1594
  104OSM     NF10529   3.521  -0.029  10.248  0.1378 -0.2528  0.5339
  104OSM    HNF10530   3.520  -0.104  10.184  3.7873  1.6775 -2.1506
  104OSM    C2S10531   3.569  -0.041  10.380  0.7798  0.0321 -0.1219
  104OSM    H2S10532   3.657   0.026  10.390 -0.1694  1.6275 -1.9044
  104OSM    C3S10533   3.618  -0.184  10.402  0.3173 -0.5365 -0.4980
  104OSM    H3S10534   3.537  -0.253  10.372 -0.4152  0.2945 -0.4642
  104OSM     O310535   3.632  -0.217  10.535  0.6946  0.0427  0.1124
  104OSM    HO310536   3.578  -0.146  10.570  0.8875  0.7822 -1.0429
  104OSM    C4S10537   3.735  -0.218  10.315 -0.8489 -0.2723  0.0102
  104OSM    H4S10538   3.711  -0.280  10.227  2.0926  0.8735 -1.7360
  104OSM    C5S10539   3.865  -0.190  10.346  0.6428  0.4555 -0.1528
  104OSM    H5S10540   3.893  -0.130  10.434  1.4305 -0.9803  0.6281
  104OSM    C6S10541   3.984  -0.237  10.263  0.5616 -0.6141 -0.8273
  104OSM    H6S10542   4.032  -0.330  10.300  0.0376 -0.3286  0.6301
  104OSM    H6T10543   4.076  -0.175  10.271 -0.8531  1.2994  4.0843
  104OSM    C7S10544   3.957  -0.268  10.119  0.4185  0.5893 -0.3128
  104OSM    H7S10545   3.910  -0.185  10.063  0.3049  0.0726 -0.9856
  104OSM    H7T10546   3.890  -0.356  10.121 -0.7567  1.4698  0.2376
  104OSM    C8S10547   4.079  -0.310  10.042 -0.0782  0.0682  0.0398
  104OSM    H8S10548   4.117  -0.402  10.090  0.2756 -0.6706 -1.5791
  104OSM    H8T10549   4.156  -0.230  10.049  0.4613 -0.2678 -1.5678
  104OSM    C9S10550   4.049  -0.342   9.894 -0.1639  0.1864 -0.7273
  104OSM    H9S10551   3.988  -0.261   9.848  0.9784  1.4139 -0.1686
  104OSM    H9T10552   4.012  -0.445   9.876  3.4426 -1.5369  0.8552
  104OSM   C10S10553   4.182  -0.321   9.813 -0.5690 -0.0263  0.4366
  104OSM   H10S10554   4.267  -0.375   9.861 -1.5465 -3.5976 -1.4946
  104OSM   H10T10555   4.210  -0.213   9.815  0.3941 -0.2777  1.3107
  104OSM   C11S10556   4.180  -0.368   9.671  0.7418  0.0999  0.2565
  104OSM   H11S10557   4.233  -0.283   9.623 -1.0521  1.5758  0.7595
  104OSM   H11T10558   4.077  -0.362   9.630  0.4188  1.5182  1.2039
  104OSM   C12S10559   4.241  -0.501   9.652  0.0611  0.1570  0.2750
  104OSM   H12S10560   4.181  -0.583   9.697 -0.6313  0.0228 -0.8511
  104OSM   H12T10561   4.334  -0.510   9.711  0.2245  0.3825  0.0555
  104OSM   C13S10562   4.262  -0.542   9.499 -0.0946 -0.4161 -0.3597
  104OSM   H13S10563   4.310  -0.642   9.491 -2.1241 -1.3163 -2.5732
  104OSM   H13T10564   4.333  -0.467   9.459  0.6320 -1.7527 -1.6874
  104OSM   C14S10565   4.135  -0.546   9.403 -0.1848 -0.0076 -0.3583
  104OSM   H14S10566   4.074  -0.457   9.428 -0.0800 -0.4259  1.5428
  104OSM   H14T10567   4.072  -0.635   9.425 -0.7924  0.4654 -0.1665
  104OSM   C15S10568   4.179  -0.542   9.254  0.4315 -0.3267 -0.3139
  104OSM   H15S10569   4.214  -0.438   9.238  0.6546  0.0546  2.2188
  104OSM   H15T10570   4.085  -0.553   9.195  1.2177  0.7556 -1.8223
  104OSM   C16S10571   4.272  -0.652   9.209 -0.4287  0.1219  0.0630
  104OSM   H16S10572   4.234  -0.748   9.249  1.1129  0.0036  1.3523
  104OSM   H16T10573   4.370  -0.637   9.259 -0.6716  2.3172 -0.0271
  104OSM   C17S10574   4.274  -0.653   9.057 -0.0363  0.1986 -0.1974
  104OSM   H17S10575   4.181  -0.610   9.015 -0.3336  0.3955  0.6486
  104OSM   H17T10576   4.263  -0.758   9.024 -0.6926 -0.1901  1.1946
  104OSM   C18S10577   4.384  -0.584   8.980 -0.8412 -0.2014 -0.7025
  104OSM   H18S10578   4.405  -0.481   9.014 -1.2269  0.0245 -1.1313
  104OSM   H18T10579   4.340  -0.573   8.878 -1.7657  1.3057 -0.1732
  104OSM   H18U10580   4.479  -0.643   8.976 -2.1535 -2.4397 -0.7632
  104OSM    C1F10581   3.479   0.090  10.195 -0.0455 -1.4273 -0.2562
  104OSM     OF10582   3.475   0.195  10.261 -0.3858  0.1419  0.3036
  104OSM    C2F10583   3.429   0.090  10.047 -0.0603 -0.5800 -0.7454
  104OSM    H2F10584   3.318   0.087  10.057 -0.1001 -0.4932 -1.1212
  104OSM    H2G10585   3.449  -0.010  10.002 -1.9777 -0.7601 -1.2671
  104OSM    C3F10586   3.480   0.203   9.957  0.3503 -0.0276  0.0908
  104OSM    H3F10587   3.588   0.229   9.957 -0.2666  3.0440  1.1245
  104OSM    H3G10588   3.431   0.300   9.984 -0.2278  0.2224 -1.7438
  104OSM    C4F10589   3.462   0.160   9.818  0.3150 -0.1176  0.2125
  104OSM    H4F10590   3.356   0.130   9.802  0.1509  0.6700 -0.2546
  104OSM    H4G10591   3.529   0.082   9.777  0.5990  0.6357 -0.8262
  104OSM    C5F10592   3.479   0.282   9.721  0.4386 -0.2092 -0.3768
  104OSM    H5F10593   3.586   0.312   9.713  1.1199 -1.4871  2.4775
  104OSM    H5G10594   3.420   0.371   9.750  0.2277 -0.0810 -1.1782
  104OSM    C6F10595   3.427   0.260   9.581 -0.2934  0.0257  0.5693
  104OSM    H6F10596   3.416   0.356   9.527 -1.2403  0.5261  1.6107
  104OSM    H6G10597   3.329   0.211   9.599 -1.2055  1.6590  0.2240
  104OSM    C7F10598   3.508   0.158   9.494 -0.5269 -0.3363  0.3372
  104OSM    H7F10599   3.506   0.064   9.553 -3.0931 -0.3063  0.4025
  104OSM    H7G10600   3.617   0.180   9.484 -0.4950 -1.3008 -1.9796
  104OSM    C8F10601   3.458   0.118   9.360  0.6178 -0.0411  1.1774
  104OSM    H8F10602   3.516   0.034   9.317  0.3443  0.7427 -0.8380
  104OSM    H8G10603   3.490   0.205   9.299 -0.6803 -0.2140  0.2046
  104OSM    C9F10604   3.310   0.098   9.373  0.6030  0.6538 -0.1921
  104OSM    H9F10605   3.263   0.018   9.432  1.5203 -0.1855 -0.5608
  104OSM   C10F10606   3.220   0.186   9.316 -0.7725 -0.3470  0.0146
  104OSM   H10F10607   3.114   0.160   9.322 -0.8822  0.3704  1.6179
  104OSM   C11F10608   3.252   0.311   9.238 -0.3310 -0.4662 -0.2275
  104OSM   H11F10609   3.359   0.339   9.248  0.1274 -2.3249  0.6350
  104OSM   H11G10610   3.184   0.386   9.283 -2.0003 -1.0025 -1.7513
  104OSM   C12F10611   3.226   0.309   9.092  0.2679 -0.9022  0.4511
  104OSM   H12F10612   3.227   0.411   9.049  3.5245 -1.3108 -0.6767
  104OSM   H12G10613   3.129   0.262   9.064 -0.4708  1.2258 -0.8365
  104OSM   C13F10614   3.333   0.235   9.014  0.7675  0.0041 -0.2866
  104OSM   H13F10615   3.356   0.133   9.050 -0.7612  0.1562  1.2588
  104OSM   H13G10616   3.428   0.290   9.033 -0.5691  3.0254 -1.6484
  104OSM   C14F10617   3.318   0.248   8.861 -0.5281  0.1155 -0.1479
  104OSM   H14F10618   3.418   0.234   8.814  0.7775  2.7328  1.5873
  104OSM   H14G10619   3.292   0.352   8.833  3.0215  0.9571 -0.8797
  104OSM   C15F10620   3.218   0.141   8.812 -0.4626  0.0249  0.0308
  104OSM   H15F10621   3.188   0.153   8.706  0.2806 -3.0268 -0.5982
  104OSM   H15G10622   3.128   0.137   8.878  0.5412  0.9573  1.5431
  104OSM   C16F10623   3.280  -0.004   8.820  0.1282  0.2985  0.4860
  104OSM   H16F10624   3.264  -0.039   8.924 -0.7491  3.0256  1.3652
  104OSM   H16G10625   3.389   0.014   8.806  1.3696 -1.8081  5.5164
  104OSM   C17F10626   3.213  -0.083   8.707 -0.3019  0.2217  1.1665
  104OSM   H17F10627   3.221  -0.037   8.607 -1.1565 -0.8801  0.5657
  104OSM   H17G10628   3.106  -0.085   8.737 -0.6308 -0.6558  0.0184
  104OSM   C18F10629   3.280  -0.226   8.691  0.6702 -0.2730 -0.0657
  104OSM   H18F10630   3.211  -0.287   8.630 -0.2825 -0.1082  0.8207
  104OSM   H18G10631   3.301  -0.276   8.788  1.3880  1.7369  0.8740
  104OSM   H18H10632   3.377  -0.229   8.636  1.8538 -0.4648  1.9250
  105OSM      N10633   1.994   2.386  10.847 -0.1739  0.5955 -0.1953
  105OSM    C1510634   1.938   2.337  10.713 -0.1123  0.4668 -0.3879
  105OSM   H15A10635   1.830   2.339  10.715 -0.1702 -1.2322  0.1137
  105OSM   H15B10636   1.966   2.235  10.694 -1.3440 -0.0842  0.5394
  105OSM   H15C10637   1.967   2.405  10.635  0.3921 -1.7185 -2.1759
  105OSM    C1410638   1.968   2.279  10.950  0.2864 -0.3324  0.3685
  105OSM   H14A10639   1.863   2.285  10.974  0.2433 -0.2662  0.1611
  105OSM   H14B10640   2.015   2.290  11.047 -1.5286 -0.7086  1.3268
  105OSM   H14C10641   1.983   2.182  10.907 -1.9156  0.2205 -1.8708
  105OSM    C1310642   2.147   2.395  10.837 -0.5028 -0.0581  1.2729
  105OSM   H13A10643   2.187   2.295  10.838  1.0002  0.5164  1.3252
  105OSM   H13B10644   2.186   2.438  10.928 -1.0360 -0.7330  1.8355
  105OSM   H13C10645   2.184   2.444  10.748 -0.0345 -1.5224  0.6234
  105OSM    C1210646   1.943   2.516  10.883 -0.1637  0.2382  0.4064
  105OSM   H12A10647   1.994   2.595  10.830  0.3699 -0.7333 -0.5734
  105OSM   H12B10648   1.951   2.521  10.991 -1.7371 -0.6345  0.5875
  105OSM    C1110649   1.787   2.534  10.870 -0.0261  0.2588  0.3250
  105OSM   H11A10650   1.769   2.523  10.761 -2.0814 -3.9723  0.8450
  105OSM   H11B10651   1.765   2.639  10.898 -1.4612  0.4604 -1.3709
  105OSM      P10652   1.596   2.359  10.906  0.2045 -0.0002 -0.1598
  105OSM    O1310653   1.589   2.230  10.977 -1.1214  0.2684 -0.1304
  105OSM    O1410654   1.464   2.434  10.920  0.0992  0.2290 -0.1806
  105OSM    O1110655   1.631   2.331  10.755 -0.2967  0.0945 -0.0431
  105OSM    O1210656   1.717   2.444  10.952 -0.5310 -0.2058  0.3396
  105OSM    C1S10657   1.535   2.331  10.644  0.2966  0.4184  0.3479
  105OSM    H1S10658   1.504   2.431  10.607  0.8855 -0.0805 -1.6098
  105OSM    H1T10659   1.446   2.278  10.686  1.0658 -0.0680  1.4173
  105OSM     NF10660   1.507   2.269  10.401 -0.3828 -0.3753  0.1914
  105OSM    HNF10661   1.433   2.203  10.388 -1.4758  1.2705 -2.7006
  105OSM    C2S10662   1.592   2.259  10.516  0.0962  0.4638 -0.4242
  105OSM    H2S10663   1.688   2.311  10.492  0.5509 -0.8810 -1.6823
  105OSM    C3S10664   1.632   2.113  10.541 -0.6768  0.2435 -0.4180
  105OSM    H3S10665   1.547   2.053  10.580  0.5422 -1.0848  0.2761
  105OSM     O310666   1.743   2.110  10.637  0.7194 -0.8697  0.1572
  105OSM    HO310667   1.763   2.200  10.663  3.4310 -1.0208 -1.0421
  105OSM    C4S10668   1.677   2.047  10.419 -0.6605 -0.5069 -0.1980
  105OSM    H4S10669   1.745   2.109  10.360 -0.3480 -1.4388 -0.8449
  105OSM    C5S10670   1.645   1.925  10.368 -0.2993  0.2294 -0.0256
  105OSM    H5S10671   1.595   1.846  10.427  0.9962 -0.0447  0.7359
  105OSM    C6S10672   1.704   1.883  10.237  0.0517  0.3775 -0.8616
  105OSM    H6S10673   1.735   1.777  10.246 -2.3262 -0.4534 -1.7546
  105OSM    H6T10674   1.793   1.945  10.213  0.2508  0.3435 -0.2197
  105OSM    C7S10675   1.606   1.873  10.116 -0.4800  0.2307  0.6871
  105OSM    H7S10676   1.581   1.981  10.112  2.0906  0.8622 -0.5890
  105OSM    H7T10677   1.522   1.811  10.155  0.4772 -1.0793  0.7471
  105OSM    C8S10678   1.674   1.825   9.985  0.0154  0.1237 -0.5101
  105OSM    H8S10679   1.708   1.721  10.003 -1.0836 -0.2564 -0.6245
  105OSM    H8T10680   1.758   1.886   9.944  0.2601 -0.9111 -1.6085
  105OSM    C9S10681   1.567   1.817   9.866 -0.3449  0.1042  0.5257
  105OSM    H9S10682   1.470   1.774   9.898 -0.1945 -1.0365 -0.4842
  105OSM    H9T10683   1.609   1.737   9.801 -0.4230 -0.8030  1.5454
  105OSM   C10S10684   1.550   1.945   9.789 -0.1294 -0.1658 -0.2504
  105OSM   H10S10685   1.542   2.022   9.869 -0.1071 -0.4759  0.0533
  105OSM   H10T10686   1.442   1.945   9.762 -0.1603 -2.1023 -0.2786
  105OSM   C11S10687   1.638   1.975   9.669 -0.5575 -0.0204 -0.3787
  105OSM   H11S10688   1.740   1.961   9.710 -0.3180  1.8234 -0.2700
  105OSM   H11T10689   1.641   2.080   9.634 -1.8864  0.6778  1.4889
  105OSM   C12S10690   1.599   1.896   9.548  0.4864 -0.1149  0.0958
  105OSM   H12S10691   1.491   1.898   9.522  1.0490  0.8059 -2.3613
  105OSM   H12T10692   1.632   1.791   9.566 -0.9011 -0.4035  1.1956
  105OSM   C13S10693   1.675   1.940   9.422 -0.3365 -0.1442 -0.1979
  105OSM   H13S10694   1.778   1.936   9.463 -0.6687 -0.8547  0.5874
  105OSM   H13T10695   1.644   2.042   9.389  3.4580  1.2270 -0.0343
  105OSM   C14S10696   1.655   1.844   9.307 -0.9044  0.4653 -0.3673
  105OSM   H14S10697   1.551   1.856   9.270 -1.1023  1.2311  0.3963
  105OSM   H14T10698   1.658   1.742   9.352  0.3054  0.5060 -0.3335
  105OSM   C15S10699   1.754   1.850   9.191  0.4291  0.2529 -0.2806
  105OSM   H15S10700   1.711   1.784   9.113  1.2678 -2.1489  1.2088
  105OSM   H15T10701   1.844   1.799   9.230 -0.4069 -0.2355  1.0931
  105OSM   C16S10702   1.782   1.990   9.131  0.7838  0.4506 -0.3247
  105OSM   H16S10703   1.807   2.064   9.210 -2.2597 -0.3099  1.5611
  105OSM   H16T10704   1.686   2.013   9.081  1.5001 -1.3643 -2.7098
  105OSM   C17S10705   1.887   1.981   9.022 -0.3948  0.1456  0.1646
  105OSM   H17S10706   1.965   1.908   9.054 -1.3904 -0.8263  0.4254
  105OSM   H17T10707   1.933   2.081   9.012 -0.7193  0.2726 -0.0632
  105OSM   C18S10708   1.831   1.925   8.894 -1.0069 -0.0999  0.4359
  105OSM   H18S10709   1.734   1.975   8.874 -0.5019  1.0100  0.6666
  105OSM   H18T10710   1.820   1.815   8.905 -0.5367 -0.1638  0.3021
  105OSM   H18U10711   1.910   1.951   8.820 -0.6255  1.8638  1.4440
  105OSM    C1F10712   1.506   2.383  10.332 -0.0735  0.6809 -0.0249
  105OSM     OF10713   1.606   2.457  10.352 -0.4833 -0.2098  0.9082
  105OSM    C2F10714   1.398   2.408  10.235  0.4454 -0.5038 -0.4687
  105OSM    H2F10715   1.328   2.323  10.218 -0.7642  0.8184 -2.6709
  105OSM    H2G10716   1.443   2.432  10.136  0.9972 -2.5215 -0.7327
  105OSM    C3F10717   1.322   2.538  10.271 -0.9107  0.1310 -0.2715
  105OSM    H3F10718   1.391   2.624  10.282  0.7957 -1.2985  0.7861
  105OSM    H3G10719   1.267   2.534  10.368  3.0091  0.1559  2.1520
  105OSM    C4F10720   1.231   2.572  10.158 -0.2198 -0.7387  0.4365
  105OSM    H4F10721   1.164   2.654  10.192  1.1157  1.2044 -1.3306
  105OSM    H4G10722   1.159   2.490  10.141 -1.2045  0.0937  0.4943
  105OSM    C5F10723   1.292   2.646  10.041 -0.1838 -0.6762 -0.0201
  105OSM    H5F10724   1.384   2.594  10.006  0.3117 -1.5364  2.3251
  105OSM    H5G10725   1.316   2.746  10.083  1.1550 -0.7074 -0.6541
  105OSM    C6F10726   1.190   2.664   9.931 -0.1047 -0.2436  0.4652
  105OSM    H6F10727   1.131   2.571   9.917 -0.7771  0.4069 -1.3655
  105OSM    H6G10728   1.244   2.682   9.836 -1.9926 -0.8762 -0.8064
  105OSM    C7F10729   1.091   2.775   9.952 -0.2586  0.1945  0.1293
  105OSM    H7F10730   1.139   2.875   9.961  1.9669 -0.3065 -3.6696
  105OSM    H7G10731   1.018   2.752  10.032 -0.5059  2.5383  0.6533
  105OSM    C8F10732   0.994   2.801   9.833  0.0255  0.1830  0.1491
  105OSM    H8F10733   1.053   2.837   9.746 -0.7170 -1.2812 -1.0234
  105OSM    H8G10734   0.914   2.874   9.859 -0.4851 -0.6675  1.0292
  105OSM    C9F10735   0.918   2.686   9.771  0.1802  0.0541 -0.6636
  105OSM    H9F10736   0.823   2.669   9.824  0.0642  1.1028 -0.5217
  105OSM   C10F10737   0.943   2.609   9.663  0.1815 -0.0518  0.5353
  105OSM   H10F10738   0.875   2.527   9.636 -0.8819  0.4907  1.5008
  105OSM   C11F10739   1.056   2.620   9.566 -0.2678  0.2102  0.3470
  105OSM   H11F10740   1.065   2.531   9.501  0.8547 -0.0643  0.8673
  105OSM   H11G10741   1.154   2.618   9.617  0.0859  1.3826 -0.2319
  105OSM   C12F10742   1.044   2.749   9.480 -0.5118  0.2484 -0.0828
  105OSM   H12F10743   1.131   2.738   9.411  2.4948 -0.0321  3.4500
  105OSM   H12G10744   1.051   2.839   9.543  0.3016  0.3062 -0.2431
  105OSM   C13F10745   0.916   2.767   9.391 -0.1099 -0.2807 -0.9699
  105OSM   H13F10746   0.940   2.851   9.323  1.4228 -0.5849 -0.8296
  105OSM   H13G10747   0.822   2.798   9.442 -1.4263 -0.7904 -2.9951
  105OSM   C14F10748   0.873   2.649   9.302 -0.1016 -0.5271  0.3260
  105OSM   H14F10749   0.771   2.676   9.266  0.6573 -0.6567 -2.0878
  105OSM   H14G10750   0.859   2.560   9.366  0.3757 -1.6277 -1.0501
  105OSM   C15F10751   0.974   2.615   9.196  0.0091  0.2716 -0.8205
  105OSM   H15F10752   1.066   2.568   9.237 -1.0069 -1.4588 -0.4455
  105OSM   H15G10753   1.031   2.705   9.164  0.4769 -0.8473 -3.4426
  105OSM   C16F10754   0.917   2.530   9.084  0.2644 -0.8851  0.0155
  105OSM   H16F10755   0.842   2.592   9.030 -0.3429 -2.5968 -1.2287
  105OSM   H16G10756   0.864   2.444   9.130  2.4193 -2.7784 -0.8748
  105OSM   C17F10757   1.017   2.463   8.982 -0.1630 -0.4375 -0.4102
  105OSM   H17F10758   1.095   2.408   9.038  0.3438  0.4836 -0.2031
  105OSM   H17G10759   1.071   2.545   8.931  0.0255 -0.5551 -0.4005
  105OSM   C18F10760   0.946   2.371   8.885  0.3517  0.1856 -0.1004
  105OSM   H18F10761   0.900   2.279   8.929  2.6836 -1.7889 -1.5389
  105OSM   H18G10762   1.026   2.331   8.819  0.1925  0.9193 -0.7457
  105OSM   H18H10763   0.871   2.424   8.822 -0.4467 -0.8699 -0.0680
  106OSM      N10764   0.015   1.968  11.042 -0.3369  0.2949  0.7215
  106OSM    C1510765   0.125   1.999  11.136  0.7849  0.4401 -0.3323
  106OSM   H15A10766   0.205   2.059  11.095  1.3996 -0.7401 -0.9213
  106OSM   H15B10767   0.162   1.911  11.185  0.1457  0.9070  1.0392
  106OSM   H15C10768   0.092   2.049  11.225 -0.1371 -0.9473  0.1383
  106OSM    C1410769  -0.087   1.904  11.127  0.3378  0.1668 -0.4510
  106OSM   H14A10770  -0.141   1.973  11.191 -1.6147 -1.2305 -0.5074
  106OSM   H14B10771  -0.033   1.843  11.198  0.8163  1.8823  0.7206
  106OSM   H14C10772  -0.152   1.848  11.061  1.3012  0.3356 -1.5609
  106OSM    C1310773  -0.049   2.100  10.988 -0.3115  0.2436  0.0641
  106OSM   H13A10774   0.020   2.147  10.920  2.2648 -0.1106  2.2825
  106OSM   H13B10775  -0.070   2.174  11.065  0.4302 -0.5827  1.0842
  106OSM   H13C10776  -0.142   2.081  10.935 -0.9013  1.4700  0.6109
  106OSM    C1210777   0.065   1.888  10.924 -0.3542  0.7686 -0.8249
  106OSM   H12A10778   0.105   1.793  10.959 -0.8695  1.0563  0.5958
  106OSM   H12B10779   0.154   1.931  10.880  0.9229  0.5587  1.3887
  106OSM    C1110780  -0.028   1.861  10.810 -0.1726 -0.4036  0.1500
  106OSM   H11A10781   0.037   1.822  10.729  0.2955 -0.5773  0.6063
  106OSM   H11B10782  -0.069   1.948  10.754  1.6417  0.2556 -0.1944
  106OSM      P10783  -0.089   1.611  10.844 -0.1523 -0.0826 -0.2570
  106OSM    O1310784   0.046   1.597  10.897  0.0015  0.8405  0.3316
  106OSM    O1410785  -0.197   1.536  10.911 -0.0407 -0.3372 -0.3520
  106OSM    O1110786  -0.085   1.584  10.690  0.1207  0.7268  0.0432
  106OSM    O1210787  -0.125   1.769  10.834 -0.0329  0.1448 -0.2616
  106OSM    C1S10788  -0.183   1.637  10.599 -0.3520  0.1443  0.2528
  106OSM    H1S10789  -0.224   1.733  10.636  1.0705  1.1238 -0.6333
  106OSM    H1T10790  -0.267   1.564  10.595  1.1357 -1.8467  2.5011
  106OSM     NF10791  -0.215   1.743  10.388  0.4677  0.5597 -0.2051
  106OSM    HNF10792  -0.287   1.707  10.329  0.1706 -0.6957  0.8506
  106OSM    C2S10793  -0.122   1.654  10.459  0.4460 -0.4662 -0.8488
  106OSM    H2S10794  -0.024   1.703  10.477  0.5304  0.7387 -3.8803
  106OSM    C3S10795  -0.083   1.522  10.390 -0.1092 -0.0915 -0.0535
  106OSM    H3S10796  -0.178   1.466  10.376 -0.6296  0.7785 -0.1385
  106OSM     O310797  -0.002   1.438  10.475  0.2642 -0.3766 -0.1650
  106OSM    HO310798  -0.008   1.487  10.557 -0.0721 -2.2008  0.9466
  106OSM    C4S10799  -0.025   1.544  10.253  0.0711  0.2935  0.0219
  106OSM    H4S10800  -0.094   1.515  10.172  0.6919  1.1898 -0.8445
  106OSM    C5S10801   0.100   1.566  10.219 -0.3242 -0.7032  0.4448
  106OSM    H5S10802   0.177   1.586  10.296  0.8373  2.3495 -1.3460
  106OSM    C6S10803   0.158   1.576  10.078  0.3676 -0.3717  0.1906
  106OSM    H6S10804   0.247   1.512  10.058 -0.3054 -1.4818  0.6514
  106OSM    H6T10805   0.196   1.679  10.061 -0.9668 -0.1889 -2.1630
  106OSM    C7S10806   0.062   1.547   9.954  0.7698 -0.4013 -0.4543
  106OSM    H7S10807   0.119   1.582   9.865 -0.8372 -2.2751 -2.3129
  106OSM    H7T10808  -0.025   1.613   9.974  1.0399 -0.2403  0.2510
  106OSM    C8S10809   0.019   1.398   9.921 -0.6745  0.2534  0.5378
  106OSM    H8S10810  -0.037   1.352  10.005  0.7269 -1.2434  0.6989
  106OSM    H8T10811   0.120   1.352   9.915 -0.8341 -0.0297 -0.0107
  106OSM    C9S10812  -0.059   1.382   9.788  0.4979  0.1041 -0.5426
  106OSM    H9S10813  -0.150   1.444   9.800 -1.2157 -2.3973  0.1882
  106OSM    H9T10814  -0.086   1.275   9.776 -2.0541  0.7863 -1.3758
  106OSM   C10S10815   0.031   1.426   9.666  0.1314  0.6868 -0.6835
  106OSM   H10S10816   0.106   1.345   9.658  0.2127  0.7947 -1.0372
  106OSM   H10T10817   0.090   1.519   9.678 -0.0736  0.6317  0.9416
  106OSM   C11S10818  -0.063   1.414   9.544 -1.0395 -0.3732  0.1192
  106OSM   H11S10819  -0.138   1.496   9.549  1.1134  1.6733  0.3226
  106OSM   H11T10820  -0.116   1.316   9.549  0.7117 -1.2938  2.1401
  106OSM   C12S10821   0.006   1.428   9.406 -0.4398 -0.8721 -0.9277
  106OSM   H12S10822   0.074   1.345   9.377  0.1497 -0.3085 -1.1673
  106OSM   H12T10823   0.060   1.525   9.400  2.9092 -2.4892  0.2515
  106OSM   C13S10824  -0.098   1.434   9.290  0.4376 -0.0378  0.2097
  106OSM   H13S10825  -0.138   1.537   9.285 -1.2103 -0.3564  3.6976
  106OSM   H13T10826  -0.189   1.377   9.319 -1.7340  2.6993 -0.7958
  106OSM   C14S10827  -0.043   1.388   9.157  0.0361 -0.1609 -0.2839
  106OSM   H14S10828  -0.010   1.282   9.154 -0.9864 -0.5310  0.8080
  106OSM   H14T10829   0.046   1.448   9.129 -2.0744  2.4723 -1.8710
  106OSM   C15S10830  -0.132   1.423   9.032  0.0228 -0.6609 -0.6072
  106OSM   H15S10831  -0.139   1.534   9.032 -1.7096 -0.7300 -0.8045
  106OSM   H15T10832  -0.227   1.370   9.055  0.2125 -0.7863 -0.1149
  106OSM   C16S10833  -0.076   1.374   8.897  0.1770  0.1270 -0.0695
  106OSM   H16S10834  -0.086   1.264   8.904  3.0413 -0.1088  1.8042
  106OSM   H16T10835   0.032   1.398   8.901 -0.1244  1.5865  0.1171
  106OSM   C17S10836  -0.125   1.426   8.769 -0.2334 -0.3785 -0.0821
  106OSM   H17S10837  -0.122   1.537   8.767 -0.2870 -0.3767 -0.0458
  106OSM   H17T10838  -0.231   1.399   8.750 -1.0349  2.0984  0.4661
  106OSM   C18S10839  -0.045   1.361   8.656 -0.3014 -0.9666  0.3689
  106OSM   H18S10840  -0.082   1.396   8.557 -2.1284  1.3342  1.7732
  106OSM   H18T10841  -0.030   1.252   8.669 -0.1637 -1.0222 -0.2227
  106OSM   H18U10842   0.061   1.394   8.662 -0.3024 -0.8779 -0.0642
  106OSM    C1F10843  -0.218   1.869  10.420 -0.3971 -0.9136  0.0268
  106OSM     OF10844  -0.142   1.923  10.495  0.4828  0.0416  0.4683
  106OSM    C2F10845  -0.323   1.948  10.337  0.2577 -0.6513  0.4334
  106OSM    H2F10846  -0.370   2.028  10.398 -3.7143 -1.9805 -0.6078
  106OSM    H2G10847  -0.406   1.882  10.304 -0.4773  1.6290 -2.7508
  106OSM    C3F10848  -0.259   2.024  10.214  0.3495  0.3619  0.3325
  106OSM    H3F10849  -0.162   2.070  10.245  0.2333 -0.3223  1.8159
  106OSM    H3G10850  -0.331   2.104  10.190 -1.7914 -1.4083  0.5357
  106OSM    C4F10851  -0.241   1.946  10.087  0.0228 -0.0313 -0.5726
  106OSM    H4F10852  -0.317   1.868  10.062  0.5463  0.2685 -3.4548
  106OSM    H4G10853  -0.143   1.895  10.099  0.0010  0.4625  2.8294
  106OSM    C5F10854  -0.237   2.033   9.966 -0.0280  0.0405  0.1683
  106OSM    H5F10855  -0.137   2.080   9.972  0.8387 -1.7531  0.1163
  106OSM    H5G10856  -0.317   2.111   9.964 -1.2706 -1.1959  0.0941
  106OSM    C6F10857  -0.231   1.940   9.840  0.1994  0.0687  0.4173
  106OSM    H6F10858  -0.333   1.900   9.822  0.4470 -0.2126 -0.4266
  106OSM    H6G10859  -0.160   1.860   9.870 -1.6599 -2.2126 -0.9557
  106OSM    C7F10860  -0.179   2.012   9.714  0.1223  0.3846 -0.1070
  106OSM    H7F10861  -0.072   2.032   9.737  0.3249 -1.3915  0.6550
  106OSM    H7G10862  -0.224   2.113   9.706 -0.5845  0.0170 -1.0726
  106OSM    C8F10863  -0.207   1.930   9.587  0.2596 -0.0739  0.0793
  106OSM    H8F10864  -0.186   1.831   9.633  2.9325 -0.1806 -1.1596
  106OSM    H8G10865  -0.133   1.925   9.504 -3.1841  2.0588 -3.4285
  106OSM    C9F10866  -0.345   1.947   9.526 -0.2832  1.0538  0.1664
  106OSM    H9F10867  -0.430   1.916   9.588 -0.5660  1.5786  0.0438
  106OSM   C10F10868  -0.360   1.977   9.397 -0.2365 -0.1204 -0.2790
  106OSM   H10F10869  -0.458   1.999   9.352 -0.1709 -0.9308 -0.8327
  106OSM   C11F10870  -0.253   2.027   9.300 -0.1117  0.6326  0.5423
  106OSM   H11F10871  -0.150   2.049   9.336 -0.1743  2.2603 -0.1671
  106OSM   H11G10872  -0.288   2.125   9.262  0.7690  0.0538 -1.9569
  106OSM   C12F10873  -0.228   1.925   9.186 -0.2737 -0.1689 -0.3642
  106OSM   H12F10874  -0.184   1.832   9.229 -2.3891 -1.0965 -0.0837
  106OSM   H12G10875  -0.148   1.947   9.112  0.7103 -0.8958  0.4396
  106OSM   C13F10876  -0.349   1.872   9.106 -0.0300  0.3046 -0.0833
  106OSM   H13F10877  -0.433   1.854   9.177  0.1745 -3.0769 -0.5350
  106OSM   H13G10878  -0.318   1.780   9.053 -0.9926 -1.4142  2.1581
  106OSM   C14F10879  -0.379   1.980   8.997 -0.2221 -0.6830 -0.1606
  106OSM   H14F10880  -0.291   2.043   8.973 -0.6271  1.0653  2.4871
  106OSM   H14G10881  -0.452   2.055   9.036  0.4231 -0.1416  0.0235
  106OSM   C15F10882  -0.445   1.929   8.869 -0.5321  0.5238 -0.1544
  106OSM   H15F10883  -0.476   2.018   8.810  0.9462 -0.3780 -2.4512
  106OSM   H15G10884  -0.533   1.869   8.900 -1.9527  2.0940 -1.0011
  106OSM   C16F10885  -0.346   1.843   8.783  0.2142 -0.0739 -0.1675
  106OSM   H16F10886  -0.289   1.764   8.835  2.4004  1.0309 -0.7631
  106OSM   H16G10887  -0.274   1.920   8.748  0.2531 -0.5672 -1.2155
  106OSM   C17F10888  -0.429   1.790   8.662 -0.5331 -0.2602 -0.0141
  106OSM   H17F10889  -0.477   1.882   8.621  0.3180  0.7617  1.2205
  106OSM   H17G10890  -0.508   1.719   8.693 -1.0831  0.9809  1.5179
  106OSM   C18F10891  -0.344   1.724   8.554  0.3572 -0.4253 -0.2287
  106OSM   H18F10892  -0.300   1.627   8.588  0.1242 -1.0924 -1.7299
  106OSM   H18G10893  -0.260   1.793   8.532 -0.4981  0.8104  0.3082
  106OSM   H18H10894  -0.405   1.705   8.463 -1.4645  2.7768  0.1821
  107OSM      N10895   2.919   6.299  10.584 -0.5084 -0.2100 -0.3490
  107OSM    C1510896   3.060   6.305  10.543 -0.3487  0.7874  0.4829
  107OSM   H15A10897   3.096   6.223  10.482 -1.2176  0.6043  0.2102
  107OSM   H15B10898   3.124   6.307  10.630 -1.1741 -0.6254  1.1471
  107OSM   H15C10899   3.084   6.394  10.486 -0.4645 -0.2851 -1.2971
  107OSM    C1410900   2.843   6.284  10.458 -0.0829 -0.0825 -0.5978
  107OSM   H14A10901   2.737   6.278  10.477 -0.5342  0.3856 -2.7552
  107OSM   H14B10902   2.866   6.187  10.416 -1.5654 -1.3610  1.4022
  107OSM   H14C10903   2.852   6.368  10.391 -2.7002  1.3282  0.6841
  107OSM    C1310904   2.896   6.168  10.655 -0.2150  0.1662  0.0003
  107OSM   H13A10905   2.930   6.087  10.592  0.8113  0.8361 -0.3350
  107OSM   H13B10906   2.790   6.159  10.673 -0.3053 -1.6003 -1.2255
  107OSM   H13C10907   2.957   6.174  10.744  1.0516  3.1954 -0.9458
  107OSM    C1210908   2.868   6.415  10.669  0.1202 -0.4905 -0.0099
  107OSM   H12A10909   2.769   6.396  10.708 -0.7559 -1.1056 -2.3652
  107OSM   H12B10910   2.859   6.502  10.605  3.4526  0.4697  0.6437
  107OSM    C1110911   2.954   6.459  10.796 -1.4415 -0.4877  0.8066
  107OSM   H11A10912   2.943   6.375  10.868 -0.3832 -1.0066  0.4023
  107OSM   H11B10913   2.915   6.554  10.837  0.4730  0.6760  0.0694
  107OSM      P10914   3.146   6.621  10.717  0.0428 -0.2788 -0.3565
  107OSM    O1310915   3.174   6.711  10.830  0.4111 -0.6088  0.3595
  107OSM    O1410916   3.254   6.600  10.623  0.9433 -0.2954  0.3877
  107OSM    O1110917   3.027   6.680  10.645 -0.1424 -0.8705  0.2193
  107OSM    O1210918   3.093   6.477  10.769 -0.2712  0.1515  0.0287
  107OSM    C1S10919   3.036   6.818  10.599  0.0186  0.3047  0.4241
  107OSM    H1S10920   3.141   6.838  10.566 -0.0078 -2.2259 -1.5407
  107OSM    H1T10921   3.007   6.885  10.683 -0.7331 -1.4643  1.6455
  107OSM     NF10922   2.967   6.966  10.412 -0.4444  0.4538 -0.2653
  107OSM    HNF10923   2.918   7.050  10.437 -0.2322  0.8944 -1.2582
  107OSM    C2S10924   2.936   6.836  10.483  0.0456  0.0546 -0.1757
  107OSM    H2S10925   2.939   6.753  10.408 -0.0746 -0.6503  0.5884
  107OSM    C3S10926   2.788   6.833  10.540  0.5832  0.1034 -0.0560
  107OSM    H3S10927   2.767   6.920  10.606  1.0349 -0.6901  1.1720
  107OSM     O310928   2.767   6.730  10.636 -0.2026  0.4794 -0.1222
  107OSM    HO310929   2.857   6.710  10.662  0.6805 -0.8638 -3.5717
  107OSM    C4S10930   2.695   6.816  10.428  0.2259 -0.3616 -0.4017
  107OSM    H4S10931   2.687   6.710  10.401 -0.5768 -0.0352 -1.5192
  107OSM    C5S10932   2.627   6.914  10.355 -0.4372  0.5866 -0.7476
  107OSM    H5S10933   2.656   7.018  10.373  0.8326 -0.1205  1.9615
  107OSM    C6S10934   2.529   6.885  10.239  0.3687 -0.7663 -0.5524
  107OSM    H6S10935   2.425   6.893  10.278 -0.2052  0.5581 -2.2685
  107OSM    H6T10936   2.538   6.783  10.197  1.6951 -2.6059  3.6699
  107OSM    C7S10937   2.556   6.991  10.128 -0.7330  1.0391  0.9827
  107OSM    H7S10938   2.663   6.980  10.101 -0.2974  3.8388  1.3201
  107OSM    H7T10939   2.557   7.098  10.156  1.6538  0.9156  1.5081
  107OSM    C8S10940   2.461   6.968  10.007  0.0377  0.1089 -0.3451
  107OSM    H8S10941   2.356   6.980  10.042  0.0534  0.1713 -0.3190
  107OSM    H8T10942   2.489   6.870   9.962 -0.3252 -0.4871  0.7098
  107OSM    C9S10943   2.470   7.081   9.905  0.0974  0.3246 -0.4285
  107OSM    H9S10944   2.573   7.086   9.864  0.5289  0.8263  0.6873
  107OSM    H9T10945   2.450   7.172   9.965 -1.6470 -0.4778  0.2683
  107OSM   C10S10946   2.364   7.069   9.787 -0.4120  1.1916 -0.9577
  107OSM   H10S10947   2.255   7.065   9.810 -0.5708  3.2929 -1.1798
  107OSM   H10T10948   2.380   6.969   9.741  0.3100  0.3773  0.9208
  107OSM   C11S10949   2.390   7.171   9.680 -0.6354 -0.3966 -0.2926
  107OSM   H11S10950   2.500   7.187   9.667 -0.7731  2.5192  1.2625
  107OSM   H11T10951   2.344   7.267   9.711 -0.5836 -0.3428 -0.3814
  107OSM   C12S10952   2.331   7.117   9.554 -0.8874  0.2729 -0.1763
  107OSM   H12S10953   2.224   7.087   9.558 -1.4312  1.7306 -1.9801
  107OSM   H12T10954   2.395   7.031   9.525 -1.1573 -0.6033  1.6811
  107OSM   C13S10955   2.337   7.214   9.434  0.1996 -0.4657 -0.4199
  107OSM   H13S10956   2.422   7.281   9.457 -1.0723  0.2211  2.8406
  107OSM   H13T10957   2.242   7.270   9.419  0.1876 -1.0732 -2.9776
  107OSM   C14S10958   2.372   7.150   9.302  0.1320  0.5715  0.8698
  107OSM   H14S10959   2.286   7.092   9.263  0.0043  1.1758  0.2440
  107OSM   H14T10960   2.454   7.076   9.311 -1.3171 -1.4601 -1.4681
  107OSM   C15S10961   2.423   7.244   9.187  0.5929  0.0560 -0.1796
  107OSM   H15S10962   2.499   7.311   9.232  0.9715  0.5512 -1.5139
  107OSM   H15T10963   2.345   7.316   9.157  1.9438  1.3462 -0.7087
  107OSM   C16S10964   2.475   7.169   9.061 -0.2922 -0.0350 -0.6827
  107OSM   H16S10965   2.517   7.079   9.110 -0.6091  0.7509  1.0992
  107OSM   H16T10966   2.558   7.213   9.002  0.1323 -0.2931 -0.2844
  107OSM   C17S10967   2.375   7.117   8.958 -0.0806  1.1443  0.4779
  107OSM   H17S10968   2.287   7.087   9.019 -0.0305  0.5547  0.2675
  107OSM   H17T10969   2.413   7.034   8.895 -1.9867  0.2951  0.3835
  107OSM   C18S10970   2.324   7.223   8.861 -0.3962 -0.1544  0.1854
  107OSM   H18S10971   2.420   7.271   8.831  0.5179 -0.3625  2.5731
  107OSM   H18T10972   2.253   7.297   8.906 -1.6620 -0.6106 -0.9779
  107OSM   H18U10973   2.275   7.187   8.768 -0.3184 -1.6137  0.6964
  107OSM    C1F10974   3.070   6.967  10.327  0.4534 -0.2375 -0.3284
  107OSM     OF10975   3.152   6.877  10.321  0.0743  0.3517  0.7691
  107OSM    C2F10976   3.081   7.086  10.234  0.9550 -0.1533  0.5346
  107OSM    H2F10977   3.181   7.068  10.189  1.7117  0.9301  1.7208
  107OSM    H2G10978   3.077   7.180  10.293  1.2951  0.5121 -0.4833
  107OSM    C3F10979   2.958   7.092  10.133 -0.0545  0.1530  0.2168
  107OSM    H3F10980   2.866   7.120  10.190  1.1903  1.6662  1.5839
  107OSM    H3G10981   2.942   6.995  10.082 -0.5711  0.9927 -1.2851
  107OSM    C4F10982   2.982   7.185  10.026 -0.1631 -0.5285  0.0187
  107OSM    H4F10983   3.000   7.288  10.064  0.0354 -1.1811  1.7749
  107OSM    H4G10984   2.891   7.191   9.963 -0.1761  0.8947  0.1395
  107OSM    C5F10985   3.092   7.142   9.925 -0.0481  0.0362 -0.3669
  107OSM    H5F10986   3.090   7.031   9.920  1.1375 -0.0279  0.1589
  107OSM    H5G10987   3.193   7.158   9.969  0.2496  0.8049 -1.2838
  107OSM    C6F10988   3.086   7.196   9.779  0.0302  0.2340  0.0980
  107OSM    H6F10989   3.178   7.184   9.719 -0.8864  1.8570 -1.7477
  107OSM    H6G10990   3.072   7.307   9.777 -2.1035 -0.0057 -0.8239
  107OSM    C7F10991   2.976   7.126   9.698  0.1805 -0.0477 -0.3101
  107OSM    H7F10992   2.887   7.125   9.766  1.2032 -0.7515  1.0769
  107OSM    H7G10993   3.008   7.024   9.668  1.1213  0.4249 -0.9494
  107OSM    C8F10994   2.950   7.194   9.566 -0.0045  0.4446 -1.0565
  107OSM    H8F10995   2.957   7.114   9.490 -0.1232  0.7764 -1.4178
  107OSM    H8G10996   3.038   7.256   9.539  2.5414 -0.9160  3.0953
  107OSM    C9F10997   2.830   7.287   9.548 -0.1952 -0.1704 -0.0628
  107OSM    H9F10998   2.811   7.361   9.627  1.0243  0.7720 -0.6234
  107OSM   C10F10999   2.755   7.306   9.437 -0.1704 -0.0230  0.4053
  107OSM   H10F11000   2.675   7.381   9.433  0.1917  0.7187  3.8457
  107OSM   C11F11001   2.790   7.239   9.302 -0.0232  0.4075  0.0771
  107OSM   H11F11002   2.703   7.172   9.287  0.1299  0.3532 -0.6015
  107OSM   H11G11003   2.882   7.177   9.304  0.8305  1.6455  0.4686
  107OSM   C12F11004   2.810   7.343   9.190  0.2476 -0.6066  0.4012
  107OSM   H12F11005   2.897   7.405   9.222  2.6602 -2.6805 -1.6581
  107OSM   H12G11006   2.725   7.407   9.160  2.2374  0.5589 -3.4143
  107OSM   C13F11007   2.872   7.282   9.062  0.1495 -0.1212 -0.3406
  107OSM   H13F11008   2.794   7.222   9.010  0.3786  0.8263 -1.8409
  107OSM   H13G11009   2.953   7.213   9.092 -0.2408 -0.5169 -0.1870
  107OSM   C14F11010   2.931   7.383   8.968 -0.7356 -0.6983  0.8194
  107OSM   H14F11011   3.033   7.417   8.995 -0.0568 -3.0054  1.3720
  107OSM   H14G11012   2.875   7.478   8.962  3.8528  2.2661  0.3924
  107OSM   C15F11013   2.935   7.326   8.824 -0.1499 -1.1424 -0.8071
  107OSM   H15F11014   2.829   7.300   8.803 -0.8378 -0.8222  1.9047
  107OSM   H15G11015   2.991   7.231   8.809  1.2375 -0.3832 -0.6014
  107OSM   C16F11016   2.986   7.423   8.717  0.1176 -0.6051 -0.5167
  107OSM   H16F11017   3.096   7.431   8.716  0.0173  1.0044 -0.2501
  107OSM   H16G11018   2.946   7.525   8.734  0.1960 -1.0964  3.4394
  107OSM   C17F11019   2.946   7.376   8.578 -0.2496 -0.4465  0.9659
  107OSM   H17F11020   2.949   7.463   8.509  2.9242 -1.3084 -0.1466
  107OSM   H17G11021   2.852   7.319   8.596 -0.4479 -1.0925 -1.6691
  107OSM   C18F11022   3.055   7.287   8.518  0.1504  0.7375  0.1191
  107OSM   H18F11023   3.104   7.218   8.590 -1.3805  1.5423  2.0097
  107OSM   H18G11024   3.137   7.353   8.483 -0.2433 -0.0852 -2.5759
  107OSM   H18H11025   3.023   7.227   8.430 -0.8631  0.9336  0.3365
  108OSM      N11026   6.568   0.508  10.595 -0.5958 -0.1161 -0.3947
  108OSM    C1511027   6.427   0.558  10.610  0.1177  0.0103  0.1203
  108OSM   H15A11028   6.423   0.649  10.552  0.5857  0.3362  0.5736
  108OSM   H15B11029   6.412   0.579  10.715  1.0458 -0.0847  0.2813
  108OSM   H15C11030   6.351   0.490  10.576 -0.2942  0.6748 -0.3264
  108OSM    C1411031   6.619   0.531  10.456  0.0811  0.3630  0.3094
  108OSM   H14A11032   6.624   0.636  10.431  1.3176  0.2988  0.2242
  108OSM   H14B11033   6.551   0.492  10.381  0.2918  2.7583 -1.2423
  108OSM   H14C11034   6.719   0.491  10.444 -0.7635 -1.4172 -1.3067
  108OSM    C1311035   6.653   0.594  10.696  0.5648  0.1063  0.2430
  108OSM   H13A11036   6.638   0.700  10.681  3.8192  0.2242 -4.2866
  108OSM   H13B11037   6.757   0.570  10.686  1.0550  1.6726  1.3223
  108OSM   H13C11038   6.618   0.569  10.795 -1.1803  0.9332 -0.1221
  108OSM    C1211039   6.572   0.362  10.638 -0.0381  0.5858 -0.0957
  108OSM   H12A11040   6.576   0.359  10.746  0.2557  2.8775  0.0131
  108OSM   H12B11041   6.673   0.333  10.613  0.4857  0.0428  2.4227
  108OSM    C1111042   6.466   0.264  10.578  0.5045 -0.0682  0.5238
  108OSM   H11A11043   6.503   0.162  10.606 -0.3013  0.4270  3.8970
  108OSM   H11B11044   6.467   0.281  10.469  0.8541 -1.6100  0.2583
  108OSM      P11045   6.258   0.198  10.735  0.0246  0.0366 -0.2267
  108OSM    O1311046   6.334   0.211  10.860 -0.2013 -0.1023  0.2160
  108OSM    O1411047   6.120   0.245  10.742  0.7352  0.2735 -0.0076
  108OSM    O1111048   6.269   0.050  10.681  0.4577  0.4038 -0.8095
  108OSM    O1211049   6.332   0.286  10.626  0.2272 -0.1446 -0.7830
  108OSM    C1S11050   6.208   0.013  10.552  0.3771  0.8646 -0.1684
  108OSM    H1S11051   6.182   0.106  10.496 -1.5964  2.5867  3.2473
  108OSM    H1T11052   6.111  -0.039  10.564  0.0631  1.1442 -1.4166
  108OSM     NF11053   6.240  -0.127  10.338 -0.6215 -0.2519 -0.5483
  108OSM    HNF11054   6.247  -0.226  10.335  1.6546 -0.1760  0.6803
  108OSM    C2S11055   6.302  -0.076  10.464 -0.4799  0.7157  0.3978
  108OSM    H2S11056   6.392  -0.021  10.430 -0.9802  0.2412 -1.8571
  108OSM    C3S11057   6.357  -0.199  10.545  0.4417  0.0314 -0.2823
  108OSM    H3S11058   6.274  -0.271  10.556 -0.1188  0.6523 -0.3867
  108OSM     O311059   6.416  -0.177  10.674 -0.0522 -0.0347 -0.0993
  108OSM    HO311060   6.372  -0.094  10.695  1.3624  0.3561  1.5461
  108OSM    C4S11061   6.454  -0.271  10.461  1.0991  0.4922 -0.2474
  108OSM    H4S11062   6.419  -0.352  10.395 -2.5072 -0.1711  2.1911
  108OSM    C5S11063   6.578  -0.237  10.454 -0.2691  0.0233  0.2019
  108OSM    H5S11064   6.613  -0.147  10.505  2.1556 -0.1430 -1.0160
  108OSM    C6S11065   6.683  -0.300  10.360  0.5449  0.7269 -0.5186
  108OSM    H6S11066   6.719  -0.402  10.386 -2.5490  0.0298  1.4854
  108OSM    H6T11067   6.773  -0.236  10.371  0.7635  0.2191  0.8206
  108OSM    C7S11068   6.641  -0.299  10.215  0.2426 -0.4041 -1.6190
  108OSM    H7S11069   6.578  -0.209  10.203 -1.0560 -1.0916 -0.2164
  108OSM    H7T11070   6.571  -0.383  10.195 -0.9928 -0.2252  1.4246
  108OSM    C8S11071   6.753  -0.281  10.117 -0.1470 -0.2464  0.2190
  108OSM    H8S11072   6.825  -0.362  10.143 -0.4616 -0.2621  1.0824
  108OSM    H8T11073   6.802  -0.183  10.131 -1.9565  0.9025 -1.0455
  108OSM    C9S11074   6.700  -0.299   9.973  0.0538  0.9461 -0.0564
  108OSM    H9S11075   6.626  -0.219   9.952 -0.0314  0.7448 -0.5413
  108OSM    H9T11076   6.646  -0.397   9.970 -2.2258  2.0990 -3.9418
  108OSM   C10S11077   6.804  -0.296   9.866 -0.2559  0.0763  0.6699
  108OSM   H10S11078   6.879  -0.377   9.874 -0.3331 -0.1484 -0.6698
  108OSM   H10T11079   6.861  -0.202   9.877 -1.6872  1.2778 -1.4438
  108OSM   C11S11080   6.750  -0.293   9.723  0.3274  0.1854  0.8506
  108OSM   H11S11081   6.825  -0.260   9.648 -0.9026 -0.3055 -0.6515
  108OSM   H11T11082   6.667  -0.221   9.711 -1.4436 -1.8308  0.4497
  108OSM   C12S11083   6.696  -0.433   9.678 -0.0174 -0.1191  0.3688
  108OSM   H12S11084   6.647  -0.476   9.768  0.4886  0.7217  1.0742
  108OSM   H12T11085   6.781  -0.498   9.650 -0.7239 -0.2402 -1.6070
  108OSM   C13S11086   6.608  -0.429   9.555  0.0372 -0.1742  0.0416
  108OSM   H13S11087   6.526  -0.356   9.575  0.9953  0.6624  1.0639
  108OSM   H13T11088   6.567  -0.532   9.551  1.2816 -0.7708  1.5060
  108OSM   C14S11089   6.688  -0.395   9.426 -0.1809 -0.1580  0.1900
  108OSM   H14S11090   6.786  -0.449   9.419 -1.0109 -1.4743 -2.6091
  108OSM   H14T11091   6.715  -0.288   9.437 -4.6090  1.3156 -1.3261
  108OSM   C15S11092   6.629  -0.411   9.284 -0.4047  0.6926  0.0179
  108OSM   H15S11093   6.684  -0.347   9.212 -3.5840  0.9533 -2.4160
  108OSM   H15T11094   6.528  -0.366   9.296 -0.2422  1.1374 -0.2482
  108OSM   C16S11095   6.622  -0.555   9.226 -0.2592  0.7502  0.6861
  108OSM   H16S11096   6.616  -0.626   9.311 -4.1616  0.8800  0.7117
  108OSM   H16T11097   6.704  -0.594   9.162 -0.3307  1.1348  0.3566
  108OSM   C17S11098   6.502  -0.563   9.140 -0.5278 -0.7515  0.4367
  108OSM   H17S11099   6.419  -0.503   9.183  1.4869  2.1464  0.5362
  108OSM   H17T11100   6.482  -0.670   9.118  1.0351 -0.5652 -2.2149
  108OSM   C18S11101   6.541  -0.506   9.002 -0.4390 -0.1115  0.1569
  108OSM   H18S11102   6.516  -0.397   9.001  0.0834  0.0436  1.3902
  108OSM   H18T11103   6.482  -0.567   8.931  0.9160  0.3587 -1.4200
  108OSM   H18U11104   6.650  -0.519   8.986 -0.0352 -0.4883  2.7465
  108OSM    C1F11105   6.195  -0.045  10.237 -0.5050  0.3424  0.2155
  108OSM     OF11106   6.230   0.075  10.233  0.1027  0.2085  0.0875
  108OSM    C2F11107   6.104  -0.105  10.135  0.1633  0.2804 -0.3009
  108OSM    H2F11108   6.003  -0.074  10.169  0.8497  1.1254  1.0918
  108OSM    H2G11109   6.113  -0.215  10.151  3.6083  0.3957 -0.7114
  108OSM    C3F11110   6.137  -0.058   9.995 -0.0372  0.2068 -0.5290
  108OSM    H3F11111   6.230  -0.106   9.957 -0.0541 -1.7919  1.7174
  108OSM    H3G11112   6.165   0.048  10.010 -1.3108  0.2767  1.6939
  108OSM    C4F11113   6.031  -0.093   9.887  0.0222  0.2927  0.4184
  108OSM    H4F11114   5.931  -0.058   9.920 -0.1213  1.5637 -1.2355
  108OSM    H4G11115   6.024  -0.203   9.877 -0.7251  0.1242  2.3685
  108OSM    C5F11116   6.052  -0.016   9.753  0.3467 -0.2265 -0.1339
  108OSM    H5F11117   6.136   0.055   9.760  0.4262 -0.4875  3.0727
  108OSM    H5G11118   5.958   0.041   9.736  1.6869  3.5038  3.3559
  108OSM    C6F11119   6.080  -0.118   9.643  0.2113 -0.0953 -0.6567
  108OSM    H6F11120   5.996  -0.190   9.654  0.7407 -0.4123  1.6833
  108OSM    H6G11121   6.174  -0.175   9.660 -1.3817 -2.0170  2.5238
  108OSM    C7F11122   6.101  -0.069   9.497 -1.1579  0.2441 -0.0833
  108OSM    H7F11123   6.160   0.025   9.498 -0.0030 -0.4641  0.2366
  108OSM    H7G11124   6.006  -0.048   9.444 -1.6888  1.6407  1.3459
  108OSM    C8F11125   6.181  -0.171   9.407  1.1336 -0.8116 -0.1307
  108OSM    H8F11126   6.115  -0.260   9.405 -0.6440  0.4257  0.3986
  108OSM    H8G11127   6.284  -0.198   9.440  1.6294  1.0310 -0.0558
  108OSM    C9F11128   6.187  -0.117   9.268 -0.0420 -0.4011  0.0897
  108OSM    H9F11129   6.246  -0.024   9.257  1.0779 -0.9876  0.9413
  108OSM   C10F11130   6.124  -0.163   9.160  0.3606 -0.1299  0.2756
  108OSM   H10F11131   6.145  -0.112   9.064  1.0251 -0.5978  0.1620
  108OSM   C11F11132   6.033  -0.282   9.149  0.1239 -0.0063  0.3525
  108OSM   H11F11133   5.934  -0.253   9.109  1.8620  4.7817 -1.2235
  108OSM   H11G11134   6.020  -0.327   9.250  2.4401  0.2431  0.8251
  108OSM   C12F11135   6.101  -0.386   9.052 -0.0994 -0.1433  0.2922
  108OSM   H12F11136   6.207  -0.404   9.078 -0.6054 -1.4488  1.5927
  108OSM   H12G11137   6.086  -0.347   8.949 -1.7037 -2.5258 -0.4647
  108OSM   C13F11138   6.033  -0.517   9.059  0.1536 -0.3394 -0.6421
  108OSM   H13F11139   6.010  -0.549   9.163  0.7224 -1.8348 -0.9527
  108OSM   H13G11140   6.101  -0.594   9.016  1.9979  0.0600  1.4002
  108OSM   C14F11141   5.899  -0.513   8.985  0.3074 -0.4896 -0.1371
  108OSM   H14F11142   5.858  -0.410   8.975  0.1351 -0.6534 -1.3013
  108OSM   H14G11143   5.814  -0.559   9.040 -0.9657  0.4711 -1.2109
  108OSM   C15F11144   5.911  -0.555   8.833 -0.1737 -0.2653 -0.4021
  108OSM   H15F11145   5.984  -0.496   8.775  1.3566 -1.5975  0.0950
  108OSM   H15G11146   5.807  -0.532   8.801 -0.6736 -1.3463  0.3742
  108OSM   C16F11147   5.955  -0.700   8.807  0.5415 -0.4137  0.0218
  108OSM   H16F11148   5.889  -0.771   8.862 -0.6047 -0.8477 -1.8526
  108OSM   H16G11149   6.062  -0.710   8.835  0.4125  0.9548  1.1601
  108OSM   C17F11150   5.946  -0.736   8.656 -0.2082 -0.4565 -0.4976
  108OSM   H17F11151   5.967  -0.845   8.647 -3.6105 -1.4776  2.0458
  108OSM   H17G11152   6.016  -0.670   8.601  1.5786  0.3887  2.5167
  108OSM   C18F11153   5.803  -0.709   8.593  0.3516  0.2278  0.0841
  108OSM   H18F11154   5.796  -0.744   8.488  1.4323  0.8690 -0.2147
  108OSM   H18G11155   5.781  -0.602   8.577 -0.3687  0.5682  2.7658
  108OSM   H18H11156   5.721  -0.756   8.652 -0.7139 -0.4534 -1.8235
  109OSM      N11157   4.632   0.134  10.641  0.2964 -0.6760  0.0237
  109OSM    C1511158   4.559   0.155  10.768  0.1779 -0.1236  0.0160
  109OSM   H15A11159   4.557   0.064  10.826  1.2718 -0.4316 -0.4169
  109OSM   H15B11160   4.460   0.190  10.743  1.2755  2.8922 -0.4201
  109OSM   H15C11161   4.605   0.236  10.821  1.9540  0.5609 -2.4438
  109OSM    C1411162   4.602   0.239  10.538 -0.2498  0.0407 -0.3921
  109OSM   H14A11163   4.664   0.230  10.450  1.0147  0.2718  0.4491
  109OSM   H14B11164   4.635   0.331  10.583 -0.2404 -1.2393  2.4004
  109OSM   H14C11165   4.498   0.238  10.507 -1.3032 -0.4264  2.7437
  109OSM    C1311166   4.782   0.127  10.677 -0.4290  0.4436  0.6550
  109OSM   H13A11167   4.848   0.134  10.592 -2.0859 -0.8829 -0.8398
  109OSM   H13B11168   4.796   0.035  10.732  0.3067  0.4972  0.5588
  109OSM   H13C11169   4.804   0.211  10.741 -0.2615  0.8232  0.1058
  109OSM    C1211170   4.584  -0.001  10.583 -0.2740 -0.1458 -0.1090
  109OSM   H12A11171   4.602  -0.004  10.476 -0.9732 -0.8289 -0.2173
  109OSM   H12B11172   4.479  -0.013  10.605 -0.0993  0.8937  1.4099
  109OSM    C1111173   4.645  -0.127  10.650 -0.2063  0.3626 -0.7213
  109OSM   H11A11174   4.755  -0.121  10.638  0.9844 -1.6809  5.4036
  109OSM   H11B11175   4.604  -0.212  10.592  0.0042  0.2166 -0.6575
  109OSM      P11176   4.473  -0.173  10.844  0.2823  0.0300  0.6484
  109OSM    O1311177   4.466  -0.143  10.988  0.4255 -0.5238 -0.6297
  109OSM    O1411178   4.371  -0.106  10.757 -0.5622  0.0935  0.1196
  109OSM    O1111179   4.455  -0.325  10.817  0.3582  0.1792 -0.8252
  109OSM    O1211180   4.612  -0.131  10.790  0.3147 -0.1339 -0.6266
  109OSM    C1S11181   4.547  -0.418  10.764 -0.2669  0.3863  0.1711
  109OSM    H1S11182   4.581  -0.491  10.840  0.8920 -0.7809 -1.3951
  109OSM    H1T11183   4.641  -0.377  10.722  0.9513 -2.7640 -0.4430
  109OSM     NF11184   4.571  -0.635  10.644  0.3799  0.2358  0.0031
  109OSM    HNF11185   4.641  -0.634  10.573  1.2335  0.2008  0.8180
  109OSM    C2S11186   4.485  -0.520  10.661 -0.3085 -0.0995  0.6166
  109OSM    H2S11187   4.384  -0.547  10.700 -1.0338  0.9638 -0.4176
  109OSM    C3S11188   4.456  -0.446  10.527  0.0389 -0.1459 -0.7858
  109OSM    H3S11189   4.546  -0.401  10.480  0.0507  0.1977 -0.4475
  109OSM     O311190   4.384  -0.323  10.558  0.5433  0.5210 -0.1180
  109OSM    HO311191   4.381  -0.325  10.654 -2.1403 -2.0951 -0.0731
  109OSM    C4S11192   4.389  -0.528  10.427 -0.0814  0.1417  0.6994
  109OSM    H4S11193   4.457  -0.579  10.356 -2.3530  1.0378 -2.3166
  109OSM    C5S11194   4.261  -0.557  10.411  0.2918 -0.5763 -0.0042
  109OSM    H5S11195   4.187  -0.517  10.481 -1.5693 -2.5060 -0.7527
  109OSM    C6S11196   4.197  -0.642  10.309  0.0649  0.2814  0.4127
  109OSM    H6S11197   4.105  -0.592  10.273  0.7025 -1.2157 -3.9796
  109OSM    H6T11198   4.165  -0.733  10.365  0.0497  0.6381  0.9915
  109OSM    C7S11199   4.292  -0.669  10.191  0.7002  0.3366  0.4163
  109OSM    H7S11200   4.370  -0.742  10.222  0.1324 -0.5723 -0.2552
  109OSM    H7T11201   4.353  -0.588  10.145  0.7148 -0.1623 -0.4591
  109OSM    C8S11202   4.214  -0.720  10.069  0.0974  0.0044 -0.1121
  109OSM    H8S11203   4.128  -0.655  10.042  0.5541  1.8418  2.4798
  109OSM    H8T11204   4.164  -0.809  10.111  0.3980  0.2042  0.6802
  109OSM    C9S11205   4.307  -0.757   9.961  0.2291  0.4001  0.0007
  109OSM    H9S11206   4.380  -0.829  10.004  1.9842  1.8116 -0.4820
  109OSM    H9T11207   4.359  -0.664   9.932  1.5115 -0.5457 -0.8042
  109OSM   C10S11208   4.245  -0.827   9.838 -0.3593  0.4113 -0.6032
  109OSM   H10S11209   4.158  -0.778   9.788 -2.7432 -2.8163  0.0760
  109OSM   H10T11210   4.213  -0.926   9.876 -1.0692  0.5015 -0.9633
  109OSM   C11S11211   4.355  -0.855   9.736  0.0624 -0.0788 -0.2807
  109OSM   H11S11212   4.447  -0.907   9.771  0.6854 -0.0744 -1.8236
  109OSM   H11T11213   4.399  -0.758   9.703  3.4335 -1.8600 -1.5668
  109OSM   C12S11214   4.311  -0.928   9.619  0.1045  0.0814  0.1258
  109OSM   H12S11215   4.205  -0.910   9.592 -0.0528 -1.6266 -0.5303
  109OSM   H12T11216   4.316  -1.035   9.650 -2.0808 -0.7560 -2.0647
  109OSM   C13S11217   4.400  -0.915   9.493  0.1570 -0.2091 -0.6898
  109OSM   H13S11218   4.505  -0.946   9.516 -0.3590 -0.0506  2.2203
  109OSM   H13T11219   4.413  -0.810   9.459  1.3051  0.1350  0.7270
  109OSM   C14S11220   4.353  -1.018   9.381  0.2966 -0.4674 -0.3292
  109OSM   H14S11221   4.267  -0.975   9.325 -0.2327 -0.8639  0.1692
  109OSM   H14T11222   4.308  -1.108   9.429 -0.6488 -1.2762 -2.5879
  109OSM   C15S11223   4.471  -1.054   9.292  0.6176 -0.3569  0.2732
  109OSM   H15S11224   4.541  -1.121   9.347  0.7990 -1.2304 -0.9747
  109OSM   H15T11225   4.525  -0.964   9.256 -1.0474  0.6541  0.1922
  109OSM   C16S11226   4.432  -1.126   9.159 -0.0873  0.6735  0.7166
  109OSM   H16S11227   4.354  -1.071   9.103 -1.3533 -1.0428  0.6956
  109OSM   H16T11228   4.380  -1.225   9.164 -2.8940  1.9206 -1.1866
  109OSM   C17S11229   4.550  -1.176   9.074  0.3780  0.4379  0.2270
  109OSM   H17S11230   4.590  -1.263   9.130 -2.3404 -0.9496  0.2299
  109OSM   H17T11231   4.621  -1.093   9.058 -0.6677  1.3318  0.0455
  109OSM   C18S11232   4.515  -1.217   8.931  0.8430 -0.4717 -0.0728
  109OSM   H18S11233   4.492  -1.131   8.865  0.7548 -0.6594 -0.2916
  109OSM   H18T11234   4.428  -1.286   8.924  0.1691  0.3116  0.4445
  109OSM   H18U11235   4.603  -1.263   8.882  0.9827 -1.7524  1.2996
  109OSM    C1F11236   4.581  -0.741  10.725 -0.0681  0.3846 -0.4818
  109OSM     OF11237   4.536  -0.734  10.837 -0.0350  0.2996 -0.7398
  109OSM    C2F11238   4.656  -0.860  10.666  0.3890 -0.7892 -0.3687
  109OSM    H2F11239   4.762  -0.834  10.689 -0.3873  1.4648  1.0831
  109OSM    H2G11240   4.645  -0.870  10.556 -0.7925  1.7527 -0.5755
  109OSM    C3F11241   4.618  -0.987  10.726  0.1882  0.5971 -0.4076
  109OSM    H3F11242   4.508  -1.000  10.717  0.3321 -1.7007  0.6085
  109OSM    H3G11243   4.628  -0.972  10.836 -2.7044  1.8930 -0.2194
  109OSM    C4F11244   4.683  -1.122  10.688  0.0280  0.4437 -0.3108
  109OSM    H4F11245   4.649  -1.208  10.749  0.5263  0.2902 -0.2430
  109OSM    H4G11246   4.785  -1.110  10.731 -0.3852  2.3058  0.2106
  109OSM    C5F11247   4.684  -1.162  10.538  0.2317  0.2670 -0.2526
  109OSM    H5F11248   4.714  -1.074  10.477  0.7191  0.0766 -0.2936
  109OSM    H5G11249   4.577  -1.170  10.510 -0.3262 -0.7023  1.9449
  109OSM    C6F11250   4.775  -1.278  10.497  0.6643 -1.1001  0.1998
  109OSM    H6F11251   4.723  -1.371  10.528 -0.3991 -0.4784  0.3297
  109OSM    H6G11252   4.864  -1.264  10.562 -0.1135 -2.0862  1.5315
  109OSM    C7F11253   4.804  -1.279  10.346  0.1364  0.2745 -1.0295
  109OSM    H7F11254   4.841  -1.174  10.336 -0.9814  0.8429  0.4897
  109OSM    H7G11255   4.709  -1.289  10.289  0.0160 -2.6086 -0.4552
  109OSM    C8F11256   4.908  -1.382  10.298 -0.0260 -0.6331 -0.0717
  109OSM    H8F11257   5.003  -1.370  10.355 -0.3890 -0.9944  0.6257
  109OSM    H8G11258   4.931  -1.343  10.197 -0.0640 -1.1068 -0.2652
  109OSM    C9F11259   4.867  -1.525  10.297  0.3158  0.7012 -0.1662
  109OSM    H9F11260   4.866  -1.577  10.394  0.5071  1.3496  0.1887
  109OSM   C10F11261   4.823  -1.593  10.189 -0.0234 -0.3048 -0.3755
  109OSM   H10F11262   4.799  -1.698  10.207  1.3682 -0.6454 -0.4127
  109OSM   C11F11263   4.819  -1.540  10.046  0.2801 -0.5171  0.4108
  109OSM   H11F11264   4.874  -1.445  10.027 -0.2834 -0.2772 -0.0373
  109OSM   H11G11265   4.711  -1.518  10.029  0.2283 -1.2695 -0.2700
  109OSM   C12F11266   4.883  -1.630   9.929 -0.3641  0.3245 -0.3674
  109OSM   H12F11267   4.994  -1.634   9.943 -0.2251 -0.8601 -1.5815
  109OSM   H12G11268   4.876  -1.587   9.827  2.1276  1.5676 -0.1052
  109OSM   C13F11269   4.833  -1.774   9.925 -0.0819  1.0082 -0.3557
  109OSM   H13F11270   4.873  -1.822  10.016 -0.8204 -0.2710 -0.6770
  109OSM   H13G11271   4.891  -1.826   9.846 -0.2658  1.3439 -0.7164
  109OSM   C14F11272   4.681  -1.804   9.891 -0.3682  0.7048  0.3237
  109OSM   H14F11273   4.611  -1.732   9.940  0.0708 -0.5077  2.9112
  109OSM   H14G11274   4.662  -1.904   9.935  2.4074  1.5292  3.8835
  109OSM   C15F11275   4.648  -1.806   9.736  0.4511  0.7199 -0.9543
  109OSM   H15F11276   4.704  -1.878   9.672  0.3913 -1.5474  1.4345
  109OSM   H15G11277   4.686  -1.707   9.701 -0.2944  0.9928 -0.9970
  109OSM   C16F11278   4.497  -1.831   9.708 -0.0160  0.1528  0.4889
  109OSM   H16F11279   4.438  -1.757   9.767 -1.1461 -0.3705  0.0275
  109OSM   H16G11280   4.477  -1.931   9.752  2.0068 -0.7370 -0.4893
  109OSM   C17F11281   4.448  -1.825   9.555  0.6862 -0.5170 -0.1038
  109OSM   H17F11282   4.499  -1.911   9.508  1.2543  0.0684 -0.5735
  109OSM   H17G11283   4.485  -1.736   9.500  0.3277  0.8061  1.6663
  109OSM   C18F11284   4.292  -1.826   9.551  0.3999  0.7554 -0.4201
  109OSM   H18F11285   4.254  -1.812   9.448 -0.7645 -0.4127 -0.1747
  109OSM   H18G11286   4.243  -1.744   9.608 -1.5267 -0.1741 -0.6566
  109OSM   H18H11287   4.250  -1.918   9.596  1.3236 -0.4188 -1.8524
  110OSM      N11288   4.929   5.320  11.060  0.0460  0.6196 -0.0794
  110OSM    C1511289   5.066   5.258  11.031  0.3215 -0.1171 -0.2020
  110OSM   H15A11290   5.095   5.207  11.122 -4.2190 -1.6512  0.6296
  110OSM   H15B11291   5.138   5.331  11.000  0.0689 -0.1998 -0.9880
  110OSM   H15C11292   5.044   5.178  10.962 -2.2351  1.9966 -1.9978
  110OSM    C1411293   4.843   5.206  11.106  0.3632 -0.2619 -0.5099
  110OSM   H14A11294   4.748   5.241  11.144 -1.0114 -1.9712 -2.2088
  110OSM   H14B11295   4.905   5.150  11.175  0.8439  1.3193  0.3892
  110OSM   H14C11296   4.812   5.146  11.022 -1.5099 -1.4541  0.9290
  110OSM    C1311297   4.939   5.420  11.175  0.5052  0.2809 -0.1514
  110OSM   H13A11298   4.845   5.473  11.175  0.6261  0.5290 -1.6264
  110OSM   H13B11299   5.034   5.470  11.164  0.1253  0.8302 -1.0370
  110OSM   H13C11300   4.935   5.371  11.271  1.2698  3.6629  1.7685
  110OSM    C1211301   4.863   5.393  10.940  0.1149 -0.7838  0.3975
  110OSM   H12A11302   4.926   5.476  10.913 -3.5231  1.5289 -1.8443
  110OSM   H12B11303   4.768   5.427  10.977  0.0003 -0.1289 -0.4738
  110OSM    C1111304   4.836   5.308  10.809  0.2854  0.1956  0.4200
  110OSM   H11A11305   4.935   5.266  10.782  1.7962  2.2458  2.3420
  110OSM   H11B11306   4.813   5.366  10.717 -0.7244  0.9004  1.0850
  110OSM      P11307   4.592   5.221  10.847 -0.2963  0.4895 -0.1197
  110OSM    O1311308   4.517   5.094  10.860 -0.0061 -0.1977 -0.1980
  110OSM    O1411309   4.572   5.331  10.950  0.1030 -0.4929  0.2133
  110OSM    O1111310   4.560   5.281  10.704  0.2445  0.1562 -0.7157
  110OSM    O1211311   4.750   5.197  10.833  0.4087 -0.2794  0.3015
  110OSM    C1S11312   4.593   5.210  10.582  0.1302  0.4628 -0.1158
  110OSM    H1S11313   4.592   5.099  10.588 -0.5575  0.2011 -3.4321
  110OSM    H1T11314   4.693   5.240  10.544 -0.5859  2.2190 -0.6857
  110OSM     NF11315   4.522   5.128  10.362 -0.6472  0.0177 -0.0147
  110OSM    HNF11316   4.544   5.161  10.271 -1.5096 -1.2312 -0.6997
  110OSM    C2S11317   4.485   5.219  10.466 -0.0825 -0.2052  0.8026
  110OSM    H2S11318   4.383   5.192  10.502 -0.7890 -0.5829 -1.3588
  110OSM    C3S11319   4.480   5.366  10.423 -0.5991 -0.5393  0.0251
  110OSM    H3S11320   4.577   5.399  10.380 -1.3044  0.5655 -0.7754
  110OSM     O311321   4.443   5.451  10.523  0.0496  0.0639 -0.3494
  110OSM    HO311322   4.474   5.412  10.605 -1.5047 -0.3563  0.0757
  110OSM    C4S11323   4.396   5.381  10.301  0.0082 -0.0071  0.9565
  110OSM    H4S11324   4.462   5.382  10.213  1.7908 -1.1197  2.2448
  110OSM    C5S11325   4.267   5.397  10.280  0.0203  0.2921 -0.3708
  110OSM    H5S11326   4.210   5.403  10.374  1.9269  1.3020  0.7998
  110OSM    C6S11327   4.191   5.400  10.148  0.1186  0.1024 -0.5950
  110OSM    H6S11328   4.118   5.316  10.149  0.2971 -0.0706  1.0794
  110OSM    H6T11329   4.256   5.375  10.061  0.9965  1.5379 -0.3829
  110OSM    C7S11330   4.106   5.523  10.112 -0.3412 -0.2558 -0.4225
  110OSM    H7S11331   4.172   5.611  10.106 -0.7464  0.1086  0.3276
  110OSM    H7T11332   4.030   5.556  10.186 -0.7021 -1.1993 -0.3502
  110OSM    C8S11333   4.031   5.506   9.976 -0.5517  0.3370 -0.1334
  110OSM    H8S11334   4.106   5.494   9.895  2.4409  1.2495  2.3313
  110OSM    H8T11335   3.979   5.604   9.973 -0.7519  0.3591  2.4265
  110OSM    C9S11336   3.937   5.379   9.967  0.3035  0.5523  0.0835
  110OSM    H9S11337   3.890   5.365  10.067 -0.1013  1.3539  0.0160
  110OSM    H9T11338   4.000   5.290   9.945  1.2170  1.1575  0.1709
  110OSM   C10S11339   3.824   5.407   9.873 -0.1371 -0.6807  0.5999
  110OSM   H10S11340   3.775   5.505   9.892  1.5914  0.7081 -1.5666
  110OSM   H10T11341   3.747   5.330   9.895  0.6330 -1.3245  1.1088
  110OSM   C11S11342   3.855   5.388   9.723  0.1043  0.1662  0.0422
  110OSM   H11S11343   3.871   5.278   9.714 -1.7605 -0.1530  0.3107
  110OSM   H11T11344   3.955   5.431   9.699  1.5108 -2.1765  1.2885
  110OSM   C12S11345   3.746   5.419   9.618  0.0164  0.0487  0.1186
  110OSM   H12S11346   3.729   5.529   9.615 -2.2679 -0.2593  0.1189
  110OSM   H12T11347   3.652   5.387   9.668  0.2069  1.1801  1.2625
  110OSM   C13S11348   3.761   5.357   9.473 -1.0615  0.5369 -0.7719
  110OSM   H13S11349   3.786   5.249   9.481 -1.4694  0.4107 -1.2048
  110OSM   H13T11350   3.849   5.408   9.428  0.3644 -1.0129  0.1479
  110OSM   C14S11351   3.633   5.351   9.390  0.2498  0.0941  0.8740
  110OSM   H14S11352   3.583   5.450   9.395 -1.6498 -0.7145 -0.7633
  110OSM   H14T11353   3.565   5.271   9.426 -1.3053  1.1262  0.3198
  110OSM   C15S11354   3.657   5.325   9.235 -0.0400  0.6215 -0.3237
  110OSM   H15S11355   3.722   5.236   9.223 -1.2035 -0.3089  0.0335
  110OSM   H15T11356   3.711   5.417   9.206  3.9826 -0.5772  2.5657
  110OSM   C16S11357   3.529   5.321   9.154  0.1680  0.1754 -0.3885
  110OSM   H16S11358   3.468   5.412   9.174 -0.5842 -0.8539  2.5345
  110OSM   H16T11359   3.471   5.232   9.185  2.6443 -2.1682 -2.1012
  110OSM   C17S11360   3.558   5.291   9.003  0.5766 -0.2462  0.1917
  110OSM   H17S11361   3.622   5.201   8.991 -0.8429 -1.0087 -2.7843
  110OSM   H17T11362   3.615   5.373   8.954  0.2925  0.8372  1.6187
  110OSM   C18S11363   3.430   5.264   8.919  0.6219 -0.4475  0.0394
  110OSM   H18S11364   3.447   5.174   8.855 -0.3447 -0.7636  0.2080
  110OSM   H18T11365   3.418   5.352   8.852  1.2460  0.9787  1.7230
  110OSM   H18U11366   3.337   5.246   8.976  1.2289  1.3595  1.6908
  110OSM    C1F11367   4.492   4.998  10.369 -0.1396  0.3204 -0.4703
  110OSM     OF11368   4.418   4.956  10.461 -0.8452 -0.1776 -0.2143
  110OSM    C2F11369   4.526   4.906  10.262  0.0349  1.2340  0.6977
  110OSM    H2F11370   4.583   4.816  10.294 -2.0181 -0.9545 -1.3807
  110OSM    H2G11371   4.566   4.960  10.173 -1.8271 -1.4952 -2.0181
  110OSM    C3F11372   4.391   4.842  10.214  0.0943  0.5903  0.3826
  110OSM    H3F11373   4.321   4.928  10.211  1.9728  2.1632 -1.4693
  110OSM    H3G11374   4.359   4.755  10.275  0.1859 -1.2841 -2.0917
  110OSM    C4F11375   4.399   4.790  10.073 -0.6410  0.1962  0.0415
  110OSM    H4F11376   4.461   4.699  10.081  0.2357  0.6839 -0.9397
  110OSM    H4G11377   4.443   4.853   9.992 -1.0284 -1.9816 -1.9683
  110OSM    C5F11378   4.256   4.754  10.041  0.0420 -0.0515 -0.0925
  110OSM    H5F11379   4.191   4.844  10.045 -1.8635 -1.3981  1.5769
  110OSM    H5G11380   4.224   4.680  10.118 -2.3248  0.4242 -0.5397
  110OSM    C6F11381   4.233   4.694   9.900 -0.1310 -0.2272 -0.3890
  110OSM    H6F11382   4.290   4.599   9.894  0.4573  0.1398 -0.6975
  110OSM    H6G11383   4.278   4.764   9.826  0.9363  0.1886  0.6285
  110OSM    C7F11384   4.084   4.663   9.885  0.5132  0.1386 -0.3475
  110OSM    H7F11385   4.067   4.665   9.775 -1.4996  2.7973 -0.0796
  110OSM    H7G11386   4.030   4.752   9.924  0.5917  0.2013 -0.3807
  110OSM    C8F11387   4.041   4.526   9.941  0.2722 -0.3100 -0.2872
  110OSM    H8F11388   4.036   4.527  10.052 -0.2263 -1.9593 -0.2723
  110OSM    H8G11389   4.123   4.458   9.909 -0.5944 -0.9126 -1.3036
  110OSM    C9F11390   3.905   4.481   9.885 -0.4062 -0.6237 -0.5273
  110OSM    H9F11391   3.824   4.484   9.960 -0.6183 -3.8547 -0.4930
  110OSM   C10F11392   3.876   4.441   9.762 -0.5389  0.6178 -0.3191
  110OSM   H10F11393   3.774   4.410   9.734 -1.1856 -1.1787  3.3521
  110OSM   C11F11394   3.972   4.422   9.642  0.2651  0.7482 -0.4551
  110OSM   H11F11395   4.075   4.450   9.673  0.6375 -0.7352 -0.3040
  110OSM   H11G11396   3.931   4.486   9.560 -2.6885  0.7968  0.9134
  110OSM   C12F11397   3.960   4.275   9.603  1.2490  0.6740  0.6874
  110OSM   H12F11398   3.852   4.251   9.601  1.3861 -0.1563  1.8945
  110OSM   H12G11399   4.004   4.203   9.675  1.5243  0.1356 -0.0104
  110OSM   C13F11400   4.024   4.239   9.469  0.3000  0.2777  0.0344
  110OSM   H13F11401   4.132   4.252   9.488  0.4538 -1.6853  0.7513
  110OSM   H13G11402   4.005   4.317   9.392  2.3348  0.8300  0.0452
  110OSM   C14F11403   4.001   4.096   9.426 -0.0239 -0.4738 -0.5765
  110OSM   H14F11404   3.894   4.076   9.403  0.1818  0.0064 -2.1123
  110OSM   H14G11405   4.043   4.024   9.499 -2.7973 -3.6396 -1.8664
  110OSM   C15F11406   4.079   4.071   9.292 -0.0401  0.0300 -0.1774
  110OSM   H15F11407   4.183   4.035   9.305  0.1749  1.1294  1.3363
  110OSM   H15G11408   4.076   4.162   9.229 -3.5712 -0.9117 -1.6014
  110OSM   C16F11409   4.016   3.960   9.218  1.1478  0.3302  0.1296
  110OSM   H16F11410   3.911   3.970   9.182  0.0295 -3.1552  1.8809
  110OSM   H16G11411   4.017   3.875   9.290 -2.7942  0.3459  0.4533
  110OSM   C17F11412   4.092   3.917   9.089 -0.0909 -0.5274 -0.0624
  110OSM   H17F11413   4.189   3.885   9.134  0.8788  0.6148 -1.2489
  110OSM   H17G11414   4.121   4.006   9.029  0.5380 -0.2730  0.6017
  110OSM   C18F11415   4.033   3.805   9.003  0.1957  0.3350 -0.2899
  110OSM   H18F11416   3.936   3.829   8.954 -0.6348 -0.2275  1.0080
  110OSM   H18G11417   4.018   3.729   9.083 -0.8971 -0.4399 -1.2031
  110OSM   H18H11418   4.103   3.765   8.926  0.7377  2.5934 -1.0449
  111OSM      N11419   6.702   3.788  10.872 -0.2797  0.0030 -0.5380
  111OSM    C1511420   6.830   3.862  10.868  0.7969  0.1997 -0.5793
  111OSM   H15A11421   6.870   3.858  10.768  0.2184 -1.1492 -0.7841
  111OSM   H15B11422   6.894   3.820  10.945 -0.3249  0.6058  0.6117
  111OSM   H15C11423   6.806   3.964  10.895  0.8001  0.3470 -1.1209
  111OSM    C1411424   6.650   3.787  11.014 -0.2172  0.5874 -0.1187
  111OSM   H14A11425   6.718   3.736  11.080  0.7523  1.5283 -0.3604
  111OSM   H14B11426   6.552   3.743  11.027 -1.4106  3.1236  0.3017
  111OSM   H14C11427   6.651   3.890  11.047 -0.0941  0.6312 -0.2571
  111OSM    C1311428   6.606   3.856  10.793  0.0754  0.3909  0.3713
  111OSM   H13A11429   6.642   3.875  10.693  2.4968 -0.8311  0.9368
  111OSM   H13B11430   6.593   3.952  10.840 -0.8601  0.2457  0.4251
  111OSM   H13C11431   6.507   3.814  10.782 -0.1986  1.5979 -2.5526
  111OSM    C1211432   6.729   3.645  10.828  0.0238  0.5829 -0.4100
  111OSM   H12A11433   6.655   3.587  10.881  1.3295  1.7482  2.9927
  111OSM   H12B11434   6.817   3.615  10.884  0.0603  4.1332  1.7560
  111OSM    C1111435   6.726   3.614  10.673 -0.3149  0.3595 -0.1992
  111OSM   H11A11436   6.780   3.693  10.616  0.6320 -0.5784 -0.6313
  111OSM   H11B11437   6.616   3.610  10.661 -0.5353 -2.4738  1.7252
  111OSM      P11438   6.920   3.445  10.634 -0.3018 -0.1098 -0.1975
  111OSM    O1311439   6.990   3.546  10.553  0.0043 -0.0408  0.0482
  111OSM    O1411440   6.970   3.413  10.768  0.2131  0.0791  0.1205
  111OSM    O1111441   6.920   3.312  10.542  0.5204  0.4308  0.0192
  111OSM    O1211442   6.765   3.481  10.645 -0.4332  0.8989 -0.4683
  111OSM    C1S11443   6.884   3.332  10.404  0.4989  0.2712 -0.2404
  111OSM    H1S11444   6.817   3.417  10.381 -0.9953 -0.1788  2.0146
  111OSM    H1T11445   6.811   3.256  10.367 -1.7152  1.9641  0.4756
  111OSM     NF11446   6.965   3.343  10.169 -0.4579  0.3844  0.6373
  111OSM    HNF11447   6.952   3.259  10.116  1.6755  0.8753 -0.7987
  111OSM    C2S11448   7.010   3.328  10.310  0.2268  0.3611 -0.2476
  111OSM    H2S11449   7.067   3.422  10.326  0.9666 -0.0301 -0.5192
  111OSM    C3S11450   7.092   3.208  10.347 -0.4769  0.3718  0.3181
  111OSM    H3S11451   7.028   3.125  10.385 -0.3587 -0.1529 -0.6095
  111OSM     O311452   7.183   3.238  10.448 -0.4757  0.2099  0.0796
  111OSM    HO311453   7.147   3.324  10.472 -1.0835  0.4862 -1.6645
  111OSM    C4S11454   7.158   3.146  10.221 -0.2924  0.5179  0.6247
  111OSM    H4S11455   7.083   3.078  10.177  1.2570  0.3301 -1.9627
  111OSM    C5S11456   7.285   3.149  10.173 -0.0156 -1.2413 -0.0085
  111OSM    H5S11457   7.364   3.210  10.222  0.7508 -2.7319  0.6795
  111OSM    C6S11458   7.345   3.080  10.054  0.3429  0.3870  0.0982
  111OSM    H6S11459   7.280   3.003  10.006  1.5038 -0.9364  0.5710
  111OSM    H6T11460   7.430   3.016  10.086  1.4061  0.2455 -2.7330
  111OSM    C7S11461   7.396   3.175   9.952  0.5614  0.0825 -0.8081
  111OSM    H7S11462   7.475   3.239   9.997  1.5726 -1.1122 -0.8132
  111OSM    H7T11463   7.322   3.251   9.923  0.6480 -0.4084 -2.4071
  111OSM    C8S11464   7.459   3.108   9.826  0.0869 -0.4138  0.1126
  111OSM    H8S11465   7.528   3.027   9.856  0.4131 -0.5141 -0.8829
  111OSM    H8T11466   7.533   3.182   9.788  0.2804 -0.8347 -0.3322
  111OSM    C9S11467   7.357   3.057   9.726 -0.2864 -0.9310  0.1186
  111OSM    H9S11468   7.280   3.135   9.712  0.6175  0.4763  2.4528
  111OSM    H9T11469   7.309   2.968   9.772  1.8842 -2.3719 -0.2152
  111OSM   C10S11470   7.427   3.015   9.595  0.2115  0.3811  0.1262
  111OSM   H10S11471   7.499   2.933   9.610 -2.0886 -1.3018  3.2190
  111OSM   H10T11472   7.461   3.116   9.563  1.0472 -1.0701 -4.3249
  111OSM   C11S11473   7.321   2.960   9.501  0.8730 -0.4670  0.2816
  111OSM   H11S11474   7.233   3.028   9.495  0.7264 -0.3254  3.0489
  111OSM   H11T11475   7.278   2.861   9.526  0.3301 -0.0048  1.2722
  111OSM   C12S11476   7.389   2.942   9.368 -0.1365 -0.0692 -0.2242
  111OSM   H12S11477   7.456   2.854   9.377  1.1303  0.9463  0.7105
  111OSM   H12T11478   7.451   3.026   9.330 -2.3774  3.0013  2.3047
  111OSM   C13S11479   7.293   2.912   9.256  0.0523  0.2897 -0.0923
  111OSM   H13S11480   7.249   3.009   9.224 -1.1518 -0.0943  0.3481
  111OSM   H13T11481   7.216   2.847   9.302  0.9588  1.4792  3.4614
  111OSM   C14S11482   7.360   2.836   9.142 -0.0892  0.2243 -0.4389
  111OSM   H14S11483   7.410   2.744   9.176  0.1965 -0.1538 -1.8246
  111OSM   H14T11484   7.443   2.894   9.097  0.4446 -0.1407  0.0662
  111OSM   C15S11485   7.253   2.794   9.033 -0.2451 -0.3056 -0.8430
  111OSM   H15S11486   7.202   2.890   9.008  0.6292  0.6878  0.9575
  111OSM   H15T11487   7.180   2.727   9.083 -1.3850  1.4680 -0.0231
  111OSM   C16S11488   7.317   2.731   8.903 -0.1468  0.1693  0.2914
  111OSM   H16S11489   7.385   2.804   8.854 -0.4023 -0.7788 -1.5562
  111OSM   H16T11490   7.230   2.710   8.838  0.7988 -0.5838 -0.7684
  111OSM   C17S11491   7.389   2.596   8.929 -0.1032 -0.1077 -0.9070
  111OSM   H17S11492   7.324   2.534   8.995 -2.2698  1.3345 -1.5765
  111OSM   H17T11493   7.488   2.609   8.978  1.1203  0.7854 -3.4532
  111OSM   C18S11494   7.400   2.509   8.804 -0.4808  0.0062 -0.2273
  111OSM   H18S11495   7.479   2.552   8.738  0.6848  0.9834  1.7122
  111OSM   H18T11496   7.303   2.503   8.751 -0.2484 -0.5548 -0.5970
  111OSM   H18U11497   7.422   2.402   8.821  0.8067  0.2125 -0.4743
  111OSM    C1F11498   6.916   3.459  10.118 -0.0705 -0.2880  1.0126
  111OSM     OF11499   6.910   3.568  10.173  0.7076 -0.3651  0.2668
  111OSM    C2F11500   6.877   3.452   9.971 -0.2391 -0.6296 -0.4588
  111OSM    H2F11501   6.841   3.349   9.950 -0.0568 -1.1528  1.6220
  111OSM    H2G11502   6.968   3.476   9.911 -1.4571 -1.1405 -2.6034
  111OSM    C3F11503   6.762   3.559   9.941  0.1643 -0.2079  0.2833
  111OSM    H3F11504   6.815   3.654   9.965 -0.3705 -0.3254  2.0820
  111OSM    H3G11505   6.675   3.533  10.006 -2.2422 -1.4968 -3.1806
  111OSM    C4F11506   6.699   3.550   9.796 -0.4489  0.4239  0.6303
  111OSM    H4F11507   6.641   3.644   9.781  0.0042  0.6923  0.5030
  111OSM    H4G11508   6.634   3.461   9.792 -0.5619  0.5183 -2.4274
  111OSM    C5F11509   6.810   3.534   9.682  0.4693  0.2795 -0.4013
  111OSM    H5F11510   6.843   3.429   9.696 -0.8302  0.1290  2.1164
  111OSM    H5G11511   6.898   3.601   9.694  3.5215 -3.4506  0.1541
  111OSM    C6F11512   6.751   3.556   9.540 -0.0212 -0.2211 -0.2775
  111OSM    H6F11513   6.718   3.662   9.543 -0.2136 -0.2635 -0.8934
  111OSM    H6G11514   6.665   3.488   9.525  1.3717 -1.8662 -1.1994
  111OSM    C7F11515   6.858   3.509   9.444 -0.5857 -0.9986  0.7054
  111OSM    H7F11516   6.868   3.401   9.468 -2.2948 -1.0297  1.4404
  111OSM    H7G11517   6.951   3.565   9.469  1.9895 -2.5922 -4.0508
  111OSM    C8F11518   6.828   3.536   9.297  0.0070 -0.5663 -0.2197
  111OSM    H8F11519   6.922   3.497   9.253  0.6704 -1.5265  1.8791
  111OSM    H8G11520   6.817   3.644   9.274  1.7872 -0.2543  0.1997
  111OSM    C9F11521   6.711   3.456   9.257 -0.0574  0.1958 -0.0325
  111OSM    H9F11522   6.678   3.385   9.335  1.0142  0.0635  0.3153
  111OSM   C10F11523   6.650   3.455   9.136  0.2651 -0.3561  0.0334
  111OSM   H10F11524   6.575   3.376   9.121  2.2002 -2.2999 -0.0128
  111OSM   C11F11525   6.689   3.528   9.012  0.3111 -0.8628 -0.2508
  111OSM   H11F11526   6.750   3.617   9.041  1.3488 -2.4141  2.7413
  111OSM   H11G11527   6.593   3.562   8.967  1.0751 -3.1894 -4.1345
  111OSM   C12F11528   6.764   3.439   8.909  0.1184  0.3829  0.8419
  111OSM   H12F11529   6.692   3.364   8.868 -0.2783  0.1106  2.0126
  111OSM   H12G11530   6.851   3.389   8.957 -1.0369 -0.5514  2.0365
  111OSM   C13F11531   6.814   3.507   8.779 -0.0493  0.3689 -0.2837
  111OSM   H13F11532   6.872   3.597   8.807  4.6031 -1.5996 -2.3925
  111OSM   H13G11533   6.727   3.526   8.714 -0.5270 -0.3805  0.1122
  111OSM   C14F11534   6.905   3.412   8.696  0.3120  0.2107 -0.2547
  111OSM   H14F11535   6.861   3.310   8.686  2.2435 -0.5741 -1.0897
  111OSM   H14G11536   7.001   3.391   8.748  0.0575  1.1328  0.6279
  111OSM   C15F11537   6.935   3.462   8.551 -0.3182  0.0423 -0.5222
  111OSM   H15F11538   6.956   3.570   8.567  0.0795 -0.2578  1.2163
  111OSM   H15G11539   6.841   3.463   8.492 -1.0425  0.4177  0.6003
  111OSM   C16F11540   7.034   3.386   8.482  0.4702  0.8283 -0.2001
  111OSM   H16F11541   7.087   3.315   8.549 -1.5155 -1.3251 -0.7540
  111OSM   H16G11542   7.096   3.457   8.422  0.1441  0.9684 -0.3734
  111OSM   C17F11543   6.968   3.300   8.363  0.0670 -0.5328 -0.4395
  111OSM   H17F11544   7.058   3.261   8.310 -0.7651 -1.8814 -0.9074
  111OSM   H17G11545   6.922   3.378   8.298  0.2745 -1.2250 -1.4538
  111OSM   C18F11546   6.870   3.189   8.399 -1.1688  0.4512  0.1030
  111OSM   H18F11547   6.834   3.133   8.310 -0.9959  1.4889 -0.6361
  111OSM   H18G11548   6.779   3.215   8.457 -2.6978 -0.3913 -1.8088
  111OSM   H18H11549   6.931   3.116   8.456  0.5868  2.3220  0.7385
  112OSM      N11550   5.348   6.605  11.007 -0.2390 -0.5838  0.7762
  112OSM    C1511551   5.297   6.708  10.910  0.4082 -0.3328  0.2848
  112OSM   H15A11552   5.381   6.762  10.871  0.9699 -1.4802 -0.1519
  112OSM   H15B11553   5.244   6.781  10.969  0.1659  1.6608 -2.2431
  112OSM   H15C11554   5.226   6.678  10.834  1.2087  0.8567 -0.9799
  112OSM    C1411555   5.446   6.517  10.939 -0.2970 -0.9064 -0.2552
  112OSM   H14A11556   5.466   6.429  10.999 -0.5364 -4.0559 -4.3555
  112OSM   H14B11557   5.541   6.565  10.923 -1.4358  0.6434 -2.9740
  112OSM   H14C11558   5.399   6.473  10.852 -1.0905 -0.8824  0.1469
  112OSM    C1311559   5.425   6.683  11.107  0.2741  0.7791  0.0971
  112OSM   H13A11560   5.349   6.737  11.162 -0.1058  1.2448 -0.8690
  112OSM   H13B11561   5.492   6.756  11.066 -0.5208  0.8691 -1.1035
  112OSM   H13C11562   5.486   6.623  11.173  1.5018  0.9799 -0.8280
  112OSM    C1211563   5.221   6.525  11.060 -0.4001  0.0819 -0.1131
  112OSM   H12A11564   5.153   6.601  11.095  1.8690  3.0461 -1.6120
  112OSM   H12B11565   5.252   6.461  11.141 -1.0146  0.4126  0.3895
  112OSM    C1111566   5.150   6.427  10.957  0.0283  0.2748 -0.8864
  112OSM   H11A11567   5.075   6.363  11.008  0.4694  1.2931  1.1073
  112OSM   H11B11568   5.233   6.356  10.933 -1.2489 -1.9167  0.8577
  112OSM      P11569   4.956   6.549  10.826 -0.5356 -0.4700 -0.0949
  112OSM    O1311570   4.874   6.488  10.933  0.3730 -0.2178 -0.6430
  112OSM    O1411571   4.967   6.699  10.825  0.1032 -0.2255 -0.3877
  112OSM    O1111572   4.902   6.506  10.683  0.1157  0.1577 -0.4544
  112OSM    O1211573   5.101   6.483  10.834  0.1709  0.3786  0.0560
  112OSM    C1S11574   4.920   6.368  10.633 -0.1636 -0.1573  0.4855
  112OSM    H1S11575   4.827   6.309  10.642  1.5509 -3.3687 -1.2931
  112OSM    H1T11576   5.008   6.328  10.687  0.9412  1.8577  0.2951
  112OSM     NF11577   4.951   6.228  10.419  0.0784 -0.2962  0.0431
  112OSM    HNF11578   5.038   6.184  10.399  0.2762  1.1562 -2.8920
  112OSM    C2S11579   4.952   6.361  10.478 -0.4904 -0.0634  0.5559
  112OSM    H2S11580   4.873   6.420  10.427 -1.0570 -1.0189  0.2900
  112OSM    C3S11581   5.080   6.451  10.450  0.5604 -0.2871  0.5877
  112OSM    H3S11582   5.160   6.415  10.519 -0.6316 -3.4513  0.4648
  112OSM     O311583   5.057   6.591  10.479  0.3107  0.1545  0.3188
  112OSM    HO311584   4.997   6.581  10.554  0.5127 -0.5455  0.3929
  112OSM    C4S11585   5.128   6.431  10.307 -0.3984 -0.2671 -0.0517
  112OSM    H4S11586   5.052   6.454  10.232  1.0119  1.6070 -0.9824
  112OSM    C5S11587   5.253   6.394  10.274  0.1782 -0.2106  0.3539
  112OSM    H5S11588   5.335   6.394  10.348  1.3942 -0.9790 -0.9400
  112OSM    C6S11589   5.306   6.376  10.141  0.0090  0.0945 -0.5863
  112OSM    H6S11590   5.297   6.271  10.105  0.1453  0.1469 -0.7747
  112OSM    H6T11591   5.408   6.418  10.131 -0.4346  0.8693 -2.3228
  112OSM    C7S11592   5.229   6.455  10.038 -0.1823  0.0385  0.1936
  112OSM    H7S11593   5.220   6.559  10.077  0.1589  0.7644 -1.5554
  112OSM    H7T11594   5.127   6.414  10.021 -0.9272  1.1362  1.7043
  112OSM    C8S11595   5.288   6.446   9.896 -0.6451  0.4900 -0.5780
  112OSM    H8S11596   5.280   6.341   9.863 -2.0934  0.7275 -1.0576
  112OSM    H8T11597   5.391   6.485   9.910 -0.8135  0.4720  0.8520
  112OSM    C9S11598   5.206   6.525   9.796 -0.7711  0.0831  0.2784
  112OSM    H9S11599   5.232   6.633   9.804  1.0506 -0.3158  0.2478
  112OSM    H9T11600   5.096   6.519   9.809 -0.9228  1.7791  0.0241
  112OSM   C10S11601   5.233   6.478   9.655 -0.2047  0.4632 -0.0497
  112OSM   H10S11602   5.191   6.375   9.648  1.6104 -0.3982  1.1587
  112OSM   H10T11603   5.340   6.487   9.629 -0.5599 -2.2793 -3.0828
  112OSM   C11S11604   5.158   6.557   9.552 -0.2796 -0.3330 -0.3128
  112OSM   H11S11605   5.180   6.664   9.573 -1.2438  0.2065 -1.8876
  112OSM   H11T11606   5.049   6.537   9.557 -0.5169 -0.4807 -3.7019
  112OSM   C12S11607   5.206   6.533   9.412  0.2342  0.7215  0.0096
  112OSM   H12S11608   5.237   6.426   9.409 -0.1234  0.6201 -0.1764
  112OSM   H12T11609   5.290   6.602   9.390  1.3887  0.7768  3.8787
  112OSM   C13S11610   5.093   6.549   9.313  0.3564  0.2093  0.5489
  112OSM   H13S11611   4.993   6.541   9.360  1.3042 -1.3908  2.4041
  112OSM   H13T11612   5.105   6.478   9.228 -0.3578 -0.8555  1.3281
  112OSM   C14S11613   5.086   6.693   9.253 -0.7575 -0.4511 -0.4457
  112OSM   H14S11614   5.183   6.729   9.212  0.3253  1.0791  3.0851
  112OSM   H14T11615   5.055   6.759   9.337 -1.6283 -0.3017 -0.8727
  112OSM   C15S11616   4.985   6.713   9.135 -0.5711  0.2549  0.2102
  112OSM   H15S11617   4.962   6.820   9.116  0.8563  0.3394 -1.2346
  112OSM   H15T11618   4.893   6.653   9.153  0.5664 -1.0427  2.1048
  112OSM   C16S11619   5.034   6.674   9.004  0.0473  0.0911  0.9019
  112OSM   H16S11620   5.049   6.564   9.000  1.6183  0.3202 -1.8751
  112OSM   H16T11621   5.136   6.710   8.981  0.2646 -0.4634  0.9737
  112OSM   C17S11622   4.940   6.716   8.886  0.8271  0.3439  0.0155
  112OSM   H17S11623   4.953   6.825   8.873 -0.6365  0.2392 -3.0577
  112OSM   H17T11624   4.833   6.722   8.917  0.9029  0.2028  0.3125
  112OSM   C18S11625   4.963   6.650   8.750 -0.2766  0.1288 -0.3461
  112OSM   H18S11626   5.070   6.667   8.727 -0.4020  0.4810 -0.6723
  112OSM   H18T11627   4.904   6.688   8.664  1.4006  0.1108 -1.5508
  112OSM   H18U11628   4.947   6.540   8.755  2.2898 -0.2937 -0.1241
  112OSM    C1F11629   4.846   6.151  10.408 -0.1673 -0.1572  0.3458
  112OSM     OF11630   4.733   6.193  10.419  0.1412 -0.3410 -0.3240
  112OSM    C2F11631   4.867   6.009  10.387  0.9202  0.4809  0.1881
  112OSM    H2F11632   4.778   5.964  10.339  2.7698 -2.5400 -0.6824
  112OSM    H2G11633   4.895   5.956  10.481  0.2790 -0.8342 -0.3469
  112OSM    C3F11634   4.978   5.972  10.291 -0.5251  0.0759 -1.0295
  112OSM    H3F11635   4.974   5.863  10.273  2.2629 -0.1124 -0.9415
  112OSM    H3G11636   5.071   5.974  10.351 -0.7098 -0.7206 -0.7068
  112OSM    C4F11637   4.987   6.045  10.154 -0.1130  0.1726  0.2293
  112OSM    H4F11638   5.009   6.154  10.165  2.2929 -0.1713 -0.5777
  112OSM    H4G11639   4.886   6.044  10.107 -0.2169  1.6387  0.3489
  112OSM    C5F11640   5.083   5.984  10.055  1.0065  0.6296 -0.4496
  112OSM    H5F11641   5.033   5.888  10.030 -0.9510  1.5938 -0.4273
  112OSM    H5G11642   5.183   5.971  10.101  0.0459 -1.9501  1.1778
  112OSM    C6F11643   5.101   6.061   9.924 -0.3743  0.2345 -0.2242
  112OSM    H6F11644   5.126   6.168   9.941  1.1152 -0.3491  1.6621
  112OSM    H6G11645   5.007   6.057   9.866 -1.7611 -1.2388  1.9945
  112OSM    C7F11646   5.201   5.986   9.832  0.0151 -0.7780  0.6509
  112OSM    H7F11647   5.173   5.878   9.829 -1.6517 -0.3808  0.8478
  112OSM    H7G11648   5.297   6.002   9.886 -0.0703  0.2670  0.4991
  112OSM    C8F11649   5.209   6.042   9.680  0.4829 -0.0284 -0.8819
  112OSM    H8F11650   5.318   6.035   9.659  0.5670 -0.7345 -0.2643
  112OSM    H8G11651   5.179   6.150   9.682  1.2215  0.1756 -0.3746
  112OSM    C9F11652   5.131   5.963   9.578  0.5700  0.1227  0.1674
  112OSM    H9F11653   5.029   5.935   9.606  0.8869 -0.6508  0.5881
  112OSM   C10F11654   5.163   5.933   9.451 -0.2611 -0.1882 -0.2723
  112OSM   H10F11655   5.081   5.886   9.394 -0.5035  1.1176 -1.0490
  112OSM   C11F11656   5.291   5.965   9.370  0.0483 -0.3818 -0.4669
  112OSM   H11F11657   5.358   5.877   9.357  2.1990  1.0651  0.3753
  112OSM   H11G11658   5.362   6.031   9.423  1.2690 -1.9461 -0.0697
  112OSM   C12F11659   5.257   6.033   9.235  0.5945 -0.1723  0.3826
  112OSM   H12F11660   5.173   6.106   9.237  0.4377 -0.3610  1.4361
  112OSM   H12G11661   5.207   5.969   9.159  1.0018  0.0873 -0.1080
  112OSM   C13F11662   5.374   6.097   9.166  0.0142  0.3665  0.4120
  112OSM   H13F11663   5.429   6.162   9.237  1.2013  0.3209 -0.4323
  112OSM   H13G11664   5.338   6.164   9.085 -0.8692  0.1994  0.6598
  112OSM   C14F11665   5.485   6.001   9.116  0.5843  0.4748 -0.0711
  112OSM   H14F11666   5.523   5.936   9.197 -1.3084 -1.3361 -0.5548
  112OSM   H14G11667   5.562   6.066   9.069  1.2358 -0.7225 -0.7057
  112OSM   C15F11668   5.427   5.912   8.998  0.0699  0.9530  0.2195
  112OSM   H15F11669   5.375   5.980   8.928 -0.6412  1.0069  0.7774
  112OSM   H15G11670   5.346   5.845   9.036  1.5381  0.9110  3.6947
  112OSM   C16F11671   5.537   5.824   8.928  0.5787 -0.2970 -0.3890
  112OSM   H16F11672   5.589   5.762   9.005  2.0301  1.0753 -0.2152
  112OSM   H16G11673   5.615   5.890   8.885  1.0777  0.2154  1.2252
  112OSM   C17F11674   5.483   5.729   8.814 -0.3762 -0.0429 -0.4421
  112OSM   H17F11675   5.386   5.683   8.843 -0.1054 -1.2380 -1.3703
  112OSM   H17G11676   5.555   5.644   8.810  0.6779  0.8007  0.0679
  112OSM   C18F11677   5.483   5.791   8.673  0.3963  0.1049 -0.5931
  112OSM   H18F11678   5.412   5.877   8.674  0.6807  0.6284  4.5503
  112OSM   H18G11679   5.462   5.711   8.600 -0.3528 -1.9105  1.6885
  112OSM   H18H11680   5.583   5.834   8.651  0.5441  0.4113  0.6054
  113OSM      N11681   6.132   6.632  10.959 -0.6058  0.3805  0.3161
  113OSM    C1511682   6.026   6.557  11.042 -0.5890 -0.1772 -0.5886
  113OSM   H15A11683   6.076   6.489  11.109 -0.1118  0.0961 -0.6598
  113OSM   H15B11684   5.964   6.500  10.976  0.2597 -0.6954 -0.9554
  113OSM   H15C11685   5.964   6.632  11.089 -1.1139 -0.8455 -0.1946
  113OSM    C1411686   6.065   6.721  10.871 -0.1815 -1.1634 -0.0856
  113OSM   H14A11687   6.009   6.796  10.925 -0.3781 -1.4086  0.0520
  113OSM   H14B11688   5.988   6.679  10.808 -0.8499 -1.9017  1.1922
  113OSM   H14C11689   6.135   6.761  10.799  0.5660  1.1111  1.7841
  113OSM    C1311690   6.213   6.705  11.056 -0.1130  0.4368  0.0755
  113OSM   H13A11691   6.149   6.763  11.120 -0.0217 -0.3228  0.8639
  113OSM   H13B11692   6.263   6.786  11.005 -0.5557  0.1322 -0.8739
  113OSM   H13C11693   6.277   6.646  11.119 -0.3243 -0.3530 -0.4360
  113OSM    C1211694   6.218   6.532  10.884 -0.3087 -0.3492  0.4244
  113OSM   H12A11695   6.254   6.469  10.964 -1.4117 -2.7011 -0.8159
  113OSM   H12B11696   6.301   6.589  10.843  0.7678 -1.2914  1.2189
  113OSM    C1111697   6.145   6.436  10.786  0.6122  0.0750  0.5104
  113OSM   H11A11698   6.218   6.362  10.746 -0.1981 -0.2613 -0.3843
  113OSM   H11B11699   6.111   6.496  10.698  0.0023 -0.9408  0.0365
  113OSM      P11700   6.014   6.222  10.872 -0.4713  0.0430 -0.0631
  113OSM    O1311701   6.138   6.174  10.940  0.1888  0.2359 -0.4842
  113OSM    O1411702   5.882   6.202  10.947 -0.1365 -0.0904 -0.0923
  113OSM    O1111703   5.997   6.156  10.736 -0.1642 -0.4325  0.5213
  113OSM    O1211704   6.028   6.374  10.842  0.0897  0.2699  0.2036
  113OSM    C1S11705   6.006   6.014  10.710  0.0735  0.2158  0.3400
  113OSM    H1S11706   5.922   5.964  10.763  0.1807 -1.8681 -1.3511
  113OSM    H1T11707   6.101   5.979  10.755  0.2538  0.8495  0.4640
  113OSM     NF11708   5.996   5.832  10.539  0.4090  0.0302 -0.4280
  113OSM    HNF11709   6.068   5.791  10.483  0.9459  0.3263  0.0389
  113OSM    C2S11710   5.993   5.974  10.559  0.0409 -0.9673 -0.1810
  113OSM    H2S11711   5.896   6.021  10.532  0.9903  0.4131 -1.3484
  113OSM    C3S11712   6.101   6.049  10.473  0.2919  0.4813 -0.1490
  113OSM    H3S11713   6.195   6.020  10.524  0.1057  0.2512  0.0628
  113OSM     O311714   6.105   6.192  10.484 -0.3351 -0.4654 -0.0288
  113OSM    HO311715   6.070   6.208  10.571  1.0749  1.0615  0.3081
  113OSM    C4S11716   6.074   6.001  10.331  0.3987  0.2217  0.5584
  113OSM    H4S11717   6.130   5.909  10.306  4.3269  2.6495 -0.4316
  113OSM    C5S11718   5.985   6.060  10.243 -0.7516  0.7136  0.6140
  113OSM    H5S11719   5.927   6.151  10.264 -0.2453  1.1359  0.1701
  113OSM    C6S11720   5.944   6.011  10.104 -0.2188 -0.4671 -0.1685
  113OSM    H6S11721   5.996   6.057  10.017 -0.0006 -0.5757 -0.0962
  113OSM    H6T11722   5.833   6.016  10.098 -0.2870 -2.2560 -0.8123
  113OSM    C7S11723   5.989   5.861  10.084 -0.0742 -0.5114 -0.0483
  113OSM    H7S11724   5.924   5.792  10.142 -0.3219  0.0207  0.3179
  113OSM    H7T11725   6.095   5.853  10.116  0.4734 -0.2302 -1.7081
  113OSM    C8S11726   5.984   5.824   9.932  0.2899  0.3699 -0.6901
  113OSM    H8S11727   6.027   5.916   9.886 -1.8044  1.0679 -1.3683
  113OSM    H8T11728   5.877   5.808   9.907  0.7160  1.7559 -3.8681
  113OSM    C9S11729   6.078   5.715   9.891 -0.3236 -0.6832  0.6604
  113OSM    H9S11730   6.038   5.615   9.919  0.7599 -1.6964 -1.1721
  113OSM    H9T11731   6.174   5.745   9.937 -0.6918  2.3447 -0.3523
  113OSM   C10S11732   6.104   5.718   9.738  0.2898 -0.0756  0.1946
  113OSM   H10S11733   6.189   5.650   9.713  1.8261 -0.1450  4.5823
  113OSM   H10T11734   6.133   5.821   9.707 -0.2664  0.1598  0.4554
  113OSM   C11S11735   5.979   5.670   9.650 -0.5343 -0.1903  0.0542
  113OSM   H11S11736   5.994   5.670   9.540  2.9819 -0.1202  0.4380
  113OSM   H11T11737   5.900   5.744   9.679 -1.9998 -2.2455  1.6289
  113OSM   C12S11738   5.929   5.539   9.698 -0.8967  0.2398 -0.0611
  113OSM   H12S11739   5.846   5.497   9.637 -0.8132  1.0781 -0.7570
  113OSM   H12T11740   5.894   5.565   9.800 -0.4510 -0.4756  0.2878
  113OSM   C13S11741   6.036   5.421   9.705  0.7428 -0.6964  0.3886
  113OSM   H13S11742   5.984   5.346   9.768 -0.0171 -0.2030  0.3585
  113OSM   H13T11743   6.124   5.457   9.763  0.4423 -1.1646  1.1533
  113OSM   C14S11744   6.069   5.356   9.567 -0.9120 -0.0444 -0.1143
  113OSM   H14S11745   6.157   5.287   9.571  0.8270  2.0434 -0.3130
  113OSM   H14T11746   6.110   5.437   9.503  0.0086  1.1618  1.9049
  113OSM   C15S11747   5.948   5.278   9.500 -0.3158 -0.2882  0.3302
  113OSM   H15S11748   5.877   5.357   9.466  0.6018 -0.0725 -1.2116
  113OSM   H15T11749   5.894   5.217   9.576 -1.1200 -1.0570 -0.8329
  113OSM   C16S11750   5.976   5.188   9.376  0.4067 -1.1335  0.1060
  113OSM   H16S11751   5.878   5.146   9.344  0.7163 -1.9004  0.1615
  113OSM   H16T11752   6.038   5.103   9.411 -0.0143 -1.0246  1.1949
  113OSM   C17S11753   6.058   5.259   9.262 -0.3496  0.0643 -0.6745
  113OSM   H17S11754   6.083   5.188   9.180  0.3363  1.8806 -2.0865
  113OSM   H17T11755   6.145   5.302   9.316 -1.1307 -0.2039  0.8712
  113OSM   C18S11756   5.979   5.369   9.192  0.0084 -0.3435  0.3896
  113OSM   H18S11757   5.870   5.352   9.179  0.0846  0.8141 -2.7104
  113OSM   H18T11758   6.018   5.365   9.088  2.6016 -0.7725  1.2966
  113OSM   H18U11759   5.992   5.470   9.236 -1.6314  0.6482 -1.2500
  113OSM    C1F11760   5.906   5.749  10.593 -0.1903 -1.2938 -0.1240
  113OSM     OF11761   5.796   5.784  10.634  0.0769 -0.1822 -0.8452
  113OSM    C2F11762   5.940   5.606  10.588  0.0577 -0.1723  0.9176
  113OSM    H2F11763   5.939   5.565  10.691  0.4819 -1.7024  0.3444
  113OSM    H2G11764   6.045   5.586  10.559  0.3797  0.4108  1.6467
  113OSM    C3F11765   5.833   5.540  10.507  0.5565 -0.7204 -0.4160
  113OSM    H3F11766   5.729   5.552  10.546 -0.8558 -1.4209 -3.6088
  113OSM    H3G11767   5.854   5.432  10.519 -0.5221 -0.7766  1.3070
  113OSM    C4F11768   5.847   5.566  10.354  0.0970 -0.1017  0.0552
  113OSM    H4F11769   5.879   5.670  10.331  0.1881  0.0825  0.9840
  113OSM    H4G11770   5.750   5.536  10.308  0.1275 -0.9686  0.5416
  113OSM    C5F11771   5.952   5.469  10.305  0.1164 -0.1889 -0.9388
  113OSM    H5F11772   5.918   5.366  10.330  0.6791  0.1202  1.4303
  113OSM    H5G11773   6.043   5.479  10.369 -2.2296 -0.4675  2.7825
  113OSM    C6F11774   5.968   5.480  10.157 -0.1989 -0.2647 -0.1983
  113OSM    H6F11775   6.073   5.512  10.138  0.7041 -3.8846 -2.3714
  113OSM    H6G11776   5.906   5.565  10.121  1.2671  0.5982 -0.8095
  113OSM    C7F11777   5.923   5.348  10.086  0.3926 -0.2526 -0.0816
  113OSM    H7F11778   5.974   5.255  10.120 -2.6069 -1.7322  0.7067
  113OSM    H7G11779   5.952   5.337   9.980 -2.8231 -2.0082 -0.9163
  113OSM    C8F11780   5.775   5.321  10.090  0.2816  0.4432 -0.2454
  113OSM    H8F11781   5.744   5.316  10.197 -0.5220  1.6668 -0.3955
  113OSM    H8G11782   5.761   5.219  10.049  2.6518 -0.1025  0.1891
  113OSM    C9F11783   5.708   5.432  10.010 -0.0061 -0.2227  0.4776
  113OSM    H9F11784   5.733   5.537  10.028  0.5449 -0.2939  0.1415
  113OSM   C10F11785   5.609   5.415   9.913 -0.4756 -0.5425 -0.9123
  113OSM   H10F11786   5.565   5.504   9.866 -2.5109 -0.2179  1.4307
  113OSM   C11F11787   5.549   5.284   9.879 -0.4329 -0.1305  0.1566
  113OSM   H11F11788   5.443   5.287   9.912 -0.4765  3.0170  0.0062
  113OSM   H11G11789   5.599   5.195   9.925  1.0423 -0.2604 -1.6080
  113OSM   C12F11790   5.549   5.258   9.727 -0.0930 -0.0920 -0.2173
  113OSM   H12F11791   5.524   5.152   9.709  1.4899 -0.7361  1.1370
  113OSM   H12G11792   5.650   5.281   9.685  0.6741  0.4838  1.8170
  113OSM   C13F11793   5.457   5.346   9.649  0.4026  0.6300  0.1470
  113OSM   H13F11794   5.485   5.451   9.674  1.3674  0.7301 -1.2242
  113OSM   H13G11795   5.349   5.329   9.671  0.2389  0.9207 -0.4145
  113OSM   C14F11796   5.477   5.332   9.496 -0.7184  0.4258 -0.5347
  113OSM   H14F11797   5.449   5.229   9.467  1.4584 -0.3985  0.0271
  113OSM   H14G11798   5.587   5.331   9.479 -0.1426  1.1285  2.5360
  113OSM   C15F11799   5.404   5.439   9.417 -0.1546 -0.0711  0.7756
  113OSM   H15F11800   5.435   5.539   9.455  0.5169 -0.2227  0.6501
  113OSM   H15G11801   5.301   5.410   9.447 -0.3549  0.9011  1.0559
  113OSM   C16F11802   5.423   5.429   9.260  0.2612  0.3964 -0.5485
  113OSM   H16F11803   5.328   5.451   9.206 -0.2127 -1.2960 -0.4715
  113OSM   H16G11804   5.449   5.324   9.233 -0.2649  0.3424 -0.8726
  113OSM   C17F11805   5.547   5.513   9.210  0.7517  0.0271  0.4238
  113OSM   H17F11806   5.627   5.506   9.287  1.9081  2.0856 -0.5086
  113OSM   H17G11807   5.520   5.620   9.201  0.2257 -0.1758 -0.4956
  113OSM   C18F11808   5.604   5.462   9.069  0.2786  0.0463  0.2480
  113OSM   H18F11809   5.681   5.537   9.042  0.2281  0.2682  0.7152
  113OSM   H18G11810   5.522   5.467   8.995 -0.8197  0.1318  1.4401
  113OSM   H18H11811   5.638   5.356   9.070 -0.2194 -0.2785 -3.6483
  114OSM      N11812   0.474   5.532  11.513 -0.4351 -0.6602 -0.2411
  114OSM    C1511813   0.488   5.683  11.519  0.7969 -0.0452 -0.1838
  114OSM   H15A11814   0.412   5.737  11.464  0.9164  1.9576  1.4780
  114OSM   H15B11815   0.573   5.701  11.456 -0.1687 -0.5888 -1.7022
  114OSM   H15C11816   0.496   5.714  11.622  4.0685  0.5971 -0.5319
  114OSM    C1411817   0.597   5.460  11.562  0.2805 -0.0554  0.4640
  114OSM   H14A11818   0.625   5.507  11.656 -1.8775 -0.6812  1.4963
  114OSM   H14B11819   0.682   5.472  11.498  0.4946 -0.6950  0.6271
  114OSM   H14C11820   0.570   5.357  11.583 -1.0323  0.2345  0.3044
  114OSM    C1311821   0.366   5.498  11.616  0.2098  0.3410 -0.1261
  114OSM   H13A11822   0.410   5.497  11.715  0.8059 -0.2782 -0.3900
  114OSM   H13B11823   0.325   5.399  11.602 -0.7135  0.1990  2.8005
  114OSM   H13C11824   0.295   5.579  11.618  0.8977  0.9939 -1.3932
  114OSM    C1211825   0.435   5.493  11.371  0.1567 -0.8888  0.0181
  114OSM   H12A11826   0.517   5.524  11.308  0.0531  0.7385  0.6414
  114OSM   H12B11827   0.353   5.556  11.341  0.7755 -0.4834 -0.8743
  114OSM    C1111828   0.400   5.344  11.341 -0.4503  0.4431  0.0854
  114OSM   H11A11829   0.384   5.339  11.231 -0.9715 -1.7074  0.2136
  114OSM   H11B11830   0.303   5.337  11.395  0.2288 -1.2654  1.1567
  114OSM      P11831   0.610   5.181  11.313  0.1532 -0.2252  0.2774
  114OSM    O1311832   0.724   5.272  11.312 -0.4686  0.3322 -0.3732
  114OSM    O1411833   0.637   5.046  11.363 -0.3091  0.0915  0.6670
  114OSM    O1111834   0.558   5.167  11.166  0.1134  0.0083  0.2253
  114OSM    O1211835   0.487   5.244  11.390 -0.0647  0.3208 -0.2758
  114OSM    C1S11836   0.605   5.258  11.062  0.5036  0.2108  0.6804
  114OSM    H1S11837   0.710   5.226  11.044 -0.0163 -0.6390 -1.0729
  114OSM    H1T11838   0.604   5.365  11.092  0.7357  0.2918  0.4009
  114OSM     NF11839   0.599   5.332  10.814  0.5260 -0.1087  0.4943
  114OSM    HNF11840   0.550   5.416  10.791  0.6116  0.7838  3.1951
  114OSM    C2S11841   0.536   5.248  10.921  0.6554  0.0884 -1.1010
  114OSM    H2S11842   0.545   5.142  10.888  1.6483  0.1222 -0.9783
  114OSM    C3S11843   0.384   5.268  10.937 -0.8299 -0.0893  0.4801
  114OSM    H3S11844   0.352   5.368  10.973 -2.4792 -0.7855  1.0532
  114OSM     O311845   0.329   5.201  11.047 -0.0689  0.0180 -0.2541
  114OSM    HO311846   0.404   5.162  11.092 -2.2920 -2.7630  1.4026
  114OSM    C4S11847   0.322   5.233  10.810 -0.2308  0.4003 -0.0161
  114OSM    H4S11848   0.360   5.141  10.764  1.3683  1.1228 -0.1889
  114OSM    C5S11849   0.235   5.310  10.740 -0.1914  0.2453 -0.2431
  114OSM    H5S11850   0.206   5.413  10.765 -1.8000 -0.0641 -0.7249
  114OSM    C6S11851   0.168   5.262  10.611  0.1446 -0.6088  0.0488
  114OSM    H6S11852   0.061   5.249  10.638  0.1402 -0.3559  0.1544
  114OSM    H6T11853   0.204   5.162  10.578  0.6629 -0.5581  0.4502
  114OSM    C7S11854   0.190   5.355  10.494  0.6510 -0.4875  0.1980
  114OSM    H7S11855   0.157   5.454  10.531  0.6792 -0.2001 -0.5230
  114OSM    H7T11856   0.114   5.328  10.417  1.0498  0.6685 -0.6302
  114OSM    C8S11857   0.330   5.382  10.445 -0.3025 -0.4434 -0.3013
  114OSM    H8S11858   0.398   5.344  10.524  1.0878 -0.1506 -1.3244
  114OSM    H8T11859   0.349   5.491  10.430 -0.0840 -0.3739  0.4349
  114OSM    C9S11860   0.368   5.284  10.327  0.3537  0.2003 -0.1323
  114OSM    H9S11861   0.325   5.310  10.228  0.4859 -0.4898 -0.3740
  114OSM    H9T11862   0.335   5.184  10.362 -2.9405  1.0753 -0.3355
  114OSM   C10S11863   0.520   5.260  10.304 -0.3909  0.1582 -0.3332
  114OSM   H10S11864   0.527   5.182  10.226  0.5682  1.6817 -1.8571
  114OSM   H10T11865   0.563   5.223  10.400 -2.2476  0.4766  0.6700
  114OSM   C11S11866   0.600   5.383  10.261 -0.7459 -0.2301  0.0158
  114OSM   H11S11867   0.706   5.351  10.255 -0.3022  0.6487  2.2624
  114OSM   H11T11868   0.605   5.463  10.337 -0.0306  0.5514 -0.8284
  114OSM   C12S11869   0.577   5.440  10.122 -0.0080 -0.6716  0.8021
  114OSM   H12S11870   0.626   5.540  10.121 -1.7131  0.2179  1.7633
  114OSM   H12T11871   0.467   5.447  10.108  0.1895 -1.1545 -1.4114
  114OSM   C13S11872   0.616   5.350  10.006 -0.4968  0.5087 -0.1967
  114OSM   H13S11873   0.530   5.280  10.000 -0.2786  0.2898 -0.8129
  114OSM   H13T11874   0.707   5.290  10.030 -0.2302 -0.1169 -2.5404
  114OSM   C14S11875   0.632   5.415   9.873  0.2873  0.3572  0.4887
  114OSM   H14S11876   0.706   5.498   9.873 -0.8393  1.4649 -2.5693
  114OSM   H14T11877   0.534   5.462   9.851 -0.5721 -0.9760  1.3664
  114OSM   C15S11878   0.664   5.322   9.750  0.5157  0.3995 -0.1552
  114OSM   H15S11879   0.620   5.221   9.766 -4.5732  1.9052 -2.5947
  114OSM   H15T11880   0.774   5.309   9.741  0.6435 -1.5007  2.8501
  114OSM   C16S11881   0.612   5.389   9.621  0.1398  0.1945  0.2719
  114OSM   H16S11882   0.667   5.485   9.613 -0.0079  0.4320  1.7392
  114OSM   H16T11883   0.501   5.396   9.619  0.0050 -0.8970  1.8266
  114OSM   C17S11884   0.645   5.321   9.490 -0.4617 -0.0917 -0.5356
  114OSM   H17S11885   0.592   5.226   9.465 -2.0012  0.7898 -0.7297
  114OSM   H17T11886   0.752   5.291   9.483 -0.2267  0.8407 -1.0913
  114OSM   C18S11887   0.611   5.410   9.368  0.1921  0.2498  0.0751
  114OSM   H18S11888   0.504   5.421   9.343  0.2707 -2.9425 -2.1905
  114OSM   H18T11889   0.656   5.366   9.277 -2.8010 -2.6743 -0.1499
  114OSM   H18U11890   0.666   5.504   9.393 -0.4366  0.3693  1.0727
  114OSM    C1F11891   0.723   5.326  10.777 -0.0813  0.0726 -0.3935
  114OSM     OF11892   0.794   5.232  10.810 -0.6062  0.3367 -0.7815
  114OSM    C2F11893   0.770   5.438  10.682  0.2144  0.2796 -0.2807
  114OSM    H2F11894   0.799   5.525  10.744 -0.1495 -0.4651  0.9754
  114OSM    H2G11895   0.686   5.472  10.618 -0.3258  1.7244  1.1340
  114OSM    C3F11896   0.891   5.398  10.595 -0.2627  0.8502 -0.1232
  114OSM    H3F11897   0.890   5.296  10.551 -2.7066  0.8057 -0.0516
  114OSM    H3G11898   0.980   5.399  10.662 -1.0491  0.9856  0.9355
  114OSM    C4F11899   0.934   5.489  10.478 -0.2978 -0.2975 -0.4982
  114OSM    H4F11900   0.944   5.589  10.525 -1.8397  1.2206 -3.1405
  114OSM    H4G11901   0.847   5.493  10.408  0.1791 -1.9762 -1.2354
  114OSM    C5F11902   1.056   5.446  10.399  0.2313  0.0345  0.3058
  114OSM    H5F11903   1.041   5.338  10.377 -0.3451 -0.1010  1.3193
  114OSM    H5G11904   1.152   5.452  10.454 -0.3658  0.0908  1.3671
  114OSM    C6F11905   1.086   5.520  10.266 -0.8654  0.5426 -0.2953
  114OSM    H6F11906   1.190   5.497  10.231 -0.5728 -1.0778  1.4674
  114OSM    H6G11907   1.080   5.630  10.275  2.4622  0.8263 -0.2630
  114OSM    C7F11908   0.996   5.466  10.148 -0.7096 -0.5593 -0.7454
  114OSM    H7F11909   0.891   5.472  10.183  0.2705  0.4209  2.3550
  114OSM    H7G11910   1.027   5.361  10.128 -0.3136 -0.4488 -0.7252
  114OSM    C8F11911   1.012   5.539  10.013 -0.1277 -0.5092  0.2588
  114OSM    H8F11912   0.969   5.477   9.931  1.6423  3.5524 -4.2324
  114OSM    H8G11913   1.117   5.556   9.980  0.1025 -0.4996  0.9872
  114OSM    C9F11914   0.942   5.677  10.009 -0.6783 -0.0668  0.2447
  114OSM    H9F11915   0.860   5.698  10.079 -1.7490 -2.4490 -0.1881
  114OSM   C10F11916   0.962   5.766   9.912 -0.2346 -0.1108  0.1389
  114OSM   H10F11917   0.899   5.856   9.909 -0.1219 -0.0469 -1.1440
  114OSM   C11F11918   1.045   5.747   9.788 -0.2130  0.4900  0.1574
  114OSM   H11F11919   1.151   5.726   9.816  0.6428 -1.7960 -3.9695
  114OSM   H11G11920   1.048   5.841   9.728  0.5301  0.6914  0.4929
  114OSM   C12F11921   1.011   5.639   9.689 -0.7551 -0.4827 -0.2853
  114OSM   H12F11922   0.927   5.573   9.723 -0.7645 -1.3379 -1.8670
  114OSM   H12G11923   1.090   5.562   9.691 -0.5494 -0.2504  1.1970
  114OSM   C13F11924   0.979   5.700   9.556  0.2214  0.3026  0.7755
  114OSM   H13F11925   1.068   5.745   9.508  0.5268  0.2167  1.2452
  114OSM   H13G11926   0.903   5.781   9.558  0.0473  0.4146 -3.2160
  114OSM   C14F11927   0.927   5.597   9.455  0.2490 -0.1008 -0.2776
  114OSM   H14F11928   0.878   5.646   9.368  0.4663  0.4179 -0.1136
  114OSM   H14G11929   0.851   5.528   9.497  0.0615  0.8110  0.9492
  114OSM   C15F11930   1.036   5.513   9.394 -0.1776  0.2806  0.3093
  114OSM   H15F11931   1.074   5.456   9.483 -2.3998  2.0670  2.5459
  114OSM   H15G11932   1.116   5.574   9.348  0.2624  1.3848  2.3826
  114OSM   C16F11933   0.996   5.405   9.282  0.3410  0.5084 -0.0615
  114OSM   H16F11934   0.915   5.443   9.215 -1.0533 -1.0450  0.6559
  114OSM   H16G11935   0.941   5.320   9.327 -0.6135  1.9636  1.6095
  114OSM   C17F11936   1.113   5.357   9.197 -0.5716 -0.1022  0.3769
  114OSM   H17F11937   1.165   5.437   9.140 -0.6709 -1.3944 -1.6170
  114OSM   H17G11938   1.066   5.292   9.120 -0.1383 -0.0786  0.0886
  114OSM   C18F11939   1.231   5.285   9.275 -0.3246 -0.0382 -0.2716
  114OSM   H18F11940   1.203   5.255   9.378  1.8697 -0.0650  0.3690
  114OSM   H18G11941   1.317   5.354   9.290 -0.8003  0.7654 -1.1857
  114OSM   H18H11942   1.254   5.196   9.212 -1.6802 -1.8937  1.6969
  115OSM      N11943   2.686   1.989   5.738 -0.1023 -0.7024 -0.2809
  115OSM    C1511944   2.824   1.951   5.697 -0.0254 -0.0765 -0.4065
  115OSM   H15A11945   2.890   1.951   5.783  1.2624 -1.3238 -1.3569
  115OSM   H15B11946   2.866   2.016   5.622 -0.2395  2.2062  1.3444
  115OSM   H15C11947   2.819   1.851   5.658  0.6681 -0.4148  0.3345
  115OSM    C1411948   2.660   2.134   5.753 -0.8211  0.3912 -0.0354
  115OSM   H14A11949   2.703   2.161   5.848 -0.4626  0.6274 -0.2597
  115OSM   H14B11950   2.555   2.156   5.764 -0.8222  0.6702 -0.5342
  115OSM   H14C11951   2.705   2.208   5.688 -3.0849  1.9400  0.0417
  115OSM    C1311952   2.612   1.944   5.615 -0.4248  0.2896  0.3021
  115OSM   H13A11953   2.514   1.989   5.617 -1.0505 -0.7805 -2.0072
  115OSM   H13B11954   2.608   1.836   5.609  0.9838  0.2862 -4.2093
  115OSM   H13C11955   2.666   1.980   5.528  0.2872 -3.5537 -1.0476
  115OSM    C1211956   2.644   1.918   5.867  0.0529 -0.1344  0.0427
  115OSM   H12A11957   2.652   1.811   5.853  0.5078 -0.2879  1.3462
  115OSM   H12B11958   2.541   1.947   5.880 -0.1112 -0.7694  0.1599
  115OSM    C1111959   2.719   1.947   5.997  0.2602 -0.0217 -0.3382
  115OSM   H11A11960   2.669   1.891   6.079  1.1826 -0.2488  0.0813
  115OSM   H11B11961   2.701   2.056   6.015 -1.8140 -0.4625  0.4954
  115OSM      P11962   2.917   1.775   6.036  0.2109 -0.3580  0.3112
  115OSM    O1311963   2.848   1.666   5.961 -0.2157  0.9242  0.7032
  115OSM    O1411964   3.061   1.781   6.014 -0.0889  0.3999  0.2368
  115OSM    O1111965   2.885   1.752   6.189 -0.2755 -0.7809 -0.0424
  115OSM    O1211966   2.857   1.912   5.984 -0.6829  0.3206 -0.0645
  115OSM    C1S11967   2.902   1.852   6.294 -0.6456  0.1483 -0.1269
  115OSM    H1S11968   2.852   1.942   6.251 -0.5125  0.2478 -0.0771
  115OSM    H1T11969   3.011   1.872   6.305 -0.4611 -0.9060  0.0599
  115OSM     NF11970   2.860   1.932   6.511  0.7498 -0.0581  0.0348
  115OSM    HNF11971   2.935   1.922   6.576 -0.5860  2.9268  2.2689
  115OSM    C2S11972   2.839   1.816   6.430  0.0639 -0.0679  0.5133
  115OSM    H2S11973   2.731   1.798   6.411 -0.0138 -0.1466  1.0051
  115OSM    C3S11974   2.905   1.692   6.479  0.0892  0.1642 -0.1681
  115OSM    H3S11975   3.015   1.711   6.480 -0.0754  1.1795 -0.0910
  115OSM     O311976   2.888   1.584   6.389 -0.0507 -0.3750 -0.1064
  115OSM    HO311977   2.887   1.629   6.304 -0.9052 -0.2715 -0.0471
  115OSM    C4S11978   2.862   1.662   6.622 -0.1291 -0.5973  0.0899
  115OSM    H4S11979   2.763   1.614   6.619  0.1370 -1.1717 -2.6545
  115OSM    C5S11980   2.947   1.668   6.727  0.0087 -0.7633 -0.2850
  115OSM    H5S11981   3.055   1.690   6.716  0.0562 -1.1277 -0.5479
  115OSM    C6S11982   2.912   1.636   6.871  0.0029  0.0235 -0.4447
  115OSM    H6S11983   2.917   1.721   6.943  0.6445 -1.0469  0.8126
  115OSM    H6T11984   2.988   1.567   6.914 -1.0464  0.7873  2.8999
  115OSM    C7S11985   2.780   1.568   6.901 -0.2056  0.2032 -0.1468
  115OSM    H7S11986   2.743   1.493   6.828 -0.6145  1.5920 -1.4438
  115OSM    H7T11987   2.699   1.644   6.891 -1.7612 -1.0314  2.1911
  115OSM    C8S11988   2.777   1.524   7.047 -0.7884 -0.3041  0.7206
  115OSM    H8S11989   2.838   1.598   7.104 -1.2507  0.5667  0.1034
  115OSM    H8T11990   2.817   1.421   7.052  0.8601  0.2834  0.1672
  115OSM    C9S11991   2.637   1.526   7.122  0.4413 -0.3695  0.5650
  115OSM    H9S11992   2.560   1.468   7.067  1.2216 -1.3582  0.4880
  115OSM    H9T11993   2.596   1.628   7.139  1.8711  0.2225  0.6177
  115OSM   C10S11994   2.647   1.476   7.263 -0.0829 -0.1771  0.1817
  115OSM   H10S11995   2.697   1.377   7.271 -2.0563 -1.1052  2.2460
  115OSM   H10T11996   2.546   1.467   7.309 -0.3205  0.2804 -0.2424
  115OSM   C11S11997   2.712   1.586   7.358 -0.0248  0.0487  0.0151
  115OSM   H11S11998   2.634   1.665   7.355 -1.5214 -1.3743 -0.6978
  115OSM   H11T11999   2.816   1.613   7.329  0.1713 -2.2190 -1.6447
  115OSM   C12S12000   2.720   1.537   7.505 -0.0925  0.4456  0.2222
  115OSM   H12S12001   2.772   1.439   7.503  1.1904  1.1039 -1.6995
  115OSM   H12T12002   2.624   1.504   7.551  1.2174 -1.4775  1.7037
  115OSM   C13S12003   2.788   1.639   7.598  0.5876  0.2153  0.7001
  115OSM   H13S12004   2.711   1.719   7.597 -0.9149 -1.1886 -0.0474
  115OSM   H13T12005   2.876   1.678   7.543  0.2414  0.4560  0.3052
  115OSM   C14S12006   2.806   1.607   7.743  0.8221  0.7307 -0.0250
  115OSM   H14S12007   2.848   1.700   7.787  3.2530  0.1424 -0.9406
  115OSM   H14T12008   2.882   1.527   7.753  1.5862  1.5562  0.8604
  115OSM   C15S12009   2.667   1.574   7.815  0.1869 -0.4575  0.3053
  115OSM   H15S12010   2.627   1.480   7.770 -1.0991 -0.6413  1.7472
  115OSM   H15T12011   2.594   1.656   7.796 -1.0479 -1.5017  0.4050
  115OSM   C16S12012   2.672   1.549   7.966  0.5478  0.5187 -0.3363
  115OSM   H16S12013   2.575   1.513   8.005  1.6942 -1.7438  0.5736
  115OSM   H16T12014   2.694   1.648   8.011  1.7753  0.6276 -1.1145
  115OSM   C17S12015   2.784   1.457   8.010  0.4623 -0.2017 -0.4979
  115OSM   H17S12016   2.793   1.476   8.119 -2.6347 -1.6666  0.1077
  115OSM   H17T12017   2.883   1.484   7.967 -0.6938 -2.2523 -5.0538
  115OSM   C18S12018   2.760   1.302   7.983  0.2922 -0.0416 -0.3584
  115OSM   H18S12019   2.850   1.252   8.023  2.2408  1.6255 -2.3806
  115OSM   H18T12020   2.754   1.279   7.875  1.4737 -2.0277 -0.0375
  115OSM   H18U12021   2.666   1.271   8.034  0.6698 -0.7287 -0.0710
  115OSM    C1F12022   2.801   2.045   6.497 -0.2610 -0.2504  0.1045
  115OSM     OF12023   2.712   2.064   6.417 -0.4089 -0.1201  0.5541
  115OSM    C2F12024   2.866   2.153   6.578  0.0328 -0.2554  0.0262
  115OSM    H2F12025   2.875   2.229   6.497 -1.3269  2.4655  2.2393
  115OSM    H2G12026   2.964   2.143   6.630 -0.2254  0.4609  0.6747
  115OSM    C3F12027   2.746   2.218   6.663 -0.2259  0.5499 -0.0792
  115OSM    H3F12028   2.648   2.223   6.613 -1.3555 -1.1787  1.8058
  115OSM    H3G12029   2.765   2.327   6.658 -0.4294  0.6887  1.5831
  115OSM    C4F12030   2.736   2.173   6.810  0.2047 -0.5920  0.4377
  115OSM    H4F12031   2.670   2.246   6.863  1.4696 -0.8920  2.5622
  115OSM    H4G12032   2.841   2.177   6.846  1.2371 -0.2890 -2.4068
  115OSM    C5F12033   2.683   2.027   6.833 -0.3375 -0.1144  0.5577
  115OSM    H5F12034   2.753   1.966   6.772  1.4897  1.9522  0.4790
  115OSM    H5G12035   2.578   2.015   6.800 -0.0821 -0.8022 -0.0524
  115OSM    C6F12036   2.701   1.983   6.977 -0.1816  0.5190  0.5298
  115OSM    H6F12037   2.808   1.993   7.003  0.8014 -1.2578 -2.3950
  115OSM    H6G12038   2.667   1.878   6.981 -2.5303  0.9301 -3.2663
  115OSM    C7F12039   2.620   2.066   7.081 -0.0915 -0.2687  1.1469
  115OSM    H7F12040   2.514   2.067   7.046 -0.0605 -0.8556  1.0387
  115OSM    H7G12041   2.649   2.174   7.078 -0.0947 -0.2856  0.3914
  115OSM    C8F12042   2.627   2.027   7.222 -0.5390 -0.2425 -0.3661
  115OSM    H8F12043   2.608   1.918   7.211  1.3766 -0.6296 -0.1575
  115OSM    H8G12044   2.547   2.076   7.281  2.1617  1.8054  1.9114
  115OSM    C9F12045   2.761   2.032   7.291 -0.2353  0.5991 -0.0470
  115OSM    H9F12046   2.832   1.967   7.238 -1.3648  0.6239 -1.6554
  115OSM   C10F12047   2.801   2.104   7.399  0.2438  1.3755 -0.1524
  115OSM   H10F12048   2.903   2.102   7.442 -0.4618  0.1305  1.6126
  115OSM   C11F12049   2.717   2.193   7.477 -0.0769 -0.3921 -0.0139
  115OSM   H11F12050   2.611   2.199   7.446  0.0679 -0.4056 -0.5213
  115OSM   H11G12051   2.760   2.295   7.468 -0.4979 -0.2033  0.1074
  115OSM   C12F12052   2.721   2.160   7.628 -0.1197 -0.5456  0.0648
  115OSM   H12F12053   2.675   2.247   7.680  0.6431 -1.2979  2.0857
  115OSM   H12G12054   2.823   2.160   7.672 -0.1806 -1.2630  0.2140
  115OSM   C13F12055   2.643   2.031   7.660  0.3996 -0.5760  0.3204
  115OSM   H13F12056   2.670   1.948   7.592 -0.0706  0.0363 -0.6335
  115OSM   H13G12057   2.534   2.040   7.642  0.9654 -0.0570 -4.0771
  115OSM   C14F12058   2.669   1.998   7.803  0.2120 -0.0329  0.1333
  115OSM   H14F12059   2.778   2.011   7.814  0.4070  0.8814 -2.2332
  115OSM   H14G12060   2.660   1.893   7.839  1.5273 -0.4169 -0.6198
  115OSM   C15F12061   2.609   2.088   7.911  0.4633 -0.7541  0.3741
  115OSM   H15F12062   2.498   2.084   7.919  0.6012 -2.3259  2.2798
  115OSM   H15G12063   2.628   2.193   7.883 -3.2714 -0.6618 -2.6468
  115OSM   C16F12064   2.668   2.055   8.056  0.1221 -0.4203  0.1453
  115OSM   H16F12065   2.605   2.125   8.114  0.1298  0.0160 -0.3699
  115OSM   H16G12066   2.772   2.095   8.053 -0.3711  1.0997  1.6584
  115OSM   C17F12067   2.663   1.914   8.124  0.5009  0.0318 -0.0121
  115OSM   H17F12068   2.697   1.931   8.228 -1.5088 -1.5755  0.9733
  115OSM   H17G12069   2.727   1.846   8.064 -0.2109 -2.6625  2.1144
  115OSM   C18F12070   2.520   1.867   8.136  0.1635  0.3237 -0.4894
  115OSM   H18F12071   2.510   1.796   8.220  1.2486  2.8541  1.9494
  115OSM   H18G12072   2.481   1.826   8.040  0.5054 -1.0325 -0.0623
  115OSM   H18H12073   2.467   1.961   8.165  3.4554  2.4404 -0.8075
  116OSM      N12074   0.432   6.360   6.139 -0.0970  0.0098 -0.2942
  116OSM    C1512075   0.570   6.371   6.200 -0.1455 -0.4998 -0.0564
  116OSM   H15A12076   0.642   6.388   6.122 -0.1305 -2.5643 -0.5490
  116OSM   H15B12077   0.588   6.276   6.250  0.0408 -2.2435 -3.2088
  116OSM   H15C12078   0.577   6.454   6.269  0.8373  1.4397 -2.3682
  116OSM    C1412079   0.411   6.484   6.052 -0.0779  0.0776  0.8863
  116OSM   H14A12080   0.321   6.471   5.993 -1.0993 -1.5004  2.6852
  116OSM   H14B12081   0.488   6.498   5.978 -0.4949 -0.1565  0.3969
  116OSM   H14C12082   0.413   6.576   6.108  2.1963  0.3929  0.3914
  116OSM    C1312083   0.419   6.237   6.058 -0.3320 -0.2291 -0.8193
  116OSM   H13A12084   0.520   6.213   6.025  0.2553  1.7523 -0.5978
  116OSM   H13B12085   0.366   6.249   5.965  0.9082 -1.4476 -1.7498
  116OSM   H13C12086   0.379   6.153   6.113  0.8650 -2.4787 -3.1366
  116OSM    C1212087   0.324   6.375   6.249  0.1222 -0.3863 -0.3036
  116OSM   H12A12088   0.231   6.346   6.201  0.2825 -1.2893 -0.1002
  116OSM   H12B12089   0.328   6.479   6.275 -0.6507 -0.4808  0.2595
  116OSM    C1112090   0.343   6.286   6.371 -0.0583  0.0431  0.1303
  116OSM   H11A12091   0.253   6.297   6.435 -0.1145  0.9210 -0.0924
  116OSM   H11B12092   0.432   6.319   6.429  0.3386  0.9900 -0.9865
  116OSM      P12093   0.257   6.039   6.322 -0.2687 -0.3986 -0.0857
  116OSM    O1312094   0.135   6.117   6.283 -0.1944  0.1117 -0.0088
  116OSM    O1412095   0.312   5.940   6.227  0.2805  0.4398 -0.0278
  116OSM    O1112096   0.239   5.978   6.467  0.1672  0.1717  0.2252
  116OSM    O1212097   0.377   6.143   6.351  0.2923  0.1135 -0.1587
  116OSM    C1S12098   0.339   5.922   6.549 -0.3584 -0.4458 -0.0306
  116OSM    H1S12099   0.423   5.886   6.487  0.4261  2.1753 -0.6331
  116OSM    H1T12100   0.300   5.827   6.591  1.2035 -1.0662  0.0906
  116OSM     NF12101   0.495   5.946   6.735 -0.1217 -0.1925  0.5374
  116OSM    HNF12102   0.480   5.903   6.824  1.4583 -3.6734 -0.7036
  116OSM    C2S12103   0.384   6.015   6.665  0.8865 -0.3249 -0.7516
  116OSM    H2S12104   0.418   6.112   6.622 -0.9132  0.5479 -0.3035
  116OSM    C3S12105   0.261   6.047   6.758  0.1792 -0.8573 -0.1827
  116OSM    H3S12106   0.228   5.950   6.800 -0.9580  0.3819  1.9624
  116OSM     O312107   0.144   6.086   6.698 -0.0227 -0.3613 -0.6684
  116OSM    HO312108   0.156   6.055   6.608 -1.1236 -1.2840 -0.5210
  116OSM    C4S12109   0.289   6.139   6.875  0.6524  0.4579  0.1633
  116OSM    H4S12110   0.324   6.084   6.964 -0.2985  0.8255  0.7840
  116OSM    C5S12111   0.278   6.278   6.879 -0.2546  0.8560 -0.1657
  116OSM    H5S12112   0.233   6.340   6.800  2.1225  3.6301  0.5113
  116OSM    C6S12113   0.296   6.362   7.003  0.6817  0.3192 -0.8719
  116OSM    H6S12114   0.214   6.437   7.008  0.7004  0.2772  1.1612
  116OSM    H6T12115   0.398   6.404   7.000  1.5858 -1.8125 -2.0623
  116OSM    C7S12116   0.276   6.278   7.133 -0.6079  0.2549 -0.2867
  116OSM    H7S12117   0.363   6.208   7.137 -0.2616  0.4936 -2.6082
  116OSM    H7T12118   0.180   6.225   7.117 -0.9644  1.2392 -1.5831
  116OSM    C8S12119   0.281   6.365   7.256 -0.4653  0.2057 -0.2074
  116OSM    H8S12120   0.213   6.451   7.240 -0.5451  0.4220  1.2347
  116OSM    H8T12121   0.380   6.411   7.275 -0.1881 -0.7449  0.7282
  116OSM    C9S12122   0.248   6.277   7.382 -0.3213  0.1480 -0.6033
  116OSM    H9S12123   0.306   6.182   7.378  0.3297  0.5757 -2.1971
  116OSM    H9T12124   0.139   6.260   7.373 -0.3707  0.7353 -1.1496
  116OSM   C10S12125   0.265   6.341   7.520 -0.4082  0.4181 -0.7808
  116OSM   H10S12126   0.202   6.432   7.533  0.9371  1.0312  2.3090
  116OSM   H10T12127   0.371   6.374   7.519 -0.3039  0.1712  0.5394
  116OSM   C11S12128   0.231   6.240   7.630  0.0289  0.0183  0.0265
  116OSM   H11S12129   0.293   6.148   7.628 -0.0801 -0.0880  1.0315
  116OSM   H11T12130   0.123   6.217   7.613 -0.9240  2.4083  2.1141
  116OSM   C12S12131   0.242   6.316   7.769 -0.0831 -0.6505 -0.6224
  116OSM   H12S12132   0.168   6.264   7.833 -0.6672 -0.2498 -0.9656
  116OSM   H12T12133   0.210   6.420   7.747  0.5545 -0.0155  1.2383
  116OSM   C13S12134   0.381   6.313   7.828  0.6333  0.3542 -0.3414
  116OSM   H13S12135   0.457   6.332   7.749  0.3570 -0.1894 -0.7428
  116OSM   H13T12136   0.397   6.206   7.855  1.0318 -0.1996 -2.5517
  116OSM   C14S12137   0.402   6.411   7.933 -0.4172 -0.4211  0.2061
  116OSM   H14S12138   0.310   6.416   7.996 -1.9597 -0.1317 -1.9585
  116OSM   H14T12139   0.410   6.516   7.896 -0.1457  0.6480  3.0146
  116OSM   C15S12140   0.521   6.386   8.025 -0.4685  1.0082  0.1161
  116OSM   H15S12141   0.617   6.378   7.970 -0.2845 -1.3426  0.6703
  116OSM   H15T12142   0.501   6.286   8.068 -2.8251  1.2817 -0.2257
  116OSM   C16S12143   0.528   6.472   8.145 -0.7118 -0.1963 -0.3061
  116OSM   H16S12144   0.431   6.468   8.198  0.1595 -0.1612  1.3866
  116OSM   H16T12145   0.555   6.573   8.109  2.6832 -0.0029  2.2737
  116OSM   C17S12146   0.641   6.435   8.246 -0.0145 -0.3331 -0.1476
  116OSM   H17S12147   0.637   6.328   8.275  1.9866 -0.1344  1.0051
  116OSM   H17T12148   0.637   6.485   8.345 -0.9226 -1.4299  0.3959
  116OSM   C18S12149   0.776   6.462   8.193 -0.0570  0.3782  0.1795
  116OSM   H18S12150   0.794   6.567   8.163 -0.4300 -0.2603 -2.5179
  116OSM   H18T12151   0.797   6.403   8.101  4.1802  1.9228 -0.0253
  116OSM   H18U12152   0.856   6.421   8.259  0.6810  0.2996 -0.7558
  116OSM    C1F12153   0.619   5.923   6.688  0.4709  0.6227  0.5698
  116OSM     OF12154   0.660   5.979   6.586  0.4317 -0.3309 -0.5320
  116OSM    C2F12155   0.702   5.825   6.766  0.1770 -0.4425  0.1134
  116OSM    H2F12156   0.764   5.774   6.690  1.2834 -0.0693  0.7472
  116OSM    H2G12157   0.634   5.751   6.813  2.0005 -1.5173  1.1813
  116OSM    C3F12158   0.794   5.884   6.881 -0.0344  0.2234  0.9281
  116OSM    H3F12159   0.734   5.914   6.969 -0.7690  0.3228  0.4049
  116OSM    H3G12160   0.849   5.974   6.847 -0.6509  0.5806  0.8661
  116OSM    C4F12161   0.898   5.787   6.934 -0.7206  0.3454 -0.1831
  116OSM    H4F12162   0.983   5.777   6.863 -0.9102 -1.4982 -0.1763
  116OSM    H4G12163   0.855   5.686   6.948 -0.0941 -0.4614 -3.3543
  116OSM    C5F12164   0.964   5.829   7.065 -0.3120 -0.1416 -0.5585
  116OSM    H5F12165   0.896   5.839   7.153  0.6732 -0.3274  0.2496
  116OSM    H5G12166   1.002   5.933   7.056 -0.4564 -0.2120 -2.2330
  116OSM    C6F12167   1.075   5.736   7.104 -0.1563  0.2061 -0.3144
  116OSM    H6F12168   1.128   5.782   7.190  2.0305 -1.3487 -0.7356
  116OSM    H6G12169   1.158   5.727   7.031  0.6263 -2.9736  0.8033
  116OSM    C7F12170   1.035   5.590   7.138  0.3912  0.3556 -0.1183
  116OSM    H7F12171   1.076   5.518   7.065 -0.5570 -0.9475  0.5897
  116OSM    H7G12172   0.927   5.567   7.150  0.6229 -1.9190 -1.8520
  116OSM    C8F12173   1.100   5.542   7.272 -0.2555  0.3393  0.2914
  116OSM    H8F12174   1.210   5.532   7.259 -0.3774 -0.5079 -0.1439
  116OSM    H8G12175   1.053   5.444   7.293  0.1026  0.1873  0.3956
  116OSM    C9F12176   1.062   5.615   7.401 -0.1442  0.4485 -0.0253
  116OSM    H9F12177   0.976   5.682   7.400 -0.3303  0.2310 -1.8642
  116OSM   C10F12178   1.120   5.589   7.521  0.7089  0.7616 -0.1163
  116OSM   H10F12179   1.103   5.653   7.608  0.7950  0.0257  0.4506
  116OSM   C11F12180   1.225   5.483   7.542 -0.1486 -0.0655 -0.3337
  116OSM   H11F12181   1.224   5.427   7.446  0.6721  1.3636 -1.2031
  116OSM   H11G12182   1.214   5.414   7.628 -0.6018 -2.0589 -1.8911
  116OSM   C12F12183   1.361   5.553   7.560  0.9413  0.2246  0.1407
  116OSM   H12F12184   1.382   5.620   7.474  1.2936  1.0282  0.8345
  116OSM   H12G12185   1.436   5.472   7.560  0.1333 -0.5373 -0.2476
  116OSM   C13F12186   1.370   5.644   7.689  0.3405  0.2424  0.2113
  116OSM   H13F12187   1.311   5.738   7.682  1.2796  0.7609 -1.0368
  116OSM   H13G12188   1.477   5.675   7.691  0.1043  1.1241 -0.2789
  116OSM   C14F12189   1.349   5.574   7.819  0.1979  0.1882 -0.0166
  116OSM   H14F12190   1.425   5.493   7.827  1.7015  1.5254 -0.2794
  116OSM   H14G12191   1.245   5.538   7.831  0.4677 -0.8834 -0.6431
  116OSM   C15F12192   1.390   5.658   7.942 -0.7276 -0.0662 -0.2839
  116OSM   H15F12193   1.348   5.760   7.933  1.5508  0.9942  0.2343
  116OSM   H15G12194   1.501   5.665   7.944 -0.5599 -2.2519 -0.2478
  116OSM   C16F12195   1.345   5.593   8.076 -0.2501  0.1951 -0.5250
  116OSM   H16F12196   1.279   5.508   8.049 -0.2760 -0.4094  1.3281
  116OSM   H16G12197   1.280   5.668   8.127 -0.7645  0.0556 -0.9716
  116OSM   C17F12198   1.467   5.565   8.168 -0.0591  0.0418  0.0083
  116OSM   H17F12199   1.541   5.503   8.112  0.2339 -0.5669  1.0436
  116OSM   H17G12200   1.441   5.494   8.250 -0.0123 -0.1661 -0.1549
  116OSM   C18F12201   1.545   5.684   8.217 -0.0562  0.3303  0.2008
  116OSM   H18F12202   1.604   5.728   8.134  0.8497 -0.6090  0.3210
  116OSM   H18G12203   1.623   5.649   8.288  0.8055  1.7130 -0.0242
  116OSM   H18H12204   1.480   5.763   8.260 -0.9383 -1.3516  2.1027
  117OSM      N12205   5.977   1.817   6.063  0.1472 -0.3737  0.5911
  117OSM    C1512206   6.076   1.925   6.098  0.1019 -0.0043  0.0859
  117OSM   H15A12207   6.107   2.000   6.027  0.8686  1.0661  1.4995
  117OSM   H15B12208   6.171   1.875   6.109  0.1648  0.1855  0.4195
  117OSM   H15C12209   6.049   1.972   6.192 -2.4914  2.2660 -1.6420
  117OSM    C1412210   5.843   1.881   6.031  0.1563 -0.5565 -0.4936
  117OSM   H14A12211   5.857   1.926   5.933  1.8521  0.0164 -0.0337
  117OSM   H14B12212   5.814   1.953   6.106  0.5827  0.2377 -1.0667
  117OSM   H14C12213   5.767   1.805   6.028  0.5689 -1.1424  1.7451
  117OSM    C1312214   6.013   1.743   5.939 -0.0651 -0.5451 -0.4240
  117OSM   H13A12215   5.950   1.659   5.912  0.0737 -0.0518 -2.3833
  117OSM   H13B12216   6.109   1.698   5.959 -0.7093 -2.0523 -0.5095
  117OSM   H13C12217   6.018   1.818   5.862  0.3942  1.4692  1.4554
  117OSM    C1212218   5.951   1.731   6.185 -0.2664  1.0329 -0.7702
  117OSM   H12A12219   5.874   1.656   6.170  0.0886  0.2452  1.0133
  117OSM   H12B12220   5.925   1.793   6.270  0.8108  3.4625 -2.1189
  117OSM    C1112221   6.084   1.657   6.231  0.0480  0.0986  0.8875
  117OSM   H11A12222   6.056   1.589   6.314 -1.0085 -2.4302 -1.3682
  117OSM   H11B12223   6.153   1.731   6.277  1.0288  1.1547 -2.0648
  117OSM      P12224   6.206   1.434   6.153 -0.0542  0.1223 -0.0406
  117OSM    O1312225   6.104   1.333   6.113  0.4730  0.4535 -0.2448
  117OSM    O1412226   6.339   1.426   6.088  0.3786  0.3488  0.2666
  117OSM    O1112227   6.219   1.422   6.311 -0.4468  0.6668  0.0019
  117OSM    O1212228   6.159   1.583   6.128  0.2224 -0.4454 -0.2685
  117OSM    C1S12229   6.312   1.491   6.388  0.3226 -0.2931  0.0592
  117OSM    H1S12230   6.294   1.601   6.393 -2.4367 -0.7282  2.5856
  117OSM    H1T12231   6.418   1.463   6.369  0.4618 -1.1070  1.8097
  117OSM     NF12232   6.379   1.516   6.632  0.9808 -0.4093 -0.9079
  117OSM    HNF12233   6.473   1.487   6.648  0.7021  0.1485  2.4524
  117OSM    C2S12234   6.302   1.439   6.543  0.0564 -0.0755  0.1024
  117OSM    H2S12235   6.196   1.456   6.573  0.1375 -2.1459  1.8463
  117OSM    C3S12236   6.333   1.287   6.552 -0.5870 -0.5333  0.2953
  117OSM    H3S12237   6.442   1.274   6.531 -0.5930 -1.5703  0.8505
  117OSM     O312238   6.256   1.207   6.466 -0.1082 -0.2901 -0.3385
  117OSM    HO312239   6.228   1.264   6.394  1.0218 -0.3172 -0.8195
  117OSM    C4S12240   6.306   1.235   6.690  0.1521 -0.8408 -0.3536
  117OSM    H4S12241   6.202   1.227   6.726 -0.7580  2.4821 -1.8366
  117OSM    C5S12242   6.403   1.196   6.772 -0.4625 -0.4825 -0.6451
  117OSM    H5S12243   6.507   1.199   6.735 -0.8147  0.7307 -1.6032
  117OSM    C6S12244   6.377   1.148   6.918 -0.0822 -0.1336  0.1673
  117OSM    H6S12245   6.472   1.104   6.954  0.5744 -0.7383 -2.0957
  117OSM    H6T12246   6.295   1.073   6.915 -1.9702  1.8257  0.4787
  117OSM    C7S12247   6.348   1.274   6.995  0.4027 -0.2324  0.5181
  117OSM    H7S12248   6.248   1.306   6.962 -0.4118 -2.7491  0.3289
  117OSM    H7T12249   6.429   1.348   6.978 -1.2703  1.2163 -1.7001
  117OSM    C8S12250   6.332   1.252   7.145  0.0575  0.3190  0.1184
  117OSM    H8S12251   6.276   1.156   7.146 -2.7881  1.8133 -2.2003
  117OSM    H8T12252   6.274   1.328   7.201 -0.5809 -0.2615  0.2551
  117OSM    C9S12253   6.458   1.234   7.225 -0.3663  0.5661 -1.4494
  117OSM    H9S12254   6.521   1.323   7.204  0.1727  1.0970  1.8937
  117OSM    H9T12255   6.517   1.145   7.194 -1.3659 -0.9809  0.7673
  117OSM   C10S12256   6.452   1.245   7.377 -0.3459  0.2073 -0.0385
  117OSM   H10S12257   6.409   1.346   7.391 -1.7171 -0.6091  2.2670
  117OSM   H10T12258   6.556   1.227   7.410  0.1963 -1.5570 -2.4190
  117OSM   C11S12259   6.373   1.145   7.452 -0.4344 -0.4917 -0.2120
  117OSM   H11S12260   6.424   1.050   7.427  0.3768 -0.3645  0.8827
  117OSM   H11T12261   6.271   1.139   7.408 -0.0376 -2.2631 -0.9699
  117OSM   C12S12262   6.393   1.176   7.599 -0.2166 -0.3463  0.0962
  117OSM   H12S12263   6.338   1.271   7.618  0.5649  0.4352 -1.3952
  117OSM   H12T12264   6.497   1.200   7.627  0.2232 -0.1326 -1.6151
  117OSM   C13S12265   6.350   1.063   7.692 -0.2321 -0.6957  0.5050
  117OSM   H13S12266   6.421   0.987   7.654  2.0170  1.5543 -0.0917
  117OSM   H13T12267   6.248   1.023   7.671 -1.1684  0.8104  1.9792
  117OSM   C14S12268   6.376   1.086   7.840 -0.0856 -0.3413  0.3358
  117OSM   H14S12269   6.337   1.183   7.876 -0.5126  0.4444 -2.0386
  117OSM   H14T12270   6.487   1.082   7.844 -0.0906 -1.2369 -0.0061
  117OSM   C15S12271   6.313   0.978   7.922  0.7307  0.1608  0.4508
  117OSM   H15S12272   6.367   0.887   7.888 -0.0971  0.2040 -1.0536
  117OSM   H15T12273   6.204   0.964   7.912  1.0350 -1.9150 -0.7517
  117OSM   C16S12274   6.329   0.998   8.064  0.1218 -0.1465 -0.3385
  117OSM   H16S12275   6.278   1.094   8.086  0.0266 -0.2139 -0.2600
  117OSM   H16T12276   6.437   0.995   8.090  0.4899 -0.7455 -1.8261
  117OSM   C17S12277   6.273   0.893   8.159  0.2357  0.3148  0.3874
  117OSM   H17S12278   6.163   0.888   8.147  0.4620 -1.4297 -1.5830
  117OSM   H17T12279   6.296   0.926   8.262  2.3800  0.7694 -0.1801
  117OSM   C18S12280   6.333   0.753   8.133  0.2332 -0.5988 -0.5918
  117OSM   H18S12281   6.310   0.683   8.217  1.2200 -0.3122 -0.0677
  117OSM   H18T12282   6.439   0.761   8.099 -0.2518 -0.2458 -2.0777
  117OSM   H18U12283   6.268   0.719   8.050 -0.3827  1.1259 -0.8514
  117OSM    C1F12284   6.350   1.642   6.681  0.4771  1.0163  1.1486
  117OSM     OF12285   6.252   1.703   6.635  0.0394 -0.7720 -0.1355
  117OSM    C2F12286   6.441   1.689   6.788 -0.2632 -0.6793 -0.3531
  117OSM    H2F12287   6.534   1.631   6.770 -0.1187 -1.2437  1.8685
  117OSM    H2G12288   6.398   1.656   6.886  0.0919 -1.3228 -0.4076
  117OSM    C3F12289   6.465   1.848   6.781  0.2057 -0.1710  0.6393
  117OSM    H3F12290   6.371   1.901   6.809  0.8134  0.7640  0.9284
  117OSM    H3G12291   6.498   1.873   6.678  1.6439 -1.6591  0.6969
  117OSM    C4F12292   6.576   1.899   6.881 -1.0132  0.0451  0.3807
  117OSM    H4F12293   6.556   2.006   6.904 -1.7978  0.7519 -3.0402
  117OSM    H4G12294   6.676   1.884   6.834  0.2775  0.1168  2.9134
  117OSM    C5F12295   6.578   1.828   7.020 -0.6871 -0.0734 -0.5036
  117OSM    H5F12296   6.666   1.858   7.081  0.0257 -1.2460 -0.9143
  117OSM    H5G12297   6.586   1.718   7.008  0.0518  0.1995 -3.0436
  117OSM    C6F12298   6.446   1.844   7.102 -0.2672 -0.0744  0.6267
  117OSM    H6F12299   6.352   1.826   7.045  0.6541 -4.2409  0.0770
  117OSM    H6G12300   6.436   1.954   7.112 -1.1247 -0.1908  1.1247
  117OSM    C7F12301   6.440   1.773   7.233  0.4728 -0.1716 -0.1844
  117OSM    H7F12302   6.519   1.830   7.288 -0.7019 -0.2857  1.7288
  117OSM    H7G12303   6.469   1.666   7.237 -1.4551 -0.7401 -0.4364
  117OSM    C8F12304   6.309   1.799   7.309  0.3155  0.5440 -0.3766
  117OSM    H8F12305   6.266   1.900   7.291  0.6041  0.9473  1.1214
  117OSM    H8G12306   6.346   1.796   7.413 -0.9526 -0.2807  0.0710
  117OSM    C9F12307   6.214   1.688   7.273  0.5175  0.2194 -0.2271
  117OSM    H9F12308   6.201   1.671   7.165  1.7728 -2.6895 -0.0050
  117OSM   C10F12309   6.152   1.605   7.359 -0.9409 -0.3853  0.2530
  117OSM   H10F12310   6.096   1.522   7.312  1.4903 -0.6214 -2.5410
  117OSM   C11F12311   6.170   1.598   7.509 -0.1584  0.3291 -0.3905
  117OSM   H11F12312   6.122   1.686   7.557  0.9542  0.1150  1.1905
  117OSM   H11G12313   6.275   1.607   7.545 -0.0206  2.6282 -1.1831
  117OSM   C12F12314   6.111   1.468   7.571 -0.2432 -0.2218  0.2128
  117OSM   H12F12315   6.131   1.459   7.679 -1.2452  1.0876  0.5360
  117OSM   H12G12316   6.159   1.384   7.517 -0.1717 -0.5529  0.7904
  117OSM   C13F12317   5.956   1.442   7.561  0.2898  0.4105  0.4372
  117OSM   H13F12318   5.922   1.434   7.455  0.1824 -0.6539  0.5462
  117OSM   H13G12319   5.909   1.523   7.621 -0.2238 -1.3729  2.5524
  117OSM   C14F12320   5.917   1.311   7.633  0.1172  0.1105  0.1079
  117OSM   H14F12321   5.968   1.313   7.732  0.1362  0.1177  0.0984
  117OSM   H14G12322   5.977   1.233   7.580  1.3502  2.3189 -1.9470
  117OSM   C15F12323   5.766   1.275   7.631  0.2935  0.0826  0.4410
  117OSM   H15F12324   5.744   1.280   7.522 -0.0988  1.6863  0.5690
  117OSM   H15G12325   5.713   1.365   7.670  2.1285  1.7010 -0.6036
  117OSM   C16F12326   5.746   1.128   7.666  0.5322 -0.0833 -0.3285
  117OSM   H16F12327   5.834   1.071   7.629  1.0830 -0.2213  1.1289
  117OSM   H16G12328   5.646   1.095   7.630  0.5185 -1.4554  0.8731
  117OSM   C17F12329   5.741   1.104   7.818 -0.8511 -0.1748 -0.3850
  117OSM   H17F12330   5.737   0.993   7.822 -0.1758 -0.2592 -1.5637
  117OSM   H17G12331   5.837   1.148   7.854  1.4649 -2.0516 -3.7030
  117OSM   C18F12332   5.617   1.152   7.884  0.6341 -0.5295 -0.3396
  117OSM   H18F12333   5.595   1.260   7.869 -1.0511 -1.0059 -1.6066
  117OSM   H18G12334   5.613   1.131   7.993 -0.5023  0.6131 -0.1378
  117OSM   H18H12335   5.527   1.108   7.837 -0.3385  0.6387  0.3378
  118OSM      N12336   3.194   2.927   6.064  0.3631 -0.0945  0.4429
  118OSM    C1512337   3.107   3.030   6.000  0.2955 -0.1580 -0.2612
  118OSM   H15A12338   3.042   3.072   6.075 -0.9563 -0.6688 -1.0296
  118OSM   H15B12339   3.045   2.990   5.920 -0.8184  0.6794  0.1716
  118OSM   H15C12340   3.168   3.111   5.964  4.6184 -2.2113  1.6956
  118OSM    C1412341   3.115   2.806   6.115 -0.6224  0.3229 -0.4844
  118OSM   H14A12342   3.056   2.750   6.044  0.0564  0.1185 -0.8855
  118OSM   H14B12343   3.049   2.826   6.199 -0.5620 -3.7359  0.7015
  118OSM   H14C12344   3.174   2.730   6.164 -2.3392 -1.2498 -0.7467
  118OSM    C1312345   3.285   2.887   5.952  0.0641 -0.0949 -1.1381
  118OSM   H13A12346   3.327   2.974   5.903  2.8782 -0.2050  0.8331
  118OSM   H13B12347   3.238   2.823   5.879 -2.1895  1.5608 -1.2621
  118OSM   H13C12348   3.373   2.845   5.996 -1.0622 -0.5161  0.8186
  118OSM    C1212349   3.274   2.999   6.180 -0.1714  0.5353 -0.7653
  118OSM   H12A12350   3.213   3.033   6.263  2.2163  1.0194  0.9114
  118OSM   H12B12351   3.317   3.088   6.138  1.7045 -0.0822 -0.2514
  118OSM    C1112352   3.388   2.921   6.238 -0.4269  0.9585 -0.3951
  118OSM   H11A12353   3.339   2.834   6.287  1.8509 -0.9246 -1.2710
  118OSM   H11B12354   3.437   2.979   6.320  0.4395 -3.4427  2.5409
  118OSM      P12355   3.572   2.749   6.170 -0.6353 -0.4492  0.1471
  118OSM    O1312356   3.507   2.634   6.110 -0.1712 -0.5588 -0.0950
  118OSM    O1412357   3.708   2.788   6.115  0.3256  0.2219 -0.2506
  118OSM    O1112358   3.577   2.741   6.327 -0.1885  0.3804  0.0761
  118OSM    O1212359   3.481   2.872   6.146  0.1404  0.1182  0.4062
  118OSM    C1S12360   3.666   2.818   6.408  0.0839  0.8281 -0.5163
  118OSM    H1S12361   3.676   2.923   6.373 -0.5298  1.2754  0.5980
  118OSM    H1T12362   3.765   2.769   6.402 -0.4831 -0.7284  1.6025
  118OSM     NF12363   3.709   2.893   6.644  0.0078 -0.5374  0.0439
  118OSM    HNF12364   3.784   2.846   6.690 -0.4553  2.1227  3.9629
  118OSM    C2S12365   3.617   2.823   6.554  0.7306 -0.6462  0.1085
  118OSM    H2S12366   3.517   2.870   6.558  1.1722  0.2376  2.1724
  118OSM    C3S12367   3.578   2.673   6.602  0.0760 -0.3293  0.1560
  118OSM    H3S12368   3.657   2.604   6.563 -1.3269 -2.2814  0.6379
  118OSM     O312369   3.455   2.623   6.535  0.2030 -0.9658  0.0881
  118OSM    HO312370   3.445   2.683   6.460  1.5230 -0.9583 -0.0915
  118OSM    C4S12371   3.581   2.664   6.746 -0.5983 -0.2425 -1.0885
  118OSM    H4S12372   3.683   2.649   6.784 -1.9770 -0.4736  2.9511
  118OSM    C5S12373   3.485   2.685   6.830  0.0826  0.1464 -0.2575
  118OSM    H5S12374   3.384   2.715   6.801  0.1198  0.0700 -0.4656
  118OSM    C6S12375   3.496   2.700   6.980 -0.3107  0.7809  0.7646
  118OSM    H6S12376   3.605   2.706   6.999 -0.1161  3.5886 -0.6884
  118OSM    H6T12377   3.446   2.620   7.039  0.0663  1.0795  1.5028
  118OSM    C7S12378   3.446   2.841   7.021 -0.0979  0.0145  0.2110
  118OSM    H7S12379   3.337   2.843   6.998  0.9399 -0.3581 -7.5759
  118OSM    H7T12380   3.476   2.916   6.946 -0.4379  1.0380  1.0769
  118OSM    C8S12381   3.479   2.878   7.167 -0.0767  0.2684  0.3775
  118OSM    H8S12382   3.455   2.983   7.192  1.6609  0.2712  2.2919
  118OSM    H8T12383   3.589   2.869   7.172 -0.0701  0.9774  3.3482
  118OSM    C9S12384   3.408   2.794   7.272 -0.4369  0.2468 -0.5278
  118OSM    H9S12385   3.440   2.687   7.262  1.0260  0.8484 -3.3284
  118OSM    H9T12386   3.303   2.802   7.237 -0.1321 -1.9119 -2.1566
  118OSM   C10S12387   3.421   2.840   7.420 -0.4429 -0.3781  0.4144
  118OSM   H10S12388   3.320   2.821   7.462 -1.7915  2.2965 -1.3138
  118OSM   H10T12389   3.433   2.950   7.424 -1.1813 -0.1709 -1.6498
  118OSM   C11S12390   3.519   2.770   7.521 -0.5120  0.4665 -0.2890
  118OSM   H11S12391   3.623   2.796   7.493  0.0107 -0.9031  0.3375
  118OSM   H11T12392   3.505   2.660   7.508  3.4506 -0.2358  0.2651
  118OSM   C12S12393   3.485   2.804   7.669 -0.1869 -0.1118 -0.2461
  118OSM   H12S12394   3.476   2.914   7.676 -2.3502 -0.3304  1.2807
  118OSM   H12T12395   3.566   2.759   7.731  0.2407 -1.6214 -1.8048
  118OSM   C13S12396   3.366   2.729   7.724 -0.2073  0.0624  0.3049
  118OSM   H13S12397   3.381   2.619   7.715  0.3746  0.0308  1.4221
  118OSM   H13T12398   3.266   2.743   7.677 -0.7973 -1.0026  1.1720
  118OSM   C14S12399   3.348   2.771   7.872  0.2491  0.4618  0.1306
  118OSM   H14S12400   3.444   2.769   7.927 -0.9665 -0.7618  2.3762
  118OSM   H14T12401   3.281   2.702   7.927 -0.8075  0.3096 -1.2860
  118OSM   C15S12402   3.272   2.906   7.889  0.7594 -0.1124  0.0668
  118OSM   H15S12403   3.165   2.918   7.861  0.7834 -0.4724 -0.1779
  118OSM   H15T12404   3.341   2.965   7.825  2.5999 -1.7462  0.4565
  118OSM   C16S12405   3.305   2.977   8.020  0.6253 -0.5602  0.7287
  118OSM   H16S12406   3.415   2.990   8.033  0.4043  0.4220  1.8089
  118OSM   H16T12407   3.270   2.913   8.104 -2.6229 -1.2585 -1.0054
  118OSM   C17S12408   3.240   3.114   8.033  0.1266  0.7900 -0.6075
  118OSM   H17S12409   3.130   3.098   8.024 -0.1544  1.6420  0.9346
  118OSM   H17T12410   3.268   3.174   7.944 -0.4543  1.8141 -0.1247
  118OSM   C18S12411   3.275   3.191   8.159 -0.9963  0.7432  0.0072
  118OSM   H18S12412   3.218   3.286   8.169 -1.3476  0.4867  0.5177
  118OSM   H18T12413   3.381   3.224   8.161 -0.2681 -1.4505  0.7670
  118OSM   H18U12414   3.260   3.125   8.247  0.4295 -0.5872 -0.6997
  118OSM    C1F12415   3.711   3.034   6.640  0.2702  0.2123 -0.0598
  118OSM     OF12416   3.627   3.091   6.572 -0.0611 -0.0891  0.3643
  118OSM    C2F12417   3.810   3.107   6.715 -0.0892 -0.0560  0.3278
  118OSM    H2F12418   3.876   3.154   6.639  1.8782 -3.2470 -0.1286
  118OSM    H2G12419   3.872   3.034   6.770  2.4882  1.1967 -0.7372
  118OSM    C3F12420   3.753   3.213   6.813  0.5671 -0.0118 -0.2688
  118OSM    H3F12421   3.686   3.172   6.891  1.7546  2.0410  1.9623
  118OSM    H3G12422   3.685   3.279   6.755  0.1950  1.3065  1.5829
  118OSM    C4F12423   3.843   3.311   6.882 -0.1200 -0.6443 -0.3040
  118OSM    H4F12424   3.780   3.397   6.915  1.2028  0.4042 -0.3792
  118OSM    H4G12425   3.909   3.362   6.808 -1.1497  1.6246  0.2594
  118OSM    C5F12426   3.929   3.269   7.001 -0.6493 -0.0461 -0.6154
  118OSM    H5F12427   3.974   3.169   6.982  1.4265  0.7155 -0.0358
  118OSM    H5G12428   3.862   3.263   7.090 -2.2375  0.4717 -1.7335
  118OSM    C6F12429   4.048   3.363   7.040 -0.2373 -0.4895 -0.8600
  118OSM    H6F12430   3.997   3.460   7.060 -2.1156 -1.7749  0.9715
  118OSM    H6G12431   4.133   3.374   6.969  1.1475  0.8880  0.9041
  118OSM    C7F12432   4.113   3.302   7.164  0.2841 -0.4863 -0.3264
  118OSM    H7F12433   4.147   3.199   7.139  1.3219 -0.7161  1.7809
  118OSM    H7G12434   4.032   3.305   7.241 -0.4722  0.7739 -1.1406
  118OSM    C8F12435   4.226   3.391   7.222  0.3495  0.3069 -0.1630
  118OSM    H8F12436   4.314   3.401   7.155  1.6621 -1.4250  1.1905
  118OSM    H8G12437   4.261   3.337   7.313  0.0563 -1.0366 -0.8180
  118OSM    C9F12438   4.185   3.525   7.278 -0.7771 -0.2344  0.1339
  118OSM    H9F12439   4.228   3.603   7.213 -1.7724  0.7781  0.6436
  118OSM   C10F12440   4.103   3.562   7.381  0.3521  0.0218  0.3513
  118OSM   H10F12441   4.099   3.669   7.402  0.7389  0.6560 -2.3626
  118OSM   C11F12442   4.031   3.466   7.470  0.1191 -0.2674 -0.0242
  118OSM   H11F12443   4.070   3.364   7.453  1.0553  0.1520 -0.4950
  118OSM   H11G12444   3.921   3.460   7.462  0.0942 -1.4048  0.8003
  118OSM   C12F12445   4.062   3.517   7.617 -0.5196  0.2241 -0.3719
  118OSM   H12F12446   4.031   3.623   7.629  2.3825  1.4881 -2.8016
  118OSM   H12G12447   4.172   3.521   7.629 -0.5171  1.0471 -0.6146
  118OSM   C13F12448   3.989   3.439   7.724  0.2011 -0.0751 -0.1975
  118OSM   H13F12449   4.020   3.332   7.724  0.3432 -0.0342 -0.9602
  118OSM   H13G12450   3.878   3.447   7.727  0.2523  0.9346 -0.5549
  118OSM   C14F12451   4.021   3.506   7.865  0.2907  0.0044 -0.2909
  118OSM   H14F12452   3.981   3.609   7.855  1.1176  0.3007 -0.7088
  118OSM   H14G12453   4.131   3.522   7.867  0.1143  1.3292  1.0624
  118OSM   C15F12454   3.973   3.445   7.991 -0.1015  0.9439  0.1472
  118OSM   H15F12455   4.017   3.345   8.015 -2.4213 -0.2116 -0.0857
  118OSM   H15G12456   3.862   3.441   7.991 -0.1630  2.0857 -0.7248
  118OSM   C16F12457   3.990   3.539   8.110 -0.1418  0.2521  0.1010
  118OSM   H16F12458   3.945   3.500   8.205 -0.2916 -0.4139 -0.2323
  118OSM   H16G12459   3.950   3.640   8.086  1.2631  0.2448 -2.6652
  118OSM   C17F12460   4.139   3.572   8.143  0.1358  0.1994  1.1510
  118OSM   H17F12461   4.180   3.653   8.078 -2.1905  0.9641  0.5526
  118OSM   H17G12462   4.195   3.477   8.132  0.3171  0.2878  1.3085
  118OSM   C18F12463   4.169   3.622   8.282 -0.7225  0.4590  0.1730
  118OSM   H18F12464   4.270   3.666   8.276  0.2032 -1.6746 -1.2243
  118OSM   H18G12465   4.182   3.534   8.349  0.1112 -0.8679 -1.6336
  118OSM   H18H12466   4.089   3.689   8.320 -3.5483 -2.7178  0.3266
  119OSM      N12467   5.174   3.669   5.755 -0.1668 -0.2786 -1.0556
  119OSM    C1512468   5.149   3.757   5.643  0.4223  0.0280 -0.3194
  119OSM   H15A12469   5.055   3.731   5.596  0.1081 -0.9999  0.8303
  119OSM   H15B12470   5.224   3.748   5.566  0.1353 -6.4095 -0.4043
  119OSM   H15C12471   5.143   3.857   5.683  0.9414 -0.9540  2.4552
  119OSM    C1412472   5.179   3.527   5.695  0.4029  0.2327 -0.1967
  119OSM   H14A12473   5.081   3.512   5.652 -0.0286  3.6530 -0.7171
  119OSM   H14B12474   5.212   3.455   5.769 -2.0137 -0.4439  0.3208
  119OSM   H14C12475   5.247   3.516   5.612  1.6492 -2.0129  1.0031
  119OSM    C1312476   5.302   3.705   5.817  0.0985 -0.2438 -0.5646
  119OSM   H13A12477   5.378   3.688   5.743  0.0490  2.2176 -1.2559
  119OSM   H13B12478   5.305   3.643   5.906 -0.5041  0.6885  0.1158
  119OSM   H13C12479   5.305   3.807   5.850  0.4632 -0.3058 -0.4065
  119OSM    C1212480   5.066   3.686   5.863  0.1803  0.5889 -0.0266
  119OSM   H12A12481   4.970   3.664   5.818 -1.2765  2.1561  2.1259
  119OSM   H12B12482   5.044   3.789   5.887 -0.1603  0.9394 -1.6897
  119OSM    C1112483   5.075   3.612   5.996 -0.1628  0.0607  0.5341
  119OSM   H11A12484   5.000   3.640   6.073  1.2426 -0.2301  2.0485
  119OSM   H11B12485   5.166   3.655   6.043 -0.9807  2.9328 -0.2779
  119OSM      P12486   4.951   3.391   5.939  0.3464  0.0023 -0.4292
  119OSM    O1312487   4.878   3.471   5.837  0.6397 -0.2969  0.1239
  119OSM    O1412488   4.991   3.251   5.900  0.5616 -0.0703 -0.5049
  119OSM    O1112489   4.872   3.391   6.073  0.2627  0.6338  0.0074
  119OSM    O1212490   5.088   3.470   5.980 -0.3723  0.4671 -0.7835
  119OSM    C1S12491   4.885   3.286   6.176 -0.4665 -0.3568  0.5502
  119OSM    H1S12492   4.983   3.243   6.147 -0.4952  1.5504 -2.8391
  119OSM    H1T12493   4.813   3.203   6.158 -2.0154  1.1775 -0.6450
  119OSM     NF12494   4.920   3.209   6.398  0.2162  0.0227  0.1873
  119OSM    HNF12495   4.845   3.151   6.429 -0.0725 -0.6384 -1.6430
  119OSM    C2S12496   4.887   3.327   6.327  0.7535 -0.7988  0.4731
  119OSM    H2S12497   4.959   3.411   6.337 -2.9055  2.5703  0.5227
  119OSM    C3S12498   4.752   3.387   6.354 -0.2959 -0.3096  1.4361
  119OSM    H3S12499   4.673   3.309   6.352 -1.7760  1.1216  1.9363
  119OSM     O312500   4.715   3.487   6.262 -0.4035 -0.1954  0.2501
  119OSM    HO312501   4.774   3.474   6.188 -0.8145  2.1183 -0.5649
  119OSM    C4S12502   4.755   3.438   6.494  0.1370  0.9095 -1.2131
  119OSM    H4S12503   4.735   3.358   6.566  1.2374  2.5244  1.0011
  119OSM    C5S12504   4.777   3.559   6.549  0.5837 -0.0918 -0.2988
  119OSM    H5S12505   4.810   3.642   6.485 -1.6938  0.0227 -1.4428
  119OSM    C6S12506   4.771   3.577   6.702 -0.1539 -0.3924 -0.5512
  119OSM    H6S12507   4.863   3.632   6.731 -0.2076 -0.9814  0.8061
  119OSM    H6T12508   4.762   3.482   6.758  0.5440  1.0862  2.2292
  119OSM    C7S12509   4.654   3.668   6.738  0.4826 -0.6930 -0.7372
  119OSM    H7S12510   4.556   3.621   6.716  0.5961 -0.4598 -1.7823
  119OSM    H7T12511   4.660   3.763   6.680 -0.9814 -0.1083  0.0149
  119OSM    C8S12512   4.652   3.713   6.888 -0.2227 -0.3156  0.0675
  119OSM    H8S12513   4.741   3.777   6.905 -0.6784 -0.0886  1.8641
  119OSM    H8T12514   4.645   3.623   6.953  0.2726 -0.1672  0.3353
  119OSM    C9S12515   4.527   3.801   6.928 -0.6527 -0.3069  0.3593
  119OSM    H9S12516   4.444   3.728   6.934 -0.2217 -0.7897  0.5757
  119OSM    H9T12517   4.507   3.875   6.848  0.7795  2.5219  2.4019
  119OSM   C10S12518   4.548   3.878   7.059 -0.4983 -0.0510  0.1201
  119OSM   H10S12519   4.472   3.958   7.068  0.5424  0.7917  2.1416
  119OSM   H10T12520   4.653   3.916   7.061 -0.3512 -0.4779  1.1731
  119OSM   C11S12521   4.533   3.789   7.182  0.1099  0.4414 -0.4491
  119OSM   H11S12522   4.622   3.724   7.194  0.1439  0.5870  0.0948
  119OSM   H11T12523   4.441   3.730   7.161 -1.3144  1.6190  2.0263
  119OSM   C12S12524   4.517   3.872   7.307 -0.1599 -0.4702 -0.0792
  119OSM   H12S12525   4.434   3.943   7.283 -0.7869 -1.4113 -0.7953
  119OSM   H12T12526   4.607   3.935   7.323 -0.9880  0.3004  1.8735
  119OSM   C13S12527   4.495   3.787   7.429 -0.1602 -0.3307  0.0324
  119OSM   H13S12528   4.588   3.730   7.452  1.4320  1.8169 -0.6983
  119OSM   H13T12529   4.406   3.724   7.408 -1.5115  1.5205 -0.0303
  119OSM   C14S12530   4.447   3.873   7.550  0.1380  0.3312 -0.4234
  119OSM   H14S12531   4.362   3.931   7.510  0.4056  0.3175 -1.0170
  119OSM   H14T12532   4.531   3.922   7.603 -0.6701  1.2432  0.0441
  119OSM   C15S12533   4.387   3.767   7.653  0.6650 -0.8085 -0.1500
  119OSM   H15S12534   4.475   3.704   7.682  1.1088 -0.0155  0.2591
  119OSM   H15T12535   4.304   3.713   7.603 -1.7888  0.7961  1.9955
  119OSM   C16S12536   4.341   3.829   7.786  0.3477  0.5359  0.0237
  119OSM   H16S12537   4.308   3.747   7.853  3.1004 -1.4627 -0.8785
  119OSM   H16T12538   4.250   3.892   7.771  0.9426  0.8972 -2.5808
  119OSM   C17S12539   4.444   3.905   7.861 -0.0236 -0.3752  0.2019
  119OSM   H17S12540   4.464   3.991   7.793  1.6801  0.2842  1.4717
  119OSM   H17T12541   4.543   3.861   7.883  0.8530  1.4402  0.0589
  119OSM   C18S12542   4.383   3.979   7.974  0.6067  0.1125 -0.5499
  119OSM   H18S12543   4.333   3.910   8.045 -0.7722  0.1860 -1.4114
  119OSM   H18T12544   4.303   4.035   7.921  0.4564 -0.1045 -0.5544
  119OSM   H18U12545   4.458   4.045   8.022 -1.0934  0.9368  1.0809
  119OSM    C1F12546   5.045   3.164   6.407 -0.7515  0.0234  0.7418
  119OSM     OF12547   5.135   3.229   6.350  0.1166 -0.0413  0.1272
  119OSM    C2F12548   5.067   3.035   6.477 -0.7775  0.1790  0.6486
  119OSM    H2F12549   5.073   2.955   6.400 -0.6979  0.2258  0.6063
  119OSM    H2G12550   4.985   3.020   6.550 -0.9006  1.6578  0.8550
  119OSM    C3F12551   5.208   3.036   6.547  0.3441 -0.2607  0.6302
  119OSM    H3F12552   5.280   3.034   6.463 -1.0353 -1.2129 -0.5976
  119OSM    H3G12553   5.207   2.932   6.585 -0.8421 -0.6341 -0.3561
  119OSM    C4F12554   5.214   3.144   6.653 -0.7212  0.0201 -0.4064
  119OSM    H4F12555   5.115   3.150   6.702 -0.8319 -1.6401 -0.3450
  119OSM    H4G12556   5.225   3.247   6.615 -0.6369  0.2212  0.1545
  119OSM    C5F12557   5.309   3.111   6.768  0.2298 -0.2537  0.0014
  119OSM    H5F12558   5.322   3.204   6.826 -0.4741  0.3974 -0.8527
  119OSM    H5G12559   5.409   3.068   6.743  0.7148  0.9913 -0.2685
  119OSM    C6F12560   5.245   3.019   6.877 -0.4476 -0.5978 -0.2136
  119OSM    H6F12561   5.243   2.912   6.849 -3.5438 -0.4136 -1.1027
  119OSM    H6G12562   5.139   3.050   6.889  0.3159  2.2184  0.0502
  119OSM    C7F12563   5.318   3.028   7.007 -0.5917  0.6465  0.0034
  119OSM    H7F12564   5.426   3.020   6.982 -1.1894 -2.1511 -2.0824
  119OSM    H7G12565   5.319   2.935   7.067 -0.1064  1.1097  0.7436
  119OSM    C8F12566   5.289   3.146   7.102  0.5079 -0.1709 -0.1127
  119OSM    H8F12567   5.182   3.147   7.132 -0.1645  0.6812 -2.3297
  119OSM    H8G12568   5.305   3.243   7.052  0.6634 -0.5467 -0.7969
  119OSM    C9F12569   5.372   3.138   7.229 -0.2767 -0.2346  0.0857
  119OSM    H9F12570   5.470   3.182   7.205 -0.2605  0.6079  1.6043
  119OSM   C10F12571   5.332   3.096   7.356  0.6171  0.3560  0.5856
  119OSM   H10F12572   5.415   3.099   7.429  1.4215 -0.7546 -0.2492
  119OSM   C11F12573   5.194   3.043   7.387 -0.0755 -0.2415 -0.0657
  119OSM   H11F12574   5.208   2.967   7.467  4.1094  0.8598  0.5126
  119OSM   H11G12575   5.149   2.995   7.297  1.0827 -1.6172  0.0543
  119OSM   C12F12576   5.103   3.160   7.440  0.4139  0.6329  0.2789
  119OSM   H12F12577   5.093   3.240   7.363 -2.2414  0.0024 -0.1123
  119OSM   H12G12578   5.149   3.208   7.529 -2.5756  1.3418  1.5494
  119OSM   C13F12579   4.957   3.131   7.482  0.0027 -0.2694  0.3998
  119OSM   H13F12580   4.918   3.060   7.406  1.5517  0.1566 -0.8423
  119OSM   H13G12581   4.889   3.219   7.488  0.1915 -0.1800  1.3161
  119OSM   C14F12582   4.953   3.056   7.620  0.3473 -0.9656  0.3461
  119OSM   H14F12583   5.004   2.957   7.616 -0.9856 -1.7277  1.6051
  119OSM   H14G12584   4.847   3.025   7.624 -0.5140  1.7057 -0.2307
  119OSM   C15F12585   4.992   3.148   7.736  0.0845 -0.2036 -0.3451
  119OSM   H15F12586   4.903   3.154   7.802  0.4721  2.3279  0.0294
  119OSM   H15G12587   5.012   3.249   7.694  0.7122 -0.4893 -0.7387
  119OSM   C16F12588   5.115   3.088   7.810  0.3090 -0.1808 -0.0647
  119OSM   H16F12589   5.189   3.065   7.731  0.5388 -0.4072  0.2123
  119OSM   H16G12590   5.076   2.993   7.852  1.4642 -1.0486 -0.9065
  119OSM   C17F12591   5.173   3.178   7.915 -0.2817 -0.2235  0.2538
  119OSM   H17F12592   5.095   3.210   7.987 -0.6981 -0.4934 -0.0716
  119OSM   H17G12593   5.211   3.266   7.859 -1.5365 -0.5658 -1.1986
  119OSM   C18F12594   5.283   3.112   7.992 -0.2572 -0.2363 -0.2537
  119OSM   H18F12595   5.344   3.056   7.918 -1.0943  0.4742 -1.5272
  119OSM   H18G12596   5.237   3.040   8.062  0.2234 -0.0214  0.2908
  119OSM   H18H12597   5.347   3.183   8.049  0.5613  0.8369 -2.3616
  120OSM      N12598   0.084   0.250   6.268  0.5849  0.0945  0.2611
  120OSM    C1512599  -0.061   0.287   6.242 -0.3674 -0.9138  0.0385
  120OSM   H15A12600  -0.103   0.201   6.190  1.6812 -1.2346 -1.2037
  120OSM   H15B12601  -0.065   0.374   6.178 -1.3445 -2.2437 -1.8190
  120OSM   H15C12602  -0.111   0.304   6.336 -0.5180 -0.3082 -0.1505
  120OSM    C1412603   0.143   0.197   6.141  0.7258 -0.5609  0.5660
  120OSM   H14A12604   0.156   0.281   6.074 -0.8863  0.5319  1.5531
  120OSM   H14B12605   0.082   0.130   6.082 -2.1437  1.1939  1.3244
  120OSM   H14C12606   0.241   0.158   6.166  0.4472 -1.9151 -0.3230
  120OSM    C1312607   0.163   0.364   6.312  0.4669  0.6443 -0.0390
  120OSM   H13A12608   0.177   0.450   6.249 -1.8291  1.0100 -0.1497
  120OSM   H13B12609   0.257   0.326   6.348 -0.4746  0.3855  2.3473
  120OSM   H13C12610   0.120   0.398   6.405  3.1226 -0.9721  1.9462
  120OSM    C1212611   0.081   0.132   6.367 -0.7716 -0.5045  0.1356
  120OSM   H12A12612   0.043   0.047   6.312  1.3630 -1.5030  0.1023
  120OSM   H12B12613   0.014   0.147   6.451 -0.1918  0.8863  0.3881
  120OSM    C1112614   0.214   0.094   6.429 -0.0904  0.1361  0.4723
  120OSM   H11A12615   0.202  -0.004   6.480  1.3244 -1.5826 -2.2418
  120OSM   H11B12616   0.254   0.169   6.500 -1.2817  0.0828  1.2299
  120OSM      P12617   0.397  -0.057   6.303  0.0734 -0.1180  0.6044
  120OSM    O1312618   0.308  -0.151   6.233 -0.4294  0.3729  0.1945
  120OSM    O1412619   0.528  -0.030   6.243  0.0957  0.0970 -0.8238
  120OSM    O1112620   0.417  -0.117   6.451  0.3648 -0.2956  0.4655
  120OSM    O1212621   0.316   0.078   6.330 -0.2972 -0.1169  0.2960
  120OSM    C1S12622   0.504  -0.053   6.549 -0.3597 -0.3934  0.6179
  120OSM    H1S12623   0.471   0.050   6.577 -0.9022 -0.6562  0.9482
  120OSM    H1T12624   0.611  -0.044   6.518  0.4820 -0.3802  3.3180
  120OSM     NF12625   0.550  -0.082   6.797  0.4131 -0.5486  0.6665
  120OSM    HNF12626   0.645  -0.070   6.823  0.9292  0.0945 -1.3552
  120OSM    C2S12627   0.524  -0.150   6.672 -0.0673 -0.3810  0.0204
  120OSM    H2S12628   0.427  -0.201   6.689  0.2832 -1.4129 -0.9174
  120OSM    C3S12629   0.620  -0.275   6.642  0.1759 -0.3115 -0.0158
  120OSM    H3S12630   0.725  -0.242   6.626  0.3686  0.1093  1.8560
  120OSM     O312631   0.577  -0.352   6.523  0.3963  0.1165  0.4651
  120OSM    HO312632   0.523  -0.284   6.481 -1.7710 -1.9060 -0.2489
  120OSM    C4S12633   0.609  -0.376   6.758 -0.0013 -0.0523  0.5252
  120OSM    H4S12634   0.506  -0.384   6.794 -0.6371 -0.4829 -1.2812
  120OSM    C5S12635   0.712  -0.435   6.827  0.1250  0.3561 -0.3803
  120OSM    H5S12636   0.816  -0.425   6.793 -0.0427 -2.6889 -2.0597
  120OSM    C6S12637   0.705  -0.525   6.948 -0.7354  0.0145  0.0579
  120OSM    H6S12638   0.753  -0.622   6.928 -1.4350 -0.3046 -0.1027
  120OSM    H6T12639   0.596  -0.540   6.963 -1.1039 -0.0732 -2.3375
  120OSM    C7S12640   0.768  -0.475   7.075  0.4984 -0.0561  0.2795
  120OSM    H7S12641   0.873  -0.441   7.061  0.0079  1.4856  0.1477
  120OSM    H7T12642   0.777  -0.554   7.153 -2.5368 -0.2035  0.5941
  120OSM    C8S12643   0.685  -0.361   7.138  0.1331  0.2137  0.7565
  120OSM    H8S12644   0.589  -0.393   7.184 -1.5379  2.1223 -1.1430
  120OSM    H8T12645   0.664  -0.297   7.050  0.8611 -1.0954 -0.4044
  120OSM    C9S12646   0.755  -0.277   7.245 -0.2829  0.4139 -0.3995
  120OSM    H9S12647   0.684  -0.210   7.298  0.0810  0.2097  0.3530
  120OSM    H9T12648   0.827  -0.204   7.203 -0.7083 -0.6030 -3.1235
  120OSM   C10S12649   0.836  -0.358   7.352  0.1716 -0.2133 -0.3115
  120OSM   H10S12650   0.922  -0.413   7.308  0.6116  1.7044 -2.0537
  120OSM   H10T12651   0.766  -0.433   7.395  1.6921  0.5452  3.9346
  120OSM   C11S12652   0.892  -0.265   7.456 -0.3755 -0.1928  0.3218
  120OSM   H11S12653   0.806  -0.230   7.517 -1.2031 -1.3244 -0.1497
  120OSM   H11T12654   0.940  -0.171   7.422 -2.0717  0.7300  0.3580
  120OSM   C12S12655   0.982  -0.343   7.555  0.2493  0.3547 -0.7475
  120OSM   H12S12656   1.077  -0.384   7.515 -1.2378 -2.6279 -1.4581
  120OSM   H12T12657   0.923  -0.435   7.574 -0.4520  0.6699 -1.3649
  120OSM   C13S12658   1.001  -0.272   7.691 -0.2150  0.1188 -0.1980
  120OSM   H13S12659   0.910  -0.216   7.723  0.0968 -0.5236  1.9729
  120OSM   H13T12660   1.072  -0.190   7.669 -0.5669  0.2714 -0.7801
  120OSM   C14S12661   1.056  -0.361   7.811 -0.1613  0.4515 -0.0315
  120OSM   H14S12662   1.147  -0.421   7.788  0.4018  1.4604 -0.5014
  120OSM   H14T12663   0.971  -0.430   7.831 -1.4477  1.1658 -2.5986
  120OSM   C15S12664   1.095  -0.286   7.940  0.0447  0.1570  0.3652
  120OSM   H15S12665   1.007  -0.233   7.982  0.4597  0.3596  0.9850
  120OSM   H15T12666   1.178  -0.214   7.925 -0.7055  1.3548  1.7881
  120OSM   C16S12667   1.140  -0.396   8.036 -0.7373 -0.2268 -0.0582
  120OSM   H16S12668   1.232  -0.440   7.993 -1.3033 -0.7315 -0.7628
  120OSM   H16T12669   1.064  -0.476   8.030  0.0742 -1.0298  0.2629
  120OSM   C17S12670   1.174  -0.348   8.179  0.1747  0.0304  0.1476
  120OSM   H17S12671   1.082  -0.322   8.235 -1.3923 -0.1652 -2.1850
  120OSM   H17T12672   1.241  -0.260   8.184 -0.7412  0.7957 -0.7559
  120OSM   C18S12673   1.249  -0.457   8.264  0.5345  0.3160  0.1429
  120OSM   H18S12674   1.277  -0.414   8.363  0.6789 -1.1040  0.7337
  120OSM   H18T12675   1.345  -0.480   8.214  0.0860 -0.5118 -0.3497
  120OSM   H18U12676   1.189  -0.550   8.275  2.4088 -0.9864 -0.2502
  120OSM    C1F12677   0.467  -0.001   6.854  0.0249  0.2756  0.1917
  120OSM     OF12678   0.347  -0.000   6.824 -0.0979  0.9319 -0.0877
  120OSM    C2F12679   0.519   0.095   6.960  0.3372 -0.3130 -0.3358
  120OSM    H2F12680   0.444   0.177   6.951 -3.1113 -3.4295 -3.0554
  120OSM    H2G12681   0.624   0.126   6.937  0.0327  1.3703  0.3945
  120OSM    C3F12682   0.520   0.051   7.108 -0.0691  0.6359 -0.2591
  120OSM    H3F12683   0.550   0.134   7.176  1.5500 -0.2069  0.1146
  120OSM    H3G12684   0.604  -0.021   7.106  0.3996  1.1389 -2.6172
  120OSM    C4F12685   0.394  -0.000   7.165 -0.2893 -0.0576  0.2620
  120OSM    H4F12686   0.339  -0.065   7.094 -1.6334  0.9261  0.3556
  120OSM    H4G12687   0.330   0.088   7.189  0.3298 -0.0443  1.9965
  120OSM    C5F12688   0.414  -0.092   7.285 -0.0786  0.6923  0.6729
  120OSM    H5F12689   0.483  -0.177   7.262 -1.1811  0.4858 -2.1365
  120OSM    H5G12690   0.311  -0.130   7.300 -0.0017  0.6132  1.0155
  120OSM    C6F12691   0.465  -0.020   7.409  0.2866  0.8451 -0.3599
  120OSM    H6F12692   0.405   0.067   7.443  1.3021  0.7849  1.7111
  120OSM    H6G12693   0.560   0.030   7.380 -0.7412  3.5314  0.6096
  120OSM    C7F12694   0.482  -0.122   7.525 -0.1870  0.4931  0.6492
  120OSM    H7F12695   0.532  -0.217   7.495  0.9854  0.8442  1.4263
  120OSM    H7G12696   0.380  -0.146   7.561 -0.6512  1.4155 -0.0152
  120OSM    C8F12697   0.583  -0.088   7.642 -0.6264 -0.4019  0.1661
  120OSM    H8F12698   0.681  -0.075   7.592 -0.7051  0.2974  0.1866
  120OSM    H8G12699   0.581  -0.174   7.712 -2.5641 -0.8345 -0.3430
  120OSM    C9F12700   0.542   0.042   7.704 -0.5119 -0.8964 -0.3447
  120OSM    H9F12701   0.468   0.112   7.662 -2.1862 -2.5414 -0.3019
  120OSM   C10F12702   0.583   0.085   7.827  0.3455  0.6973  0.0524
  120OSM   H10F12703   0.550   0.186   7.856  0.3005  0.3494  1.2805
  120OSM   C11F12704   0.650  -0.000   7.927  0.4897  0.0457 -0.8075
  120OSM   H11F12705   0.669  -0.103   7.889 -1.2369 -0.2843 -0.8339
  120OSM   H11G12706   0.576  -0.014   8.008 -2.0865 -0.8013 -3.1580
  120OSM   C12F12707   0.769   0.062   7.998 -0.1145  0.0827 -0.2466
  120OSM   H12F12708   0.800  -0.015   8.072  1.3616 -0.4662 -1.3862
  120OSM   H12G12709   0.745   0.146   8.067  2.7931  0.0789  0.9068
  120OSM   C13F12710   0.881   0.104   7.905  0.1562  0.0981  0.0418
  120OSM   H13F12711   0.842   0.196   7.857 -0.0791  0.2555  0.5307
  120OSM   H13G12712   0.913   0.034   7.825  0.1602 -1.0584  1.0225
  120OSM   C14F12713   0.998   0.135   7.994  0.0852  0.2146 -0.1972
  120OSM   H14F12714   1.078   0.122   7.919 -0.6071 -0.8527 -0.7654
  120OSM   H14G12715   1.010   0.055   8.070 -1.1200 -0.5654 -0.8058
  120OSM   C15F12716   1.004   0.276   8.050 -0.3310  0.1618  0.1386
  120OSM   H15F12717   0.937   0.285   8.139 -0.1851  0.6748  0.2013
  120OSM   H15G12718   0.978   0.347   7.969 -2.1159  0.9144  1.2990
  120OSM   C16F12719   1.147   0.315   8.098 -0.1517  0.1369 -0.1586
  120OSM   H16F12720   1.176   0.422   8.087  0.1781  0.4879  3.2776
  120OSM   H16G12721   1.220   0.242   8.057 -0.4933 -2.2199  3.0962
  120OSM   C17F12722   1.166   0.294   8.253  0.6058  0.5910 -0.5148
  120OSM   H17F12723   1.145   0.189   8.283  1.5376  0.6049  0.2330
  120OSM   H17G12724   1.097   0.364   8.304 -1.3399 -1.1829 -0.5876
  120OSM   C18F12725   1.316   0.316   8.291  0.5208 -0.6728 -0.6395
  120OSM   H18F12726   1.325   0.302   8.401 -0.4866 -0.4566 -0.5220
  120OSM   H18G12727   1.360   0.411   8.256  0.2152 -0.2250  0.1755
  120OSM   H18H12728   1.378   0.236   8.244  1.4320  0.5857 -1.6354
  121OSM      N12729   4.521   1.823   6.039 -0.5975  0.6395 -0.7082
  121OSM    C1512730   4.507   1.926   5.928  0.1976 -0.4138  0.2880
  121OSM   H15A12731   4.466   2.016   5.972 -0.2073 -0.0635 -0.7844
  121OSM   H15B12732   4.432   1.890   5.860 -1.2858  1.6968  0.6894
  121OSM   H15C12733   4.602   1.955   5.884 -1.0415  1.1985 -1.4840
  121OSM    C1412734   4.565   1.689   5.978  0.1514  0.2628 -0.5125
  121OSM   H14A12735   4.672   1.687   5.964  0.2313  1.1596 -0.0830
  121OSM   H14B12736   4.517   1.662   5.885 -1.4688 -0.4829  0.4780
  121OSM   H14C12737   4.557   1.609   6.050  0.7542  0.7182  0.0753
  121OSM    C1312738   4.625   1.875   6.131  0.3261 -0.0705 -0.0223
  121OSM   H13A12739   4.719   1.873   6.077 -0.1465  0.9351 -0.9192
  121OSM   H13B12740   4.640   1.812   6.217 -0.4080 -2.1183 -1.3115
  121OSM   H13C12741   4.599   1.972   6.169 -2.1281 -1.5733  2.5157
  121OSM    C1212742   4.387   1.825   6.107 -0.0304  0.4406 -0.6574
  121OSM   H12A12743   4.315   1.788   6.036 -1.6071 -3.6715  2.6458
  121OSM   H12B12744   4.362   1.927   6.133 -0.8942  0.8749 -2.9201
  121OSM    C1112745   4.369   1.737   6.236 -0.3006  0.1610 -0.3916
  121OSM   H11A12746   4.276   1.769   6.287  0.3235 -0.1712  1.0312
  121OSM   H11B12747   4.457   1.738   6.305  0.5058 -0.1853 -1.3883
  121OSM      P12748   4.218   1.550   6.120  0.3110  0.1887  0.2131
  121OSM    O1312749   4.160   1.658   6.041 -0.2056  0.3621  0.7099
  121OSM    O1412750   4.244   1.420   6.055  0.0850 -0.1066 -0.2022
  121OSM    O1112751   4.121   1.531   6.243 -0.2891 -0.1804  0.2930
  121OSM    O1212752   4.346   1.602   6.190 -0.0697 -0.0224  0.5665
  121OSM    C1S12753   4.167   1.497   6.375 -0.0404 -0.6646 -0.2922
  121OSM    H1S12754   4.277   1.486   6.389 -0.2267 -1.4473  0.6247
  121OSM    H1T12755   4.134   1.393   6.391 -1.3883 -0.0452  1.3174
  121OSM     NF12756   4.109   1.504   6.618 -1.2158 -0.6434  0.0407
  121OSM    HNF12757   4.031   1.450   6.650 -1.4125  0.7275  2.0667
  121OSM    C2S12758   4.113   1.587   6.493  0.6226 -0.2200  0.2229
  121OSM    H2S12759   4.191   1.664   6.513  0.9266 -0.4899  0.0862
  121OSM    C3S12760   3.974   1.649   6.471 -0.0740 -0.3311 -0.1124
  121OSM    H3S12761   3.899   1.577   6.431 -0.7598  0.5164 -0.3816
  121OSM     O312762   3.979   1.749   6.368 -0.1944 -0.1504 -0.0157
  121OSM    HO312763   4.064   1.733   6.327 -0.2506  0.6530 -0.4659
  121OSM    C4S12764   3.915   1.711   6.597 -0.5276 -0.2031  0.5303
  121OSM    H4S12765   3.967   1.803   6.627 -1.6935  1.4535 -2.1201
  121OSM    C5S12766   3.815   1.669   6.670 -0.1776 -0.1799 -0.0395
  121OSM    H5S12767   3.750   1.596   6.619 -0.3890 -0.7956  1.0806
  121OSM    C6S12768   3.748   1.746   6.780 -0.2115 -0.2314 -0.2845
  121OSM    H6S12769   3.640   1.763   6.759 -0.7280  2.1044  3.2049
  121OSM    H6T12770   3.787   1.850   6.788 -1.8235  0.4424 -0.6462
  121OSM    C7S12771   3.763   1.661   6.908  1.0137  0.0120  0.3525
  121OSM    H7S12772   3.865   1.626   6.937  2.3405  2.6891 -0.6702
  121OSM    H7T12773   3.697   1.573   6.920 -1.4448  1.7665  0.5406
  121OSM    C8S12774   3.717   1.751   7.027  0.6469 -0.0756 -0.4979
  121OSM    H8S12775   3.624   1.802   6.996  1.5318  0.2757 -2.7901
  121OSM    H8T12776   3.776   1.845   7.030  1.4209 -0.5679  1.0361
  121OSM    C9S12777   3.722   1.684   7.165  0.4046 -0.8010 -0.4976
  121OSM    H9S12778   3.823   1.656   7.201  0.1791 -0.6195  0.3175
  121OSM    H9T12779   3.668   1.587   7.153  1.7414 -1.4030 -1.9573
  121OSM   C10S12780   3.661   1.781   7.276 -0.0650  0.8288 -0.0762
  121OSM   H10S12781   3.553   1.801   7.260 -0.9854 -1.4111  2.4624
  121OSM   H10T12782   3.725   1.872   7.282  0.7352  0.3829 -1.4444
  121OSM   C11S12783   3.662   1.718   7.411 -0.6555  0.4433 -0.8116
  121OSM   H11S12784   3.751   1.744   7.472 -1.5603  0.2052  0.6350
  121OSM   H11T12785   3.667   1.607   7.409  0.8964  0.4837 -0.1704
  121OSM   C12S12786   3.528   1.747   7.493  0.6083 -0.5914  0.0355
  121OSM   H12S12787   3.452   1.698   7.428  0.0058 -0.4270  0.5983
  121OSM   H12T12788   3.508   1.856   7.485 -0.8106 -0.8697 -0.6449
  121OSM   C13S12789   3.525   1.675   7.632 -1.0088 -0.7909 -0.4983
  121OSM   H13S12790   3.578   1.577   7.626 -0.0058 -0.2760 -0.3298
  121OSM   H13T12791   3.422   1.650   7.663 -1.3095  0.9126 -0.0073
  121OSM   C14S12792   3.588   1.762   7.739  0.5611 -0.2599  0.4403
  121OSM   H14S12793   3.516   1.843   7.762  0.9880 -0.0193  0.9800
  121OSM   H14T12794   3.676   1.810   7.691  0.4660  0.5121  1.0170
  121OSM   C15S12795   3.628   1.684   7.863 -0.0594  0.2694  0.1416
  121OSM   H15S12796   3.700   1.604   7.838 -1.4342 -1.0918  0.4392
  121OSM   H15T12797   3.535   1.637   7.900 -0.5104  2.4750  2.0251
  121OSM   C16S12798   3.699   1.757   7.978  0.2527 -0.2309 -0.2400
  121OSM   H16S12799   3.783   1.820   7.941 -0.0771  0.2391 -0.2034
  121OSM   H16T12800   3.748   1.684   8.047  1.2763 -2.2328 -2.9264
  121OSM   C17S12801   3.599   1.838   8.071 -1.2501  0.6461  0.2286
  121OSM   H17S12802   3.523   1.761   8.098 -1.0254  0.5622  0.6196
  121OSM   H17T12803   3.561   1.920   8.005 -0.3578  1.4697  0.7168
  121OSM   C18S12804   3.651   1.878   8.207 -0.1276 -0.3664  0.4858
  121OSM   H18S12805   3.592   1.961   8.251  1.2920  1.0164 -0.0929
  121OSM   H18T12806   3.759   1.904   8.204  0.0559 -0.4595  3.6068
  121OSM   H18U12807   3.650   1.795   8.281  2.6171 -0.1609  0.8711
  121OSM    C1F12808   4.222   1.468   6.688 -0.2500  0.0279  0.2290
  121OSM     OF12809   4.331   1.516   6.660  0.1798  0.0197  0.6120
  121OSM    C2F12810   4.214   1.352   6.773  0.2981 -0.0015  0.2691
  121OSM    H2F12811   4.316   1.328   6.810 -0.3151 -2.3075  0.6627
  121OSM    H2G12812   4.188   1.267   6.706  0.6271  0.2324 -0.1587
  121OSM    C3F12813   4.119   1.358   6.901 -0.3861 -0.0861 -0.2179
  121OSM    H3F12814   4.107   1.253   6.937  3.3963 -0.4462  0.4329
  121OSM    H3G12815   4.023   1.397   6.862  0.2905  0.9530 -0.8762
  121OSM    C4F12816   4.171   1.448   7.013 -0.8404 -0.0240 -0.6321
  121OSM    H4F12817   4.189   1.552   6.976 -1.0221 -0.3133 -1.5487
  121OSM    H4G12818   4.274   1.417   7.038 -1.1128 -0.0636  0.4842
  121OSM    C5F12819   4.069   1.449   7.124 -0.2173  1.1147 -0.5739
  121OSM    H5F12820   4.057   1.348   7.167 -1.0365  0.4901 -2.1604
  121OSM    H5G12821   3.970   1.472   7.079 -0.1535 -1.7465 -2.3917
  121OSM    C6F12822   4.107   1.541   7.242 -0.3165 -0.3872 -0.6193
  121OSM    H6F12823   4.111   1.647   7.211 -1.8644 -0.2590 -0.4291
  121OSM    H6G12824   4.212   1.508   7.257 -0.1021  0.3892 -0.3692
  121OSM    C7F12825   4.020   1.519   7.362  0.0760  0.3280  0.0401
  121OSM    H7F12826   4.070   1.430   7.407 -0.4754  0.9540  2.0253
  121OSM    H7G12827   3.914   1.509   7.328  0.6899  0.8235 -2.1448
  121OSM    C8F12828   4.025   1.619   7.475  0.2707 -0.3264 -0.9390
  121OSM    H8F12829   3.975   1.713   7.441  0.0454  0.2059  0.7611
  121OSM    H8G12830   4.134   1.640   7.476  0.0601  0.8709 -0.1347
  121OSM    C9F12831   3.969   1.570   7.608  0.4860  0.2586  0.4109
  121OSM    H9F12832   3.880   1.507   7.590 -0.7736  2.0070  0.2415
  121OSM   C10F12833   4.013   1.603   7.732 -0.1447  0.1105  0.0780
  121OSM   H10F12834   3.966   1.556   7.820 -2.0603  0.6850 -0.6047
  121OSM   C11F12835   4.127   1.698   7.768  0.5369  0.3097 -0.7201
  121OSM   H11F12836   4.122   1.783   7.697  0.2716  0.4700 -0.5125
  121OSM   H11G12837   4.224   1.647   7.753 -0.8867 -2.6436 -0.5699
  121OSM   C12F12838   4.108   1.753   7.911  0.0613 -0.3915  0.4991
  121OSM   H12F12839   4.015   1.810   7.932 -0.2927  0.0215 -1.8855
  121OSM   H12G12840   4.192   1.825   7.915 -0.2500  0.0549 -0.5506
  121OSM   C13F12841   4.147   1.651   8.018  0.8379 -0.2966  0.1264
  121OSM   H13F12842   4.250   1.616   7.994  1.8878  0.5250  3.0829
  121OSM   H13G12843   4.065   1.577   8.018  0.2490  0.3519  0.4945
  121OSM   C14F12844   4.160   1.719   8.160 -0.0026  0.4430  0.4865
  121OSM   H14F12845   4.223   1.810   8.161 -0.3796  0.7130 -0.1112
  121OSM   H14G12846   4.224   1.648   8.216 -0.8528 -0.5910  0.1761
  121OSM   C15F12847   4.032   1.753   8.237  0.9300 -0.9175 -0.2012
  121OSM   H15F12848   3.963   1.665   8.237 -0.3706 -0.0253 -3.1976
  121OSM   H15G12849   3.976   1.836   8.189 -0.3024 -0.4456  1.8995
  121OSM   C16F12850   4.054   1.797   8.382 -0.3019 -0.0453  0.3159
  121OSM   H16F12851   4.142   1.865   8.373  1.3665 -2.1474 -0.0878
  121OSM   H16G12852   4.087   1.708   8.439  0.3329  0.2343  0.3921
  121OSM   C17F12853   3.931   1.869   8.442  1.2112 -0.6711 -0.0111
  121OSM   H17F12854   3.924   1.844   8.550 -0.9888  3.4656  0.9880
  121OSM   H17G12855   3.837   1.830   8.396  1.3780 -0.5773 -0.4368
  121OSM   C18F12856   3.939   2.021   8.425 -0.1247 -0.0325 -0.1975
  121OSM   H18F12857   3.842   2.057   8.385  1.3150  0.8382 -3.2343
  121OSM   H18G12858   4.019   2.068   8.363  0.2202 -0.2291  0.0955
  121OSM   H18H12859   3.957   2.057   8.529  0.4071 -1.4061  0.1983
  122OSM      N12860   3.114   3.513   5.606 -0.0749  0.1541  0.3418
  122OSM    C1512861   3.230   3.450   5.673  0.0558  0.2887 -0.4736
  122OSM   H15A12862   3.274   3.521   5.742 -2.4284  0.0176  1.5592
  122OSM   H15B12863   3.304   3.426   5.598 -1.2257 -0.9354 -1.4141
  122OSM   H15C12864   3.194   3.362   5.725 -1.4461  0.1971 -1.6185
  122OSM    C1412865   3.154   3.634   5.520 -0.3243 -0.1191  0.3213
  122OSM   H14A12866   3.206   3.613   5.428  1.4106  2.1838  0.6944
  122OSM   H14B12867   3.213   3.706   5.575 -0.7520  0.9595 -0.5890
  122OSM   H14C12868   3.057   3.675   5.497  0.8532  2.8174  0.1486
  122OSM    C1312869   3.048   3.417   5.513  0.1660  0.3911  0.5112
  122OSM   H13A12870   3.000   3.337   5.567  0.8769  0.9069  1.9547
  122OSM   H13B12871   3.109   3.378   5.433 -1.7093 -1.1368 -0.2525
  122OSM   H13C12872   2.979   3.483   5.464  0.3049  0.0216 -0.2078
  122OSM    C1212873   3.009   3.556   5.708 -0.5124 -0.0284  0.6094
  122OSM   H12A12874   2.927   3.608   5.660  2.1780  2.8102 -1.3236
  122OSM   H12B12875   3.046   3.642   5.761 -0.3073 -0.4647  1.1872
  122OSM    C1112876   2.971   3.451   5.805  1.0516  0.4049 -0.4107
  122OSM   H11A12877   2.914   3.377   5.745 -2.2781  2.1208  0.3672
  122OSM   H11B12878   2.889   3.497   5.865  0.7502 -0.0144 -0.4952
  122OSM      P12879   3.123   3.438   6.018 -0.0884 -0.2442 -0.2887
  122OSM    O1312880   3.172   3.329   6.099  0.2352  0.1722 -0.3611
  122OSM    O1412881   3.213   3.549   5.989  0.0679 -0.4044  0.4902
  122OSM    O1112882   2.990   3.495   6.077 -1.1189  0.3739  0.2646
  122OSM    O1212883   3.076   3.379   5.876  0.0456 -0.5272 -0.8620
  122OSM    C1S12884   2.888   3.407   6.139  0.0321  0.1408  0.2224
  122OSM    H1S12885   2.936   3.312   6.169 -2.3743 -1.0434  0.5750
  122OSM    H1T12886   2.808   3.386   6.065 -0.2896  1.4674  0.1571
  122OSM     NF12887   2.700   3.385   6.304 -0.2844 -0.8086  1.0648
  122OSM    HNF12888   2.607   3.419   6.294 -1.0302 -3.2770 -2.4445
  122OSM    C2S12889   2.808   3.475   6.251  0.3382  0.4822 -0.5201
  122OSM    H2S12890   2.880   3.492   6.334 -0.9425  4.4294 -0.0490
  122OSM    C3S12891   2.753   3.623   6.212 -0.0411 -0.2720  0.0557
  122OSM    H3S12892   2.659   3.609   6.155  0.3952 -2.1527 -0.2894
  122OSM     O312893   2.830   3.706   6.121  0.3167  0.1158 -0.4676
  122OSM    HO312894   2.908   3.650   6.109  0.8737  0.1646  2.2906
  122OSM    C4S12895   2.726   3.696   6.335  0.2212  0.0525  0.9087
  122OSM    H4S12896   2.816   3.736   6.385 -0.3940  0.7693  1.4627
  122OSM    C5S12897   2.604   3.720   6.382  0.0397 -0.6445  0.0891
  122OSM    H5S12898   2.511   3.697   6.327  0.1492 -3.5113  0.9473
  122OSM    C6S12899   2.586   3.799   6.508  0.1574 -0.2907 -0.1143
  122OSM    H6S12900   2.541   3.900   6.494  2.2254  0.6105 -0.5702
  122OSM    H6T12901   2.681   3.829   6.557  0.3865 -2.0987  0.5940
  122OSM    C7S12902   2.502   3.719   6.607 -0.1974 -0.4524 -0.0526
  122OSM    H7S12903   2.538   3.616   6.629 -2.7718 -0.9055  2.8526
  122OSM    H7T12904   2.398   3.707   6.570 -0.1241 -0.1066 -0.3761
  122OSM    C8S12905   2.489   3.787   6.744 -0.1464  0.0178  0.5752
  122OSM    H8S12906   2.441   3.887   6.739 -2.0181 -0.8021  1.4102
  122OSM    H8T12907   2.594   3.804   6.777  0.0286 -2.0967  1.2592
  122OSM    C9S12908   2.416   3.698   6.855 -0.1915  0.3275 -0.4819
  122OSM    H9S12909   2.480   3.607   6.858  1.9555  1.5877 -2.9847
  122OSM    H9T12910   2.317   3.667   6.815 -0.1442 -1.4547  0.6831
  122OSM   C10S12911   2.384   3.769   6.990 -0.0305 -0.4429 -0.2929
  122OSM   H10S12912   2.481   3.813   7.024 -0.5670  0.8100 -0.3406
  122OSM   H10T12913   2.363   3.694   7.068  2.2319  2.1183  3.0596
  122OSM   C11S12914   2.276   3.881   6.979 -0.3768  0.1440  0.7685
  122OSM   H11S12915   2.181   3.828   6.955 -1.4452  1.8937  0.8738
  122OSM   H11T12916   2.300   3.953   6.898 -1.3280  1.4635  1.6069
  122OSM   C12S12917   2.268   3.962   7.112  0.0275 -0.6152 -0.3890
  122OSM   H12S12918   2.194   4.032   7.069  0.3575 -0.8122 -1.2922
  122OSM   H12T12919   2.360   4.023   7.124 -0.4296 -0.0613  0.4105
  122OSM   C13S12920   2.228   3.873   7.233 -0.4589  0.6605  0.0776
  122OSM   H13S12921   2.301   3.793   7.260 -0.8437 -0.2170 -1.3908
  122OSM   H13T12922   2.133   3.824   7.202  0.4227 -0.9249 -0.2519
  122OSM   C14S12923   2.209   3.950   7.366  0.5541 -0.5315 -0.0347
  122OSM   H14S12924   2.108   3.997   7.370  1.2587  0.9564  1.1921
  122OSM   H14T12925   2.272   4.041   7.360  0.6163 -0.6510 -1.7467
  122OSM   C15S12926   2.240   3.880   7.497  0.1272 -0.5241 -0.6379
  122OSM   H15S12927   2.196   3.778   7.486 -0.6883 -0.1221 -1.2209
  122OSM   H15T12928   2.212   3.942   7.585 -0.8913 -0.2133 -1.1674
  122OSM   C16S12929   2.396   3.860   7.517  0.4996 -0.4465 -0.4571
  122OSM   H16S12930   2.443   3.942   7.459  0.0467 -0.4162 -0.7903
  122OSM   H16T12931   2.437   3.774   7.459  1.4839 -0.0679 -0.3393
  122OSM   C17S12932   2.451   3.848   7.658  0.5505  0.0248 -0.3100
  122OSM   H17S12933   2.406   3.757   7.705  1.2002 -1.9388 -3.2195
  122OSM   H17T12934   2.415   3.932   7.722  2.1632  0.2902  0.2843
  122OSM   C18S12935   2.601   3.824   7.659  0.1071  0.3740 -0.0555
  122OSM   H18S12936   2.646   3.799   7.758 -0.6076 -0.4271  0.0808
  122OSM   H18T12937   2.645   3.921   7.629 -1.6345  0.7324 -1.6188
  122OSM   H18U12938   2.611   3.736   7.592  1.0897 -2.4957  3.5244
  122OSM    C1F12939   2.725   3.272   6.361  1.1657 -0.1453  0.0079
  122OSM     OF12940   2.838   3.218   6.358  0.4326  0.0511 -0.6573
  122OSM    C2F12941   2.604   3.206   6.427  0.3605  0.5396 -0.3525
  122OSM    H2F12942   2.574   3.106   6.390  1.1469 -0.7110  2.1401
  122OSM    H2G12943   2.519   3.275   6.410 -0.0185  0.4803  1.1538
  122OSM    C3F12944   2.634   3.195   6.580 -0.0611 -0.0027  0.3211
  122OSM    H3F12945   2.735   3.149   6.582 -0.0876 -0.1635 -1.3137
  122OSM    H3G12946   2.559   3.122   6.616  2.5282 -2.0572  1.9385
  122OSM    C4F12947   2.630   3.332   6.657  0.1951 -0.0294  0.1076
  122OSM    H4F12948   2.561   3.321   6.744  1.4579  2.1185  1.4872
  122OSM    H4G12949   2.586   3.415   6.598  0.0925  0.2324  0.5473
  122OSM    C5F12950   2.772   3.365   6.702 -0.2443  0.1397 -0.4057
  122OSM    H5F12951   2.850   3.376   6.624 -0.6297 -0.7681 -0.9298
  122OSM    H5G12952   2.814   3.284   6.765  0.4184  0.5815 -0.2659
  122OSM    C6F12953   2.786   3.486   6.798  0.8573  0.7310  0.2484
  122OSM    H6F12954   2.746   3.577   6.748 -0.2266 -0.1832 -0.6362
  122OSM    H6G12955   2.892   3.501   6.824  1.2330 -3.6512  2.1173
  122OSM    C7F12956   2.719   3.454   6.935 -0.0734  0.3380  0.1537
  122OSM    H7F12957   2.765   3.359   6.970  0.3686  0.5713  0.2015
  122OSM    H7G12958   2.616   3.420   6.910 -1.2265  3.0113  0.9745
  122OSM    C8F12959   2.726   3.566   7.037  0.4719 -0.0825 -1.0058
  122OSM    H8F12960   2.657   3.644   6.998  1.8990  2.0621  0.5687
  122OSM    H8G12961   2.821   3.623   7.047 -0.6333  1.8649 -1.0308
  122OSM    C9F12962   2.678   3.537   7.179 -0.1988 -0.0670 -0.5071
  122OSM    H9F12963   2.636   3.436   7.185  3.1003 -1.8449 -3.3195
  122OSM   C10F12964   2.687   3.616   7.283 -0.9502 -0.6802  0.5588
  122OSM   H10F12965   2.662   3.583   7.385 -0.3458 -0.8916  0.6402
  122OSM   C11F12966   2.746   3.758   7.292  0.1586 -0.7282  0.3013
  122OSM   H11F12967   2.697   3.818   7.371  2.4607  0.7196  0.7475
  122OSM   H11G12968   2.723   3.811   7.197 -0.2750 -2.4894 -0.6160
  122OSM   C12F12969   2.895   3.754   7.328  0.4088  0.6290 -0.1629
  122OSM   H12F12970   2.947   3.852   7.331  0.4448  0.5933  2.0363
  122OSM   H12G12971   2.943   3.678   7.262  2.9013 -0.6712  2.8630
  122OSM   C13F12972   2.917   3.699   7.468  0.2676 -1.1263 -0.1631
  122OSM   H13F12973   2.865   3.603   7.489  0.1083 -1.0456 -0.1852
  122OSM   H13G12974   2.875   3.772   7.540 -1.7793 -2.5879  0.2338
  122OSM   C14F12975   3.066   3.684   7.502 -0.0917  0.3116 -0.6343
  122OSM   H14F12976   3.129   3.767   7.463  4.1878 -1.3317  2.0318
  122OSM   H14G12977   3.098   3.590   7.451 -2.2501 -1.5555  1.2621
  122OSM   C15F12978   3.095   3.669   7.648 -0.3767 -0.5522 -0.4822
  122OSM   H15F12979   3.068   3.756   7.711 -0.6083 -0.2232 -1.0348
  122OSM   H15G12980   3.204   3.648   7.658  0.0330  1.0735 -1.2058
  122OSM   C16F12981   3.013   3.549   7.706  0.1003  0.1717 -0.5136
  122OSM   H16F12982   3.036   3.457   7.649  0.0617 -0.1277 -0.0441
  122OSM   H16G12983   2.903   3.567   7.702  0.1813  1.0059  0.6806
  122OSM   C17F12984   3.038   3.515   7.854  0.1344 -0.2386 -0.2500
  122OSM   H17F12985   3.016   3.607   7.913 -2.5310 -1.0843  0.2100
  122OSM   H17G12986   3.147   3.500   7.863  0.4566  0.8868 -1.8581
  122OSM   C18F12987   2.968   3.399   7.913  0.5690  0.5491 -0.7852
  122OSM   H18F12988   2.978   3.393   8.023 -1.3686  1.5135 -0.5195
  122OSM   H18G12989   3.023   3.317   7.861 -0.3549  1.0612 -2.6388
  122OSM   H18H12990   2.862   3.394   7.881  0.5495 -0.0393 -0.6390
  123OSM      N12991   6.414   5.543   6.028  0.7748 -0.1136 -1.1811
  123OSM    C1512992   6.399   5.530   5.876 -0.0606  0.2348 -0.6402
  123OSM   H15A12993   6.475   5.476   5.822 -0.1063  0.6904 -1.1687
  123OSM   H15B12994   6.408   5.626   5.827 -1.3441  0.1547 -1.0669
  123OSM   H15C12995   6.309   5.490   5.832  0.7257  1.2577 -3.3548
  123OSM    C1412996   6.386   5.410   6.096 -0.4649 -0.9517 -0.0134
  123OSM   H14A12997   6.470   5.344   6.085  0.1915  0.1459 -2.1295
  123OSM   H14B12998   6.294   5.372   6.054 -0.3274  1.3224 -2.6523
  123OSM   H14C12999   6.373   5.422   6.203  2.6600  2.5088  0.1699
  123OSM    C1313000   6.566   5.571   6.055  0.1575  0.0781 -0.2278
  123OSM   H13A13001   6.626   5.483   6.039 -1.2159 -0.7993 -0.7175
  123OSM   H13B13002   6.585   5.602   6.157 -4.6408 -1.4593  1.3871
  123OSM   H13C13003   6.606   5.647   5.989 -1.2462  0.0084 -1.1891
  123OSM    C1213004   6.330   5.660   6.083  0.0284 -0.1235 -0.4084
  123OSM   H12A13005   6.226   5.646   6.061  0.1543  0.0975 -1.1946
  123OSM   H12B13006   6.358   5.750   6.029 -2.9944  1.3944  0.3289
  123OSM    C1113007   6.344   5.693   6.234 -0.5109  0.5241 -0.1131
  123OSM   H11A13008   6.278   5.779   6.258 -0.6216 -0.3054  2.9540
  123OSM   H11B13009   6.449   5.724   6.252 -0.1600  1.0631 -2.6787
  123OSM      P13010   6.388   5.538   6.437 -0.1532  0.1382 -0.4035
  123OSM    O1313011   6.341   5.402   6.471 -0.0252 -0.3692 -0.5390
  123OSM    O1413012   6.533   5.547   6.407 -0.2497 -0.5842  0.3562
  123OSM    O1113013   6.356   5.639   6.551 -0.4157  0.8539  0.5027
  123OSM    O1213014   6.310   5.588   6.313  0.4554  0.5733  0.0003
  123OSM    C1S13015   6.224   5.660   6.602  0.2610  0.0503  0.1229
  123OSM    H1S13016   6.154   5.594   6.547  0.1751 -0.4224  0.7852
  123OSM    H1T13017   6.187   5.759   6.569 -1.6013 -1.4808 -2.9154
  123OSM     NF13018   6.075   5.665   6.797  0.0999 -0.3608  0.1023
  123OSM    HNF13019   6.043   5.740   6.854 -0.6515 -0.5839 -0.0252
  123OSM    C2S13020   6.208   5.638   6.758 -0.0419  0.1721  0.2411
  123OSM    H2S13021   6.233   5.534   6.788 -0.1392  0.5800  1.8226
  123OSM    C3S13022   6.307   5.735   6.838  0.1495  0.9587 -0.0352
  123OSM    H3S13023   6.262   5.835   6.822  0.4506  0.7376 -2.8887
  123OSM     O313024   6.435   5.741   6.793 -0.9730  0.1884 -0.0440
  123OSM    HO313025   6.429   5.698   6.707 -0.7519  0.8376 -0.3892
  123OSM    C4S13026   6.300   5.693   6.983  0.0058 -0.7523 -0.2180
  123OSM    H4S13027   6.221   5.744   7.039  1.1063 -0.4318  1.0865
  123OSM    C5S13028   6.371   5.593   7.037 -0.0122 -0.2065  0.0591
  123OSM    H5S13029   6.447   5.539   6.977  1.8871  0.6963  1.5538
  123OSM    C6S13030   6.349   5.546   7.179  0.1623  0.1780 -0.1021
  123OSM    H6S13031   6.448   5.513   7.216  0.2227  0.2892 -0.1596
  123OSM    H6T13032   6.288   5.454   7.192  0.7371 -0.3275 -0.8594
  123OSM    C7S13033   6.289   5.655   7.276 -0.1993  0.0419  0.2271
  123OSM    H7S13034   6.189   5.685   7.238  0.1771  0.8828 -0.1127
  123OSM    H7T13035   6.356   5.744   7.277 -0.0677 -0.0201 -1.2642
  123OSM    C8S13036   6.248   5.599   7.418 -0.2141 -0.0533  0.2379
  123OSM    H8S13037   6.166   5.527   7.398  0.3529 -0.6681  0.0555
  123OSM    H8T13038   6.198   5.682   7.473 -0.3927  2.2013 -3.0562
  123OSM    C9S13039   6.367   5.554   7.499  0.1970  0.2568  0.3775
  123OSM    H9S13040   6.449   5.628   7.486  0.0505  0.0896 -2.0620
  123OSM    H9T13041   6.408   5.462   7.451  0.2665  0.1248  0.6920
  123OSM   C10S13042   6.334   5.525   7.643  0.8286  0.7601 -0.6579
  123OSM   H10S13043   6.247   5.458   7.658  1.9381 -0.4990  0.4811
  123OSM   H10T13044   6.317   5.622   7.696 -0.7730  0.1098  0.0833
  123OSM   C11S13045   6.446   5.457   7.724  0.3352 -0.0973  0.4086
  123OSM   H11S13046   6.537   5.521   7.720 -0.2239  0.8824  2.2320
  123OSM   H11T13047   6.466   5.361   7.672 -0.1568  0.3291 -0.5850
  123OSM   C12S13048   6.430   5.426   7.875  0.2087  0.1675 -0.4894
  123OSM   H12S13049   6.344   5.357   7.884 -0.4171  1.1342  1.5277
  123OSM   H12T13050   6.427   5.522   7.930  1.2426  0.9447 -1.7401
  123OSM   C13S13051   6.558   5.361   7.943  0.3877 -0.6351 -0.4431
  123OSM   H13S13052   6.637   5.438   7.959 -0.6607  0.1752  1.1570
  123OSM   H13T13053   6.589   5.285   7.868  0.0931 -0.7834 -0.4173
  123OSM   C14S13054   6.519   5.302   8.082 -0.3924 -0.1877  0.5338
  123OSM   H14S13055   6.425   5.246   8.060  0.4838 -1.6601  0.4573
  123OSM   H14T13056   6.493   5.389   8.146  1.4361 -0.0180  1.0952
  123OSM   C15S13057   6.624   5.221   8.154 -0.3452  1.1003 -0.3863
  123OSM   H15S13058   6.584   5.198   8.255  2.7005 -0.4918  0.5841
  123OSM   H15T13059   6.711   5.284   8.181 -1.0293  1.5864  0.7431
  123OSM   C16S13060   6.679   5.096   8.076 -0.2928  0.3623  0.1217
  123OSM   H16S13061   6.719   5.124   7.976 -1.3079  0.8867 -0.1535
  123OSM   H16T13062   6.597   5.025   8.053  1.6928 -1.9785 -0.1289
  123OSM   C17S13063   6.772   4.994   8.150 -0.8525 -0.2629 -0.8168
  123OSM   H17S13064   6.791   4.911   8.079  3.2027  0.0233 -0.3197
  123OSM   H17T13065   6.731   4.966   8.250  1.3541  2.8797  1.1358
  123OSM   C18S13066   6.911   5.062   8.178  0.0063 -0.0315  0.1229
  123OSM   H18S13067   6.960   5.079   8.080 -2.3757  1.5394 -0.8707
  123OSM   H18T13068   6.977   4.983   8.221  1.0516  1.0216  0.4956
  123OSM   H18U13069   6.903   5.158   8.232  0.1051  0.4660 -0.7316
  123OSM    C1F13070   5.980   5.579   6.759  0.5414  0.6273  0.2075
  123OSM     OF13071   6.010   5.462   6.734 -0.6275 -0.1748  0.8172
  123OSM    C2F13072   5.843   5.630   6.759 -0.1105 -0.0782 -0.0963
  123OSM    H2F13073   5.760   5.565   6.723  1.5958 -2.7107  0.4103
  123OSM    H2G13074   5.841   5.713   6.686  3.7491 -0.5651 -0.9594
  123OSM    C3F13075   5.801   5.664   6.904  0.1922  0.0334  0.2218
  123OSM    H3F13076   5.700   5.711   6.913  0.9363  2.1972 -1.8139
  123OSM    H3G13077   5.880   5.733   6.941  0.1110 -0.7246  1.9229
  123OSM    C4F13078   5.798   5.537   6.998 -0.0873  0.0031 -0.0382
  123OSM    H4F13079   5.900   5.493   6.993  0.6577  1.6440 -0.0768
  123OSM    H4G13080   5.720   5.463   6.969 -1.4914  2.0712 -1.8556
  123OSM    C5F13081   5.755   5.568   7.140  0.1818 -0.1492  0.3320
  123OSM    H5F13082   5.762   5.479   7.205  0.8176  0.5906  1.2973
  123OSM    H5G13083   5.649   5.598   7.154 -0.3677 -1.9827  0.3508
  123OSM    C6F13084   5.835   5.673   7.226 -0.2554  0.4226  0.5847
  123OSM    H6F13085   5.877   5.746   7.153  1.7967 -0.3493  0.9062
  123OSM    H6G13086   5.921   5.631   7.283  1.5940  1.0777 -1.5584
  123OSM    C7F13087   5.757   5.748   7.332 -0.5118 -0.2517 -0.2485
  123OSM    H7F13088   5.683   5.817   7.285 -1.6057 -0.6172  0.8605
  123OSM    H7G13089   5.826   5.811   7.392  0.5522  0.0984 -1.7864
  123OSM    C8F13090   5.695   5.661   7.449  0.0213 -0.2668 -0.4745
  123OSM    H8F13091   5.761   5.574   7.469  0.5408  0.0498 -0.7650
  123OSM    H8G13092   5.599   5.617   7.416 -0.3025 -1.2851  1.6457
  123OSM    C9F13093   5.655   5.725   7.578 -0.4511  0.4528 -0.3160
  123OSM    H9F13094   5.575   5.797   7.553 -0.5074  0.5269  0.0695
  123OSM   C10F13095   5.710   5.705   7.704 -0.5604 -1.4993  0.0810
  123OSM   H10F13096   5.678   5.771   7.785  0.3737 -1.7902  0.6957
  123OSM   C11F13097   5.825   5.611   7.730  0.0845 -0.1902  0.4598
  123OSM   H11F13098   5.884   5.599   7.636 -0.3034 -1.2669  0.3413
  123OSM   H11G13099   5.786   5.511   7.761 -0.6954  0.7635  2.7235
  123OSM   C12F13100   5.921   5.654   7.847  0.1102 -0.4479 -0.3310
  123OSM   H12F13101   5.948   5.760   7.832 -0.0298 -0.4096 -0.3154
  123OSM   H12G13102   6.008   5.585   7.834 -0.0019 -0.5768 -0.3982
  123OSM   C13F13103   5.858   5.619   7.983  0.2172  0.0189  0.2324
  123OSM   H13F13104   5.809   5.521   7.965 -0.2618 -0.3795  3.1866
  123OSM   H13G13105   5.792   5.703   8.012  0.5671  0.6356 -0.7016
  123OSM   C14F13106   5.970   5.597   8.088 -0.2837  0.2427  0.2132
  123OSM   H14F13107   6.045   5.677   8.071 -1.1602  1.0229  0.0014
  123OSM   H14G13108   6.021   5.502   8.060  0.8973  0.7258  0.6670
  123OSM   C15F13109   5.937   5.605   8.241  0.5459 -0.5413 -0.0998
  123OSM   H15F13110   5.898   5.707   8.263  1.3198 -0.4142  0.7339
  123OSM   H15G13111   6.029   5.605   8.303  0.2902 -0.6949  0.2854
  123OSM   C16F13112   5.839   5.488   8.288 -0.3787 -0.2044 -0.1348
  123OSM   H16F13113   5.886   5.394   8.252  0.4001  1.5995 -4.4936
  123OSM   H16G13114   5.737   5.494   8.245 -0.4786 -0.1051  0.1141
  123OSM   C17F13115   5.811   5.479   8.441  0.3628  0.2004 -0.3924
  123OSM   H17F13116   5.905   5.459   8.496  0.7936  1.7815 -0.4910
  123OSM   H17G13117   5.740   5.395   8.454  0.1751  0.4602  0.3179
  123OSM   C18F13118   5.760   5.610   8.507 -0.1434 -0.3097  0.5736
  123OSM   H18F13119   5.745   5.599   8.616 -0.1550 -1.2545  0.4917
  123OSM   H18G13120   5.667   5.650   8.460  0.8509  0.3149 -0.9560
  123OSM   H18H13121   5.844   5.680   8.490  0.2080 -1.1400 -1.4134
  124OSM      N13122   2.647   1.284   6.080 -0.0184  0.1294 -0.3147
  124OSM    C1513123   2.701   1.421   6.109 -0.3034  0.1761  0.1195
  124OSM   H15A13124   2.748   1.458   6.019  0.4619 -2.0783 -0.4721
  124OSM   H15B13125   2.776   1.422   6.186  1.9711 -1.8828 -1.8614
  124OSM   H15C13126   2.622   1.490   6.134 -2.4060 -1.5022 -1.4802
  124OSM    C1413127   2.761   1.195   6.062 -0.3455 -0.0680  0.4828
  124OSM   H14A13128   2.814   1.189   6.156  0.6973  3.0301  0.2140
  124OSM   H14B13129   2.832   1.226   5.987 -1.8628  0.7996 -0.6449
  124OSM   H14C13130   2.735   1.095   6.029 -0.0265  0.3565 -1.1375
  124OSM    C1313131   2.560   1.238   6.188  0.1735  0.6851  0.0003
  124OSM   H13A13132   2.613   1.225   6.282 -0.2602 -1.2512  0.0186
  124OSM   H13B13133   2.514   1.142   6.171 -2.7345  1.9258  0.2248
  124OSM   H13C13134   2.480   1.309   6.203  0.8504  1.1264  1.8164
  124OSM    C1213135   2.566   1.282   5.950 -0.4709  0.1559  0.7567
  124OSM   H12A13136   2.520   1.184   5.950 -0.0223 -0.0638  1.8592
  124OSM   H12B13137   2.639   1.273   5.870 -0.5340 -3.9969  0.9695
  124OSM    C1113138   2.469   1.399   5.926 -0.3438 -0.0134  0.0732
  124OSM   H11A13139   2.421   1.380   5.827  2.1985 -1.3593 -0.9987
  124OSM   H11B13140   2.518   1.498   5.917 -1.4922  0.5295 -0.3890
  124OSM      P13141   2.298   1.542   6.061 -0.1662  0.0735 -0.0201
  124OSM    O1313142   2.293   1.634   5.944 -0.0023  0.1786  0.1922
  124OSM    O1413143   2.173   1.503   6.133 -0.2018 -0.5175  0.4832
  124OSM    O1113144   2.397   1.597   6.166  0.3360 -0.1128  0.1822
  124OSM    O1213145   2.364   1.404   6.024  0.2597  0.3611  0.4001
  124OSM    C1S13146   2.385   1.728   6.218 -0.3604  0.3999 -0.1638
  124OSM    H1S13147   2.316   1.798   6.166  0.7297  2.0186  0.4531
  124OSM    H1T13148   2.488   1.769   6.220  0.7325 -2.1871  0.4480
  124OSM     NF13149   2.293   1.851   6.405  0.6885  0.2853 -0.1419
  124OSM    HNF13150   2.341   1.909   6.470 -0.9659 -0.4666  1.8572
  124OSM    C2S13151   2.342   1.720   6.372 -0.1073 -0.1811 -0.1654
  124OSM    H2S13152   2.254   1.654   6.383 -0.3250 -0.2814 -2.1801
  124OSM    C3S13153   2.464   1.673   6.445  0.0377 -0.2191 -0.3738
  124OSM    H3S13154   2.535   1.758   6.445 -0.2445  0.0954  1.9753
  124OSM     O313155   2.534   1.557   6.391 -0.2348  0.1266  0.0553
  124OSM    HO313156   2.500   1.545   6.302 -0.3418 -0.3306  0.1568
  124OSM    C4S13157   2.428   1.637   6.589 -0.3396  0.0966  0.0261
  124OSM    H4S13158   2.376   1.540   6.594  1.3061 -0.7921  0.6794
  124OSM    C5S13159   2.458   1.720   6.700  0.2814  0.3330  1.2878
  124OSM    H5S13160   2.501   1.819   6.681  1.9732 -0.6326 -0.2804
  124OSM    C6S13161   2.417   1.689   6.842  0.1095  0.5730  0.2450
  124OSM    H6S13162   2.463   1.761   6.914  0.0718 -0.1217  0.9699
  124OSM    H6T13163   2.461   1.592   6.873  0.4787  0.3254 -0.9723
  124OSM    C7S13164   2.267   1.685   6.866 -0.3393  0.2044 -0.2877
  124OSM    H7S13165   2.216   1.593   6.829 -1.9156  1.1516 -0.5873
  124OSM    H7T13166   2.218   1.770   6.815 -0.3541  0.3162 -0.0901
  124OSM    C8S13167   2.232   1.684   7.019  0.2232 -0.1861  0.0190
  124OSM    H8S13168   2.259   1.583   7.055 -0.3966 -0.5756 -0.5749
  124OSM    H8T13169   2.121   1.679   7.023  0.0379  2.5316  0.6806
  124OSM    C9S13170   2.277   1.805   7.103 -0.4053  0.2763  0.1221
  124OSM    H9S13171   2.232   1.898   7.062 -0.8005 -0.2859 -0.7491
  124OSM    H9T13172   2.385   1.826   7.088 -0.4905  0.2326 -0.5790
  124OSM   C10S13173   2.246   1.795   7.258 -0.0134 -1.0510  0.1978
  124OSM   H10S13174   2.135   1.796   7.270 -0.2741 -0.6858 -1.7986
  124OSM   H10T13175   2.284   1.891   7.299 -3.4837  0.5632  0.0195
  124OSM   C11S13176   2.305   1.679   7.342 -0.6343  0.1154 -0.1519
  124OSM   H11S13177   2.413   1.673   7.315 -0.5216  2.6541 -0.5223
  124OSM   H11T13178   2.265   1.583   7.304 -1.7098  1.2395 -2.0428
  124OSM   C12S13179   2.279   1.691   7.494 -0.5381 -0.0466 -0.4171
  124OSM   H12S13180   2.328   1.600   7.534  2.7542  1.1053 -1.4809
  124OSM   H12T13181   2.173   1.672   7.523  0.3408 -2.9392  1.2748
  124OSM   C13S13182   2.327   1.819   7.556  0.2994  0.2307 -0.8208
  124OSM   H13S13183   2.262   1.902   7.522  0.9161  0.9606 -0.2683
  124OSM   H13T13184   2.431   1.849   7.529  0.2313  2.5486  1.0956
  124OSM   C14S13185   2.330   1.809   7.707  0.8928  0.6642 -0.8051
  124OSM   H14S13186   2.398   1.883   7.754 -0.2447  2.1861 -1.4558
  124OSM   H14T13187   2.363   1.705   7.728 -0.1570  0.9302  3.0293
  124OSM   C15S13188   2.182   1.811   7.769 -0.6454  0.7587 -0.0837
  124OSM   H15S13189   2.132   1.714   7.752 -0.4153  0.5740  0.2707
  124OSM   H15T13190   2.127   1.881   7.703  1.1645  1.0971 -1.3284
  124OSM   C16S13191   2.170   1.862   7.909 -0.1869 -0.1782  0.8526
  124OSM   H16S13192   2.066   1.897   7.928 -0.3996  1.2803 -2.3258
  124OSM   H16T13193   2.237   1.951   7.911 -1.9436  1.4602 -3.0425
  124OSM   C17S13194   2.210   1.740   8.000  0.4996 -0.2157  0.2527
  124OSM   H17S13195   2.310   1.700   7.972  0.8084  1.4861 -1.2335
  124OSM   H17T13196   2.140   1.655   7.989 -0.4305  0.2956  1.7543
  124OSM   C18S13197   2.207   1.780   8.146 -0.2601  0.1137  0.1872
  124OSM   H18S13198   2.270   1.709   8.203 -2.0824 -0.7770  1.1669
  124OSM   H18T13199   2.110   1.765   8.197  0.3083 -1.8013  0.7771
  124OSM   H18U13200   2.247   1.883   8.157 -1.8788  0.7713  0.1058
  124OSM    C1F13201   2.177   1.901   6.363  0.0024 -0.3625 -0.6001
  124OSM     OF13202   2.093   1.822   6.314  0.0261 -0.7179  0.4062
  124OSM    C2F13203   2.156   2.047   6.393  0.0088 -0.8343 -0.4838
  124OSM    H2F13204   2.154   2.105   6.298 -2.3154 -1.9086 -1.1600
  124OSM    H2G13205   2.248   2.072   6.450  0.6320 -3.2519 -0.3599
  124OSM    C3F13206   2.039   2.073   6.494  0.2955  0.4228  0.5951
  124OSM    H3F13207   1.940   2.047   6.451 -0.9122  2.5263  1.9314
  124OSM    H3G13208   2.029   2.180   6.520  1.3554  0.4892  0.7692
  124OSM    C4F13209   2.062   1.993   6.625 -0.1566 -0.0426 -0.7689
  124OSM    H4F13210   2.160   2.032   6.661 -0.0089 -2.1249  1.3434
  124OSM    H4G13211   2.062   1.883   6.608  0.5036  0.1365 -2.0879
  124OSM    C5F13212   1.939   2.013   6.721  0.7612  0.8225  0.0150
  124OSM    H5F13213   1.848   1.977   6.668  1.2436  1.3168 -1.1904
  124OSM    H5G13214   1.939   2.124   6.728  1.0442  1.0341 -2.5222
  124OSM    C6F13215   1.956   1.943   6.852  0.0261  0.2275 -0.3320
  124OSM    H6F13216   2.048   1.980   6.900  1.3910  1.5112 -3.6327
  124OSM    H6G13217   1.961   1.833   6.833 -1.9109  0.3685 -2.0178
  124OSM    C7F13218   1.833   1.976   6.939 -0.4285 -0.2426  0.0209
  124OSM    H7F13219   1.745   1.933   6.887 -1.4766  1.8402 -0.0357
  124OSM    H7G13220   1.822   2.087   6.936  2.5167  0.1039 -0.6572
  124OSM    C8F13221   1.840   1.920   7.082  0.5121  0.3139 -0.1993
  124OSM    H8F13222   1.869   1.815   7.064  1.6218  0.6287 -0.3422
  124OSM    H8G13223   1.735   1.912   7.118  0.7900  1.6187  1.0029
  124OSM    C9F13224   1.924   1.988   7.197  0.2909  0.9127 -0.8501
  124OSM    H9F13225   2.010   2.045   7.156  1.3432 -0.3637 -0.4796
  124OSM   C10F13226   1.920   1.962   7.328  0.2587  0.1386  0.2181
  124OSM   H10F13227   1.992   2.011   7.395  2.1551  0.2323 -1.7547
  124OSM   C11F13228   1.827   1.858   7.391  0.9629  0.6386 -0.4064
  124OSM   H11F13229   1.891   1.804   7.464 -0.8153 -0.4593  0.3943
  124OSM   H11G13230   1.786   1.784   7.319  1.5220  0.1247 -0.2009
  124OSM   C12F13231   1.705   1.918   7.463 -0.6467  0.0773  0.0391
  124OSM   H12F13232   1.631   1.846   7.503 -1.3817  1.1152  0.5839
  124OSM   H12G13233   1.653   1.979   7.386 -2.1210 -0.6388  0.4462
  124OSM   C13F13234   1.742   2.002   7.586  0.4924  1.0071 -0.2597
  124OSM   H13F13235   1.652   2.065   7.599  1.2625  1.7871  1.6058
  124OSM   H13G13236   1.826   2.071   7.560  1.7658  0.5586  2.4055
  124OSM   C14F13237   1.798   1.937   7.717 -0.4140  0.0561  0.1238
  124OSM   H14F13238   1.895   1.884   7.704 -0.6128 -0.6191  1.3319
  124OSM   H14G13239   1.735   1.848   7.735 -0.6096 -0.2390 -1.7433
  124OSM   C15F13240   1.806   2.035   7.832 -0.4229 -0.5410 -0.7019
  124OSM   H15F13241   1.708   2.089   7.834 -0.9218 -1.4432  1.0167
  124OSM   H15G13242   1.889   2.109   7.831  0.0091 -0.6936  3.5659
  124OSM   C16F13243   1.806   1.969   7.968 -0.3828 -0.0143  0.2851
  124OSM   H16F13244   1.870   1.881   7.946 -0.2566  0.0192  0.5208
  124OSM   H16G13245   1.707   1.929   7.994 -1.3119  0.1141 -2.6483
  124OSM   C17F13246   1.866   2.054   8.072 -0.0565 -0.1986  0.0226
  124OSM   H17F13247   1.972   2.079   8.047  1.5392 -2.4488  3.6960
  124OSM   H17G13248   1.876   1.980   8.154 -0.1997  0.9836  1.1457
  124OSM   C18F13249   1.798   2.177   8.135 -0.2566 -0.1038 -0.2376
  124OSM   H18F13250   1.722   2.157   8.214 -0.2691  1.5488  0.1906
  124OSM   H18G13251   1.748   2.236   8.055  1.5940  1.3923 -0.3558
  124OSM   H18H13252   1.877   2.239   8.182  0.4121 -0.9296 -0.2517
  125OSM      N13253   4.718   2.610   6.107  0.1644 -0.5345 -0.0463
  125OSM    C1513254   4.852   2.549   6.131 -0.0497  0.0971 -0.0320
  125OSM   H15A13255   4.931   2.619   6.111  2.4287 -1.8496  2.2832
  125OSM   H15B13256   4.873   2.455   6.082  0.9352  0.4323 -0.2626
  125OSM   H15C13257   4.852   2.516   6.234 -2.1434 -1.8375 -0.5489
  125OSM    C1413258   4.708   2.741   6.185  0.5798 -0.5229 -0.0479
  125OSM   H14A13259   4.788   2.807   6.155 -0.8735  1.0224 -0.7173
  125OSM   H14B13260   4.706   2.726   6.292 -1.6016 -1.4706 -0.1641
  125OSM   H14C13261   4.619   2.800   6.165  2.1244  1.8433 -0.3158
  125OSM    C1313262   4.698   2.653   5.962 -0.1099 -0.2697 -0.3624
  125OSM   H13A13263   4.753   2.742   5.934 -1.7911  1.1996  0.8290
  125OSM   H13B13264   4.596   2.682   5.942  0.2357  0.5280 -1.0569
  125OSM   H13C13265   4.711   2.569   5.895 -2.0532 -0.8545 -0.0564
  125OSM    C1213266   4.601   2.517   6.136 -0.2689  0.3946  0.1445
  125OSM   H12A13267   4.614   2.433   6.069  2.7843  1.4905 -0.7935
  125OSM   H12B13268   4.504   2.559   6.113 -0.7621 -1.3342 -1.1628
  125OSM    C1113269   4.584   2.464   6.274 -0.2218  0.4366  0.1023
  125OSM   H11A13270   4.482   2.424   6.287 -0.2640 -0.1333 -1.6447
  125OSM   H11B13271   4.604   2.536   6.355  0.0630 -0.6386  1.0129
  125OSM      P13272   4.681   2.226   6.206  0.0617  0.0653  0.1393
  125OSM    O1313273   4.627   2.239   6.071  0.3279 -0.0061  0.0713
  125OSM    O1413274   4.815   2.166   6.214  0.0023  0.0305  0.1660
  125OSM    O1113275   4.587   2.133   6.291 -0.4878  0.3433 -0.0880
  125OSM    O1213276   4.687   2.365   6.281  0.2469 -0.1809 -0.4528
  125OSM    C1S13277   4.633   2.085   6.422 -0.3877 -0.0251  0.1617
  125OSM    H1S13278   4.732   2.123   6.453 -1.0860  1.6419  0.4593
  125OSM    H1T13279   4.634   1.974   6.420 -2.1336 -0.0648 -0.6256
  125OSM     NF13280   4.544   2.054   6.652 -0.3999 -0.0023  1.0724
  125OSM    HNF13281   4.480   1.985   6.685  0.6895 -1.5397  0.1161
  125OSM    C2S13282   4.517   2.118   6.525 -0.7183  0.2638 -0.3117
  125OSM    H2S13283   4.519   2.228   6.540 -1.1251  0.2471 -0.1272
  125OSM    C3S13284   4.374   2.074   6.470  0.2949  0.9488  0.6524
  125OSM    H3S13285   4.383   1.969   6.434  4.1687  1.3535  0.0122
  125OSM     O313286   4.320   2.143   6.354  0.2734  0.9730 -0.0414
  125OSM    HO313287   4.400   2.167   6.307  1.2436 -1.0289  0.4362
  125OSM    C4S13288   4.277   2.101   6.572  1.1222  0.4867 -0.7348
  125OSM    H4S13289   4.283   2.206   6.602  0.8991  0.9571 -2.2191
  125OSM    C5S13290   4.190   2.006   6.625  0.2275  0.1428  0.2884
  125OSM    H5S13291   4.188   1.902   6.591 -1.0767  0.8702 -2.0383
  125OSM    C6S13292   4.084   2.032   6.729 -0.0772 -0.1912 -0.5393
  125OSM    H6S13293   3.984   1.989   6.709 -0.6433  1.7455 -2.2498
  125OSM    H6T13294   4.069   2.142   6.732  1.1701 -0.0300  0.4352
  125OSM    C7S13295   4.135   1.986   6.865 -0.1245  0.3166 -1.1733
  125OSM    H7S13296   4.224   2.046   6.895 -0.3583  0.3180 -0.4875
  125OSM    H7T13297   4.171   1.881   6.857 -4.1764 -1.1381 -2.5975
  125OSM    C8S13298   4.043   2.008   6.987  0.6230  0.3079  0.6963
  125OSM    H8S13299   3.961   1.932   6.985 -1.4824  2.4694 -0.3759
  125OSM    H8T13300   4.003   2.112   6.989  0.4966  0.2933 -0.4928
  125OSM    C9S13301   4.123   1.995   7.122  0.1781  0.1937  0.4849
  125OSM    H9S13302   4.201   2.074   7.114  1.0832 -0.6809  0.5703
  125OSM    H9T13303   4.167   1.894   7.110  0.6873  0.5613 -0.9212
  125OSM   C10S13304   4.027   2.009   7.238  0.5053  0.7025  0.2831
  125OSM   H10S13305   3.949   1.931   7.241  1.5676 -0.3683  1.8352
  125OSM   H10T13306   3.986   2.112   7.233 -2.1569 -0.3478 -1.4650
  125OSM   C11S13307   4.094   2.004   7.378 -0.1351  0.3035  0.5805
  125OSM   H11S13308   4.178   2.075   7.376  2.4982 -2.5481  1.7164
  125OSM   H11T13309   4.142   1.904   7.391  1.9025  1.3952  1.8522
  125OSM   C12S13310   4.001   2.041   7.493 -0.5560  0.2734 -0.3836
  125OSM   H12S13311   3.927   1.959   7.503 -0.8285  0.5471 -0.1634
  125OSM   H12T13312   3.957   2.140   7.471 -1.1505  0.0652 -0.1563
  125OSM   C13S13313   4.088   2.071   7.620  0.3649 -0.3543  0.2753
  125OSM   H13S13314   4.155   2.153   7.588 -0.3204 -0.2693 -1.0326
  125OSM   H13T13315   4.144   1.978   7.645  1.6751  0.0733 -0.9722
  125OSM   C14S13316   4.000   2.107   7.738 -0.0372 -0.4290  0.2758
  125OSM   H14S13317   3.954   2.010   7.768 -2.4604  0.6480  0.2248
  125OSM   H14T13318   3.913   2.171   7.715  0.5875  0.3296 -0.0223
  125OSM   C15S13319   4.081   2.177   7.846  0.4501  0.5805 -0.1891
  125OSM   H15S13320   4.096   2.285   7.825 -0.6069  0.8539  0.4128
  125OSM   H15T13321   4.178   2.124   7.859 -0.0731 -0.6155 -1.0108
  125OSM   C16S13322   4.019   2.168   7.994 -0.1036  0.1213  0.0275
  125OSM   H16S13323   3.999   2.060   8.012  0.6272 -0.0645 -0.2350
  125OSM   H16T13324   3.920   2.218   7.988 -0.2804 -0.0610  1.1423
  125OSM   C17S13325   4.102   2.228   8.107  0.2479 -0.0323 -0.2945
  125OSM   H17S13326   4.205   2.244   8.069  0.4944 -0.1328  0.3183
  125OSM   H17T13327   4.101   2.159   8.194  2.4669 -0.0048 -0.1944
  125OSM   C18S13328   4.039   2.362   8.146 -0.0101  0.6961 -0.2315
  125OSM   H18S13329   3.940   2.327   8.182  1.0407 -0.7644  1.4390
  125OSM   H18T13330   4.021   2.421   8.054 -0.0279 -0.8580 -1.2596
  125OSM   H18U13331   4.086   2.409   8.236 -0.2118 -0.6246  0.5856
  125OSM    C1F13332   4.652   2.081   6.718 -0.1693 -0.3495 -0.3899
  125OSM     OF13333   4.716   2.183   6.679 -0.7492  0.0544  0.4190
  125OSM    C2F13334   4.694   2.008   6.840  0.2411  0.8173 -0.5894
  125OSM    H2F13335   4.718   1.903   6.815  2.5592  1.5833 -1.9002
  125OSM    H2G13336   4.614   2.029   6.915 -0.2429  1.4295 -1.2660
  125OSM    C3F13337   4.823   2.067   6.895  0.2756  0.1714 -0.5852
  125OSM    H3F13338   4.798   2.166   6.940 -1.3692 -0.7780  0.6714
  125OSM    H3G13339   4.901   2.061   6.816 -0.9731 -0.4809 -1.8021
  125OSM    C4F13340   4.867   1.980   7.021  0.2051  0.4807  0.7246
  125OSM    H4F13341   4.854   1.878   6.978  1.5577 -0.0137  1.4280
  125OSM    H4G13342   4.794   1.980   7.105  0.0414  0.4508  0.5825
  125OSM    C5F13343   5.012   2.001   7.068  0.4745  0.6264  0.0866
  125OSM    H5F13344   5.028   2.107   7.097 -0.7542  0.5789  0.9942
  125OSM    H5G13345   5.078   1.966   6.986 -3.4316 -2.9601 -1.8527
  125OSM    C6F13346   5.035   1.913   7.198  0.4710 -0.7200 -0.2720
  125OSM    H6F13347   5.143   1.892   7.214  0.8947  1.3640 -0.0803
  125OSM    H6G13348   4.995   1.811   7.180 -0.8904 -0.3188  0.3241
  125OSM    C7F13349   4.978   1.979   7.327 -0.2331  0.5148 -0.0674
  125OSM    H7F13350   4.893   2.044   7.297 -1.8063 -1.9003 -1.1209
  125OSM    H7G13351   5.056   2.034   7.386 -2.3669  1.4505  2.0572
  125OSM    C8F13352   4.929   1.867   7.424  0.0912  0.4975  0.8747
  125OSM    H8F13353   5.015   1.800   7.446 -0.2524  0.4956  2.2932
  125OSM    H8G13354   4.846   1.807   7.381 -0.3287  0.2454  2.0049
  125OSM    C9F13355   4.867   1.920   7.547  0.1601  0.5148 -0.7649
  125OSM    H9F13356   4.798   2.006   7.539  0.1434  0.5102 -0.6729
  125OSM   C10F13357   4.879   1.872   7.674 -0.0385  0.4831  0.0483
  125OSM   H10F13358   4.825   1.930   7.749  0.0544  0.7686 -0.1044
  125OSM   C11F13359   4.969   1.764   7.717  0.2964  0.0491 -0.2141
  125OSM   H11F13360   4.985   1.707   7.623 -0.9954 -0.5615 -0.0944
  125OSM   H11G13361   4.906   1.693   7.775 -1.2182 -0.0459 -1.8644
  125OSM   C12F13362   5.094   1.786   7.796  0.3121 -0.3394  0.1519
  125OSM   H12F13363   5.067   1.876   7.854  0.0818  0.9315 -1.8113
  125OSM   H12G13364   5.170   1.811   7.718  0.4802 -0.9893  0.1021
  125OSM   C13F13365   5.142   1.669   7.886  0.1356  0.0356  0.2863
  125OSM   H13F13366   5.184   1.593   7.818 -0.4601 -1.6275  1.7062
  125OSM   H13G13367   5.055   1.627   7.942 -1.0316  2.2004  0.2140
  125OSM   C14F13368   5.257   1.712   7.976 -0.2099  0.4146  0.8069
  125OSM   H14F13369   5.220   1.773   8.061 -0.0902 -0.5695  1.5848
  125OSM   H14G13370   5.329   1.778   7.923  1.8785 -0.3402  2.5117
  125OSM   C15F13371   5.317   1.597   8.044 -0.5039  0.1534 -0.8327
  125OSM   H15F13372   5.369   1.538   7.965  0.1325 -0.9618  0.3898
  125OSM   H15G13373   5.243   1.524   8.083  1.1816 -1.3926 -0.4186
  125OSM   C16F13374   5.423   1.623   8.154  0.3062  0.2282  0.7493
  125OSM   H16F13375   5.375   1.686   8.231  1.9142  0.0023  1.9956
  125OSM   H16G13376   5.505   1.680   8.105  0.8836 -2.2729 -1.4738
  125OSM   C17F13377   5.482   1.495   8.208  0.1025 -0.2309 -0.3799
  125OSM   H17F13378   5.407   1.414   8.225  1.7655 -1.3682  2.1213
  125OSM   H17G13379   5.504   1.520   8.314 -0.9380 -0.3819 -0.1161
  125OSM   C18F13380   5.608   1.429   8.147  0.2180 -0.1645  0.1190
  125OSM   H18F13381   5.640   1.334   8.193  1.7970  0.2493 -0.0844
  125OSM   H18G13382   5.689   1.505   8.148 -0.9759  1.1563 -0.1839
  125OSM   H18H13383   5.584   1.406   8.041  0.5222  1.1311 -0.2494
  126OSM      N13384   0.595   5.760   6.100  0.3247  0.7576 -0.2217
  126OSM    C1513385   0.714   5.812   6.166 -0.0848 -0.2558 -0.4817
  126OSM   H15A13386   0.752   5.731   6.226 -2.0645 -0.4411  0.5891
  126OSM   H15B13387   0.692   5.891   6.236 -0.6728 -2.1071  1.5457
  126OSM   H15C13388   0.783   5.842   6.088 -1.2321 -0.3349 -1.5717
  126OSM    C1413389   0.529   5.867   6.022  0.1844  0.4419  0.0379
  126OSM   H14A13390   0.433   5.833   5.988  0.4178 -1.8406  1.5200
  126OSM   H14B13391   0.586   5.888   5.932 -0.0787  1.0430  0.0047
  126OSM   H14C13392   0.523   5.959   6.078 -1.7168 -0.1210  0.8069
  126OSM    C1313393   0.633   5.650   6.015 -0.0327  0.1903 -0.0786
  126OSM   H13A13394   0.560   5.609   5.947  0.0344 -0.6241  0.3243
  126OSM   H13B13395   0.659   5.572   6.086 -1.0427  2.4037  2.9554
  126OSM   H13C13396   0.721   5.683   5.962  1.4875  0.5511  2.4663
  126OSM    C1213397   0.505   5.713   6.209 -0.1761 -0.4682 -0.2003
  126OSM   H12A13398   0.419   5.662   6.168 -0.4220 -2.1528  2.1743
  126OSM   H12B13399   0.470   5.801   6.260  0.7662 -0.8872  1.2375
  126OSM    C1113400   0.555   5.624   6.325 -0.1825 -0.1204 -0.2577
  126OSM   H11A13401   0.473   5.595   6.395 -1.0388  2.8897  0.1261
  126OSM   H11B13402   0.629   5.683   6.383 -0.9913  1.9734 -1.2628
  126OSM      P13403   0.748   5.447   6.325 -0.2934  0.1255  0.0151
  126OSM    O1313404   0.757   5.300   6.308  0.2466 -0.2088 -0.3758
  126OSM    O1413405   0.858   5.526   6.270  0.0318  0.2003  0.6098
  126OSM    O1113406   0.746   5.479   6.482 -0.3083 -0.0210  0.0783
  126OSM    O1213407   0.618   5.503   6.279  0.2379  0.4191 -0.3597
  126OSM    C1S13408   0.643   5.445   6.573  0.1544 -0.6650  0.0469
  126OSM    H1S13409   0.553   5.398   6.527 -0.0110 -0.1576 -0.1594
  126OSM    H1T13410   0.605   5.538   6.620  1.2601 -0.5030  0.6456
  126OSM     NF13411   0.568   5.314   6.765  0.2102 -0.3593 -1.2127
  126OSM    HNF13412   0.527   5.362   6.842 -0.8755 -3.5180  0.3629
  126OSM    C2S13413   0.690   5.357   6.691  0.6172  0.0375 -0.2044
  126OSM    H2S13414   0.735   5.262   6.654  0.6907 -1.2042  2.7729
  126OSM    C3S13415   0.799   5.426   6.770  0.0660  0.0242  0.3430
  126OSM    H3S13416   0.763   5.527   6.796 -0.1464 -0.3348  1.5312
  126OSM     O313417   0.924   5.451   6.706  0.4895 -0.9686 -0.4317
  126OSM    HO313418   0.902   5.431   6.615  1.3313 -3.1628 -0.2062
  126OSM    C4S13419   0.830   5.354   6.894  0.4068  0.7419  0.2910
  126OSM    H4S13420   0.753   5.365   6.972 -0.8509  1.5342 -0.9946
  126OSM    C5S13421   0.937   5.273   6.915 -0.6235 -0.6579  0.3914
  126OSM    H5S13422   1.005   5.243   6.835  1.0177 -2.3442  2.3211
  126OSM    C6S13423   0.985   5.200   7.040  0.0593  0.1239 -0.7225
  126OSM    H6S13424   1.093   5.203   7.066 -0.8732 -1.6437  4.3911
  126OSM    H6T13425   0.971   5.095   7.006 -0.9924  0.1419 -0.3719
  126OSM    C7S13426   0.905   5.224   7.163  0.0661  0.2520  0.1478
  126OSM    H7S13427   0.798   5.196   7.152  0.5769 -1.1512 -2.1178
  126OSM    H7T13428   0.898   5.332   7.185 -1.1026  0.3028 -0.3912
  126OSM    C8S13429   0.956   5.157   7.293  0.3241  0.5055  0.1216
  126OSM    H8S13430   0.919   5.210   7.384 -0.4930 -1.6471  1.1128
  126OSM    H8T13431   1.067   5.155   7.299  0.2915  0.9056  1.0918
  126OSM    C9S13432   0.906   5.003   7.297 -0.0937 -0.1614 -1.2171
  126OSM    H9S13433   0.939   4.959   7.200  1.4312 -0.4860 -0.5926
  126OSM    H9T13434   0.795   4.999   7.295 -0.1481  0.8420 -0.7501
  126OSM   C10S13435   0.959   4.926   7.426 -0.5215 -0.1596 -0.2132
  126OSM   H10S13436   1.069   4.921   7.411 -0.6027 -0.6338 -0.6870
  126OSM   H10T13437   0.918   4.823   7.427  2.4662 -1.4507  1.0495
  126OSM   C11S13438   0.919   4.990   7.560 -0.5247  0.4540  0.0412
  126OSM   H11S13439   0.810   5.012   7.565 -0.6677  0.7970 -2.9384
  126OSM   H11T13440   0.967   5.089   7.556  1.4050 -0.4809 -2.5595
  126OSM   C12S13441   0.962   4.904   7.680 -0.0674 -0.4065  0.1352
  126OSM   H12S13442   1.072   4.892   7.674  0.1048  0.3561  1.4079
  126OSM   H12T13443   0.923   4.800   7.676  1.3870 -0.9376 -1.5181
  126OSM   C13S13444   0.920   4.970   7.809  0.3028  0.3599  0.3507
  126OSM   H13S13445   0.811   4.953   7.821  0.3630 -2.2391 -1.8212
  126OSM   H13T13446   0.931   5.080   7.816 -0.6874  0.6136 -1.3546
  126OSM   C14S13447   0.969   4.897   7.938 -0.1084 -1.0634 -0.8399
  126OSM   H14S13448   0.973   4.788   7.916 -1.4747 -0.9562 -1.7101
  126OSM   H14T13449   0.889   4.907   8.014  0.5338 -1.2986 -0.1095
  126OSM   C15S13450   1.113   4.935   8.001  0.9890  0.8172 -0.0588
  126OSM   H15S13451   1.105   5.035   8.047  1.2766  1.0139 -0.4286
  126OSM   H15T13452   1.189   4.932   7.920  0.7972 -1.4340 -0.2285
  126OSM   C16S13453   1.148   4.838   8.118  0.3492 -0.0379 -0.3320
  126OSM   H16S13454   1.167   4.733   8.088  0.2473 -0.2045  0.1607
  126OSM   H16T13455   1.054   4.837   8.178  1.4293 -0.7369  1.4269
  126OSM   C17S13456   1.263   4.896   8.206  1.2594 -0.1115 -0.1454
  126OSM   H17S13457   1.233   4.998   8.237  1.0658 -0.5484  1.1636
  126OSM   H17T13458   1.355   4.907   8.145 -0.4926  2.4080 -2.6082
  126OSM   C18S13459   1.298   4.815   8.327  0.8470 -0.4114 -0.3815
  126OSM   H18S13460   1.366   4.874   8.392  0.5258 -0.3685 -0.0824
  126OSM   H18T13461   1.358   4.725   8.299  0.4993 -0.6755 -0.2896
  126OSM   H18U13462   1.217   4.785   8.397  0.3451  2.2016  0.2570
  126OSM    C1F13463   0.488   5.222   6.723  0.6103  0.4979  0.0347
  126OSM     OF13464   0.508   5.175   6.609  0.4673  0.4124 -0.3159
  126OSM    C2F13465   0.371   5.189   6.815 -0.5473 -0.9907  0.7106
  126OSM    H2F13466   0.280   5.251   6.800  0.2346  0.1444  0.4675
  126OSM    H2G13467   0.415   5.195   6.917  1.4797  0.3331 -0.1809
  126OSM    C3F13468   0.336   5.042   6.790 -0.2434  0.1596  0.2092
  126OSM    H3F13469   0.423   4.986   6.831  0.4831  1.5804  0.7014
  126OSM    H3G13470   0.344   5.019   6.682  2.5512 -1.8735  0.7323
  126OSM    C4F13471   0.204   5.000   6.856 -0.1909 -0.7010 -0.0790
  126OSM    H4F13472   0.185   4.891   6.841 -0.2394 -1.1178  2.6050
  126OSM    H4G13473   0.125   5.063   6.808  0.8665  0.6036 -0.1588
  126OSM    C5F13474   0.194   5.031   7.004 -0.5976 -0.3209 -0.0023
  126OSM    H5F13475   0.210   5.140   7.021 -1.5526 -0.0586 -0.6598
  126OSM    H5G13476   0.263   4.967   7.062 -0.3606 -0.7282 -0.7224
  126OSM    C6F13477   0.046   5.021   7.052  0.2651  0.2984 -0.8485
  126OSM    H6F13478  -0.016   4.941   7.006 -1.8204  0.8557  0.8111
  126OSM    H6G13479  -0.008   5.112   7.019  0.1239 -0.1747 -1.9792
  126OSM    C7F13480   0.027   4.995   7.207 -0.1692 -0.2816 -0.2153
  126OSM    H7F13481  -0.083   5.001   7.222 -0.6004  3.5450 -3.3131
  126OSM    H7G13482   0.074   5.080   7.261 -0.4341  0.1986 -0.7313
  126OSM    C8F13483   0.091   4.869   7.258 -0.0203  0.7986 -0.2955
  126OSM    H8F13484   0.186   4.904   7.303 -1.1103  1.6440  1.4863
  126OSM    H8G13485   0.121   4.808   7.171  0.3724 -1.4740  1.3539
  126OSM    C9F13486   0.018   4.783   7.363 -0.2064 -0.2795 -0.8081
  126OSM    H9F13487  -0.045   4.702   7.324 -0.8093  0.8931 -2.3532
  126OSM   C10F13488   0.027   4.810   7.499 -0.3100 -0.4963  0.0767
  126OSM   H10F13489  -0.037   4.745   7.561  0.3411 -2.0015 -0.7532
  126OSM   C11F13490   0.105   4.914   7.567 -0.3081  0.0152  0.0545
  126OSM   H11F13491   0.181   4.936   7.490 -1.3775 -1.3682 -1.4766
  126OSM   H11G13492   0.160   4.868   7.652 -0.3518  0.0889  0.1233
  126OSM   C12F13493   0.018   5.029   7.620  0.4478 -0.4786  0.1826
  126OSM   H12F13494  -0.074   5.005   7.678 -0.3136  1.0837 -0.3382
  126OSM   H12G13495  -0.010   5.075   7.523  0.8401  1.0400  0.7721
  126OSM   C13F13496   0.099   5.132   7.696  0.5308 -0.4461 -0.1062
  126OSM   H13F13497   0.198   5.146   7.648  0.1811  2.2062 -0.2462
  126OSM   H13G13498   0.111   5.085   7.796 -2.3989  0.4735  0.7937
  126OSM   C14F13499   0.022   5.265   7.719  0.2388  0.3549  0.1634
  126OSM   H14F13500  -0.071   5.250   7.779  0.8485  0.9356  1.3031
  126OSM   H14G13501  -0.002   5.320   7.626 -0.4073 -0.8056 -0.3794
  126OSM   C15F13502   0.098   5.363   7.796 -0.2059 -0.6130 -0.1176
  126OSM   H15F13503   0.048   5.462   7.787 -1.4882 -1.3518 -1.5207
  126OSM   H15G13504   0.200   5.370   7.752 -0.4905  1.3781 -0.5211
  126OSM   C16F13505   0.127   5.325   7.940  0.2717 -0.3163  0.4138
  126OSM   H16F13506   0.169   5.225   7.965  0.4644 -0.7176 -1.3951
  126OSM   H16G13507   0.027   5.324   7.990  0.6125  0.6384  1.1426
  126OSM   C17F13508   0.214   5.428   8.007  0.3588 -0.7057  0.4537
  126OSM   H17F13509   0.189   5.532   7.977  2.0399  0.0031  1.3310
  126OSM   H17G13510   0.318   5.413   7.970  0.7028 -0.8078  1.4312
  126OSM   C18F13511   0.215   5.417   8.160  0.4656 -0.5017  0.4978
  126OSM   H18F13512   0.250   5.317   8.194 -1.1288 -1.0553  0.6064
  126OSM   H18G13513   0.112   5.426   8.202  0.1994  0.2121 -0.2995
  126OSM   H18H13514   0.266   5.498   8.216 -2.0652  2.2225 -0.8395
  127OSM      N13515   5.363   6.620   6.190  0.6042 -0.2050  0.7050
  127OSM    C1513516   5.471   6.723   6.204  0.2099 -0.2937  0.5326
  127OSM   H15A13517   5.569   6.679   6.219 -0.2073 -1.4402 -0.0263
  127OSM   H15B13518   5.457   6.792   6.286  1.3498  0.5496  0.0472
  127OSM   H15C13519   5.479   6.774   6.109 -2.2039 -2.1358 -0.7657
  127OSM    C1413520   5.239   6.698   6.156 -0.0964 -0.6468 -0.3565
  127OSM   H14A13521   5.204   6.755   6.241 -0.4466  1.0429 -1.5883
  127OSM   H14B13522   5.160   6.631   6.127 -0.3450  0.0174 -1.2663
  127OSM   H14C13523   5.256   6.762   6.071  2.2072 -1.6265 -0.7254
  127OSM    C1313524   5.401   6.533   6.076  0.5232 -0.5718  0.0523
  127OSM   H13A13525   5.331   6.453   6.058  0.0077 -0.0312 -0.3658
  127OSM   H13B13526   5.498   6.487   6.089 -0.8735 -3.2652  1.9662
  127OSM   H13C13527   5.397   6.584   5.981 -0.2391 -1.9959 -0.7162
  127OSM    C1213528   5.352   6.532   6.315 -0.2866 -0.6410  0.4532
  127OSM   H12A13529   5.292   6.446   6.292  0.2250 -1.4267  1.9113
  127OSM   H12B13530   5.310   6.588   6.398  0.1465 -0.4042  0.5174
  127OSM    C1113531   5.483   6.478   6.385 -0.6713  0.5541  0.1897
  127OSM   H11A13532   5.453   6.440   6.485 -2.3979 -0.2538 -0.5933
  127OSM   H11B13533   5.551   6.565   6.397  0.2907 -0.0207 -0.9258
  127OSM      P13534   5.639   6.268   6.365  0.3333 -0.3454 -0.5098
  127OSM    O1313535   5.651   6.150   6.284  0.1562  0.1574  0.2236
  127OSM    O1413536   5.759   6.352   6.379  0.0457 -0.9956  0.7681
  127OSM    O1113537   5.583   6.237   6.512 -0.1021 -0.3648 -0.0453
  127OSM    O1213538   5.528   6.369   6.298 -0.6464 -0.4692 -0.4443
  127OSM    C1S13539   5.479   6.141   6.535 -0.3002 -0.2268 -0.2626
  127OSM    H1S13540   5.475   6.058   6.461 -0.1990 -1.8137  1.4439
  127OSM    H1T13541   5.380   6.192   6.532 -0.7033 -0.8594  1.1751
  127OSM     NF13542   5.379   5.980   6.691 -0.2354 -0.4212  0.0554
  127OSM    HNF13543   5.286   5.989   6.725 -1.8360 -2.2515 -3.3119
  127OSM    C2S13544   5.463   6.100   6.687 -0.4313  0.9367 -0.1146
  127OSM    H2S13545   5.562   6.072   6.728 -1.5275 -2.7815  0.3436
  127OSM    C3S13546   5.403   6.225   6.759  0.1676 -0.8189 -0.8020
  127OSM    H3S13547   5.295   6.228   6.733  0.0137 -3.5926 -0.8155
  127OSM     O313548   5.461   6.350   6.730  0.0175 -0.0852 -0.0877
  127OSM    HO313549   5.514   6.328   6.653 -1.1058  0.1742 -0.9665
  127OSM    C4S13550   5.407   6.195   6.913 -0.3044 -0.9025 -0.5850
  127OSM    H4S13551   5.325   6.132   6.949 -2.2539  1.0586 -1.3819
  127OSM    C5S13552   5.485   6.242   7.012 -0.3764  0.0258  0.0092
  127OSM    H5S13553   5.556   6.322   6.986  0.1634 -0.7344 -0.9456
  127OSM    C6S13554   5.465   6.195   7.154 -0.6376  0.1060 -0.3280
  127OSM    H6S13555   5.404   6.103   7.164  2.1353 -1.7307  0.8334
  127OSM    H6T13556   5.417   6.276   7.214  0.4912 -0.6332  1.6674
  127OSM    C7S13557   5.604   6.155   7.207  0.6033  0.5015  0.6712
  127OSM    H7S13558   5.678   6.237   7.211  0.1918  1.0069 -1.1333
  127OSM    H7T13559   5.646   6.085   7.132 -1.4523 -0.5119  0.3931
  127OSM    C8S13560   5.579   6.083   7.343 -0.3903  1.0278 -0.2104
  127OSM    H8S13561   5.677   6.040   7.375 -0.9206  0.6014  0.8787
  127OSM    H8T13562   5.512   5.996   7.328  1.0023 -0.5041  1.9292
  127OSM    C9S13563   5.520   6.169   7.454 -0.0734  0.5765  0.5494
  127OSM    H9S13564   5.419   6.208   7.429 -0.4193 -0.4026  0.3344
  127OSM    H9T13565   5.586   6.257   7.468  0.0888  0.8979 -1.7459
  127OSM   C10S13566   5.518   6.104   7.589 -0.3959 -0.4264  1.0498
  127OSM   H10S13567   5.487   5.998   7.576  1.0895 -0.6795 -0.7597
  127OSM   H10T13568   5.455   6.170   7.653  0.3636 -0.7064  2.0951
  127OSM   C11S13569   5.659   6.096   7.650 -0.0042  0.1994  0.3169
  127OSM   H11S13570   5.709   6.192   7.624  1.4798 -0.7296 -0.4027
  127OSM   H11T13571   5.723   6.018   7.603 -0.5204  0.0043 -0.0676
  127OSM   C12S13572   5.656   6.065   7.802 -1.0216  0.0517 -0.3302
  127OSM   H12S13573   5.588   5.977   7.807 -1.5438  0.1493 -3.6325
  127OSM   H12T13574   5.616   6.154   7.855  1.0909  1.1505 -0.4485
  127OSM   C13S13575   5.792   6.043   7.858  0.3855  0.2384 -0.3494
  127OSM   H13S13576   5.861   6.117   7.812  1.3946 -0.3662  0.1619
  127OSM   H13T13577   5.834   5.943   7.835 -0.6712 -0.2038 -0.4049
  127OSM   C14S13578   5.797   6.065   8.011  0.0720 -0.0418  0.1506
  127OSM   H14S13579   5.735   5.990   8.064 -2.9663  1.5424 -0.9146
  127OSM   H14T13580   5.755   6.166   8.034 -1.6034 -0.8873  0.9514
  127OSM   C15S13581   5.943   6.062   8.073  0.0472  0.1174  0.6233
  127OSM   H15S13582   6.018   6.114   8.009 -0.4871  0.1158 -0.0223
  127OSM   H15T13583   5.975   5.956   8.058 -0.8576  0.1452 -2.0961
  127OSM   C16S13584   5.953   6.102   8.219  0.6788  0.0569  0.2429
  127OSM   H16S13585   5.869   6.049   8.270  1.7570 -2.6738 -0.6197
  127OSM   H16T13586   5.936   6.211   8.228  0.5070  0.0716 -0.2674
  127OSM   C17S13587   6.088   6.060   8.274 -0.0983 -1.1970 -0.6328
  127OSM   H17S13588   6.096   6.094   8.380 -1.3658 -2.9956  0.1067
  127OSM   H17T13589   6.165   6.111   8.212 -0.3221 -3.3479 -2.8236
  127OSM   C18S13590   6.108   5.909   8.282  0.0113 -0.4484 -0.3167
  127OSM   H18S13591   6.118   5.860   8.183  0.5284 -0.4599 -0.2597
  127OSM   H18T13592   6.028   5.864   8.345  0.7183 -0.4918  0.5659
  127OSM   H18U13593   6.205   5.892   8.333  0.0033  2.3971  0.8542
  127OSM    C1F13594   5.433   5.863   6.661  0.2591 -0.1882 -0.6294
  127OSM     OF13595   5.553   5.854   6.636  0.2126 -0.0660  0.1864
  127OSM    C2F13596   5.349   5.737   6.668  0.1704  0.8981  0.4603
  127OSM    H2F13597   5.303   5.704   6.572  0.8481 -1.0411  0.7462
  127OSM    H2G13598   5.258   5.763   6.725  0.2324 -0.3745  1.1811
  127OSM    C3F13599   5.410   5.610   6.732  0.0518  0.4890  0.7738
  127OSM    H3F13600   5.519   5.624   6.749  0.3592 -1.7509  0.9045
  127OSM    H3G13601   5.394   5.526   6.662 -0.1188 -0.0946  1.4997
  127OSM    C4F13602   5.332   5.583   6.869 -0.0566 -0.0008 -0.2453
  127OSM    H4F13603   5.348   5.482   6.911 -2.8958  0.2802  1.7408
  127OSM    H4G13604   5.222   5.586   6.854 -0.1872 -0.2609  0.5978
  127OSM    C5F13605   5.363   5.688   6.974 -0.2448  0.1674  0.2417
  127OSM    H5F13606   5.322   5.785   6.941  0.6567  0.6716  0.5618
  127OSM    H5G13607   5.472   5.709   6.978 -0.5645  2.0010  0.1312
  127OSM    C6F13608   5.323   5.651   7.122 -0.4072  0.4110  0.6722
  127OSM    H6F13609   5.390   5.565   7.143  1.3457  1.2930 -1.0246
  127OSM    H6G13610   5.216   5.627   7.143 -0.3300  1.0380  1.8798
  127OSM    C7F13611   5.365   5.761   7.219  0.7543  0.0065  0.1218
  127OSM    H7F13612   5.337   5.860   7.177 -0.4932  0.3800  1.7585
  127OSM    H7G13613   5.476   5.759   7.223  0.7422 -0.4226  0.3064
  127OSM    C8F13614   5.306   5.743   7.358 -1.2227  0.1283 -0.2193
  127OSM    H8F13615   5.364   5.810   7.424  1.7068 -0.7898 -1.6855
  127OSM    H8G13616   5.331   5.639   7.389 -2.1359 -1.2831 -3.6807
  127OSM    C9F13617   5.168   5.790   7.388 -0.0692 -0.0567 -0.1047
  127OSM    H9F13618   5.102   5.790   7.300 -0.1293 -0.8294 -0.0693
  127OSM   C10F13619   5.118   5.828   7.506  0.2593 -0.4809 -0.2793
  127OSM   H10F13620   5.011   5.854   7.506  0.8883  2.5791  1.5510
  127OSM   C11F13621   5.185   5.842   7.640  0.0382 -0.1889 -0.5136
  127OSM   H11F13622   5.149   5.937   7.685  1.2368  0.0834 -0.0918
  127OSM   H11G13623   5.294   5.857   7.628  0.2109 -1.0171 -0.0853
  127OSM   C12F13624   5.167   5.733   7.750  0.4036  0.0500 -0.5918
  127OSM   H12F13625   5.220   5.639   7.724  1.4078 -0.7890  3.6875
  127OSM   H12G13626   5.060   5.709   7.768  0.6652 -0.5578  0.2280
  127OSM   C13F13627   5.236   5.777   7.879  0.3509 -0.2047  0.1961
  127OSM   H13F13628   5.184   5.724   7.962  0.7829 -0.6128  0.2046
  127OSM   H13G13629   5.226   5.886   7.901 -1.2848 -0.8182  2.9965
  127OSM   C14F13630   5.391   5.752   7.874  0.9380  0.2827 -0.0246
  127OSM   H14F13631   5.440   5.795   7.784  1.4861 -0.2527  0.0059
  127OSM   H14G13632   5.408   5.642   7.864 -0.1782  0.1957 -1.3920
  127OSM   C15F13633   5.461   5.799   7.998 -0.1853 -0.6491 -0.3724
  127OSM   H15F13634   5.404   5.889   8.033 -1.6799 -1.7026  0.0158
  127OSM   H15G13635   5.571   5.808   7.990 -0.1939 -1.1840 -1.2733
  127OSM   C16F13636   5.454   5.711   8.128 -0.5592 -0.1595 -0.1437
  127OSM   H16F13637   5.547   5.652   8.143  0.1637  1.0136  0.0960
  127OSM   H16G13638   5.374   5.638   8.105  0.2704 -0.7168 -1.3972
  127OSM   C17F13639   5.435   5.793   8.258 -0.1224 -0.3248 -0.0560
  127OSM   H17F13640   5.416   5.714   8.334  1.4728  0.6088  1.3664
  127OSM   H17G13641   5.336   5.843   8.248 -1.6636 -3.2119 -0.3625
  127OSM   C18F13642   5.544   5.888   8.307 -0.8683 -0.5585 -0.2986
  127OSM   H18F13643   5.551   5.971   8.233 -1.3519 -1.3415 -1.2427
  127OSM   H18G13644   5.639   5.830   8.305 -1.2362 -1.2007  0.6455
  127OSM   H18H13645   5.531   5.935   8.406  2.8660 -0.8948  0.5157
  128OSM      N13646   0.436   3.983   6.108  0.1404  0.7663  0.2169
  128OSM    C1513647   0.380   4.075   6.008  0.0104 -0.6446  0.0470
  128OSM   H15A13648   0.385   4.174   6.050 -1.1599  0.1020 -1.4518
  128OSM   H15B13649   0.277   4.052   5.984  0.3317 -1.6482 -0.4079
  128OSM   H15C13650   0.440   4.068   5.918  1.7770  0.7110  1.0642
  128OSM    C1413651   0.464   3.848   6.053  0.4227  0.3124  0.3547
  128OSM   H14A13652   0.536   3.850   5.973 -0.9166  1.5680 -0.8820
  128OSM   H14B13653   0.373   3.799   6.021  0.3820  1.5995 -1.6367
  128OSM   H14C13654   0.506   3.790   6.134 -0.0531  0.4865  0.7353
  128OSM    C1313655   0.564   4.044   6.157 -0.6674  0.6785 -0.1983
  128OSM   H13A13656   0.546   4.136   6.211  2.6100  0.7167  1.1050
  128OSM   H13B13657   0.634   4.061   6.077 -1.6427  0.8741 -1.0262
  128OSM   H13C13658   0.616   3.977   6.224 -1.8542 -0.9998 -0.9132
  128OSM    C1213659   0.344   3.964   6.230 -0.2836  0.0984  0.6273
  128OSM   H12A13660   0.315   4.061   6.267  2.8724  1.4514 -0.1463
  128OSM   H12B13661   0.394   3.912   6.311  0.6516  1.9375  1.2924
  128OSM    C1113662   0.205   3.890   6.199 -0.4643 -0.7971  0.0577
  128OSM   H11A13663   0.181   3.862   6.304  0.6640  0.6783  0.7376
  128OSM   H11B13664   0.226   3.795   6.144  0.2155  0.5905 -2.1954
  128OSM      P13665  -0.020   4.023   6.196  0.3547  0.6449  0.2594
  128OSM    O1313666  -0.016   4.168   6.206  0.0794 -0.1510 -0.0977
  128OSM    O1413667  -0.138   3.969   6.117 -0.5147 -0.3227  0.3865
  128OSM    O1113668  -0.019   3.960   6.348 -0.1952 -0.2860 -0.4043
  128OSM    O1213669   0.108   3.970   6.121 -0.5806  0.2286  0.4846
  128OSM    C1S13670  -0.111   3.861   6.386  0.5667  0.4611  0.9901
  128OSM    H1S13671  -0.085   3.759   6.352 -0.5561 -1.1757  4.5093
  128OSM    H1T13672  -0.218   3.883   6.366 -0.0898 -1.1948  2.4480
  128OSM     NF13673  -0.173   3.730   6.582 -0.2532  1.0668 -0.1047
  128OSM    HNF13674  -0.265   3.746   6.615 -0.4807  0.4988 -0.4454
  128OSM    C2S13675  -0.097   3.844   6.544  0.1295  0.0339 -0.5690
  128OSM    H2S13676   0.013   3.833   6.560  0.5533  2.1245 -1.6493
  128OSM    C3S13677  -0.140   3.974   6.613 -0.3360 -0.1702 -0.3678
  128OSM    H3S13678  -0.246   3.989   6.585 -0.0122  1.8080 -0.7520
  128OSM     O313679  -0.084   4.095   6.566 -0.4642 -0.1380  0.2698
  128OSM    HO313680  -0.071   4.065   6.475 -0.7934 -3.3405  1.1602
  128OSM    C4S13681  -0.128   3.955   6.760 -0.4595 -0.4243 -0.5800
  128OSM    H4S13682  -0.218   3.903   6.797 -0.5153 -0.7440 -1.1510
  128OSM    C5S13683  -0.033   4.003   6.852  0.6001  0.1388  0.1134
  128OSM    H5S13684   0.037   4.076   6.812 -0.3565  1.2175  0.3538
  128OSM    C6S13685  -0.037   3.985   7.003 -0.0750 -0.4137  0.5689
  128OSM    H6S13686  -0.115   3.910   7.030  0.6281 -0.6483  2.0749
  128OSM    H6T13687  -0.057   4.086   7.044 -0.0093  1.0637 -2.7766
  128OSM    C7S13688   0.098   3.948   7.060  0.5577 -0.3090  0.4941
  128OSM    H7S13689   0.161   4.038   7.042  2.0451 -1.6129 -1.1804
  128OSM    H7T13690   0.144   3.866   7.001  1.5137  1.2113 -0.9565
  128OSM    C8S13691   0.083   3.908   7.209 -0.0168  0.3408  0.0944
  128OSM    H8S13692   0.001   3.835   7.226  0.3524  0.3065  2.0275
  128OSM    H8T13693   0.062   4.006   7.256  3.7463  1.3996 -0.1076
  128OSM    C9S13694   0.211   3.838   7.267  0.2161  0.1383 -0.0010
  128OSM    H9S13695   0.304   3.893   7.240  0.3717 -0.5845 -1.0209
  128OSM    H9T13696   0.221   3.733   7.232 -1.5085 -0.8347  2.2515
  128OSM   C10S13697   0.195   3.835   7.421 -0.1901  0.6902  0.0656
  128OSM   H10S13698   0.098   3.782   7.433 -1.3718  1.8268 -3.3607
  128OSM   H10T13699   0.189   3.942   7.451 -1.4039  0.6491  0.0067
  128OSM   C11S13700   0.313   3.759   7.501  0.5955 -0.1113 -0.0403
  128OSM   H11S13701   0.398   3.831   7.497 -1.4612  2.5037  0.3616
  128OSM   H11T13702   0.353   3.666   7.457  0.3864 -0.6711  0.9162
  128OSM   C12S13703   0.274   3.727   7.647  0.0227  0.2650 -0.3129
  128OSM   H12S13704   0.245   3.821   7.699  0.5021 -0.1441  0.7412
  128OSM   H12T13705   0.368   3.695   7.697  0.9850  1.7793 -1.0914
  128OSM   C13S13706   0.170   3.602   7.660 -0.3276 -0.2363 -0.8674
  128OSM   H13S13707   0.231   3.510   7.663  1.3405  0.7594 -2.3158
  128OSM   H13T13708   0.094   3.597   7.579 -0.9067 -1.1407 -0.2894
  128OSM   C14S13709   0.094   3.614   7.789 -0.1303 -0.3539 -0.1136
  128OSM   H14S13710   0.014   3.538   7.801 -1.9306  1.4455 -0.2662
  128OSM   H14T13711   0.043   3.712   7.784 -1.3382 -1.0272 -2.1781
  128OSM   C15S13712   0.185   3.604   7.913 -0.0227 -0.5346  0.2423
  128OSM   H15S13713   0.115   3.613   7.999  0.3471 -0.2570  0.5198
  128OSM   H15T13714   0.244   3.698   7.924 -0.5063 -0.3820  1.8203
  128OSM   C16S13715   0.270   3.482   7.930  0.1088  0.6223  0.0788
  128OSM   H16S13716   0.325   3.468   7.834 -1.4162  2.5510 -1.1656
  128OSM   H16T13717   0.208   3.390   7.937  1.2377 -0.1762 -0.3046
  128OSM   C17S13718   0.360   3.483   8.049  0.4450  0.5119 -0.1854
  128OSM   H17S13719   0.424   3.393   8.038  2.1260  1.6037  0.2154
  128OSM   H17T13720   0.301   3.481   8.143 -0.4096  0.6111 -0.7148
  128OSM   C18S13721   0.462   3.601   8.056  0.2756  0.1475  0.1722
  128OSM   H18S13722   0.409   3.692   8.090  0.4969  0.0075  0.8952
  128OSM   H18T13723   0.532   3.610   7.969 -1.0693 -1.4565 -1.1378
  128OSM   H18U13724   0.534   3.574   8.136 -0.4200 -0.1397  0.7014
  128OSM    C1F13725  -0.133   3.602   6.572 -0.5850 -1.5576 -0.4971
  128OSM     OF13726  -0.027   3.582   6.518  0.2598 -0.3532 -0.0808
  128OSM    C2F13727  -0.217   3.489   6.630 -0.1119  0.8106 -0.4898
  128OSM    H2F13728  -0.240   3.426   6.542 -0.5699  0.5521 -0.1910
  128OSM    H2G13729  -0.304   3.538   6.679  0.8428  1.5052  0.5896
  128OSM    C3F13730  -0.142   3.401   6.730 -0.1721  0.0499  0.0474
  128OSM    H3F13731  -0.102   3.461   6.814 -0.9293  0.6324 -0.0018
  128OSM    H3G13732  -0.059   3.354   6.673 -0.1104 -0.0709  0.2330
  128OSM    C4F13733  -0.234   3.282   6.770  0.5214 -1.1357 -0.7263
  128OSM    H4F13734  -0.286   3.230   6.688 -0.9690  3.7122 -3.2164
  128OSM    H4G13735  -0.303   3.334   6.840  1.7340  0.2565 -0.5148
  128OSM    C5F13736  -0.162   3.182   6.860  0.1039  0.4938  0.3309
  128OSM    H5F13737  -0.099   3.231   6.936  1.5348 -0.0683 -0.4598
  128OSM    H5G13738  -0.096   3.121   6.795  1.4106  0.2300  1.8427
  128OSM    C6F13739  -0.272   3.105   6.938 -0.0434 -0.3592  0.5482
  128OSM    H6F13740  -0.363   3.084   6.878  0.3605  0.7309 -0.4818
  128OSM    H6G13741  -0.297   3.178   7.018  1.7060  0.8794  0.0256
  128OSM    C7F13742  -0.213   2.982   7.004 -0.8285  1.2937 -0.6365
  128OSM    H7F13743  -0.143   3.016   7.083 -0.6651 -1.1205  0.3205
  128OSM    H7G13744  -0.143   2.931   6.934 -0.1697  0.8523  0.3316
  128OSM    C8F13745  -0.312   2.897   7.076  0.3039 -0.3029  0.4041
  128OSM    H8F13746  -0.398   2.869   7.011 -0.6062  1.8628  0.6007
  128OSM    H8G13747  -0.371   2.961   7.144  0.9833 -1.4017  2.0889
  128OSM    C9F13748  -0.255   2.776   7.140  0.1463  0.2441  0.3999
  128OSM    H9F13749  -0.229   2.690   7.077 -2.2767 -1.4133  1.5230
  128OSM   C10F13750  -0.245   2.764   7.272 -0.1429 -0.2153 -1.0114
  128OSM   H10F13751  -0.198   2.673   7.311  3.5753  1.1145 -1.9335
  128OSM   C11F13752  -0.280   2.868   7.370  0.7925 -0.0687  0.4359
  128OSM   H11F13753  -0.276   2.966   7.316  0.8349 -1.1416 -1.5900
  128OSM   H11G13754  -0.200   2.873   7.447  0.3583  0.4229  0.8667
  128OSM   C12F13755  -0.412   2.848   7.451 -0.1072  0.5906  0.0770
  128OSM   H12F13756  -0.406   2.742   7.483 -1.7486  0.1478 -0.9524
  128OSM   H12G13757  -0.499   2.859   7.383  0.4815  2.3422 -0.4607
  128OSM   C13F13758  -0.443   2.958   7.549  0.1105 -0.6290 -0.2872
  128OSM   H13F13759  -0.427   3.053   7.494 -0.6391 -0.5476 -0.3701
  128OSM   H13G13760  -0.372   2.959   7.635 -1.8519 -0.9268  1.4276
  128OSM   C14F13761  -0.587   2.945   7.615 -0.2263 -0.3804  0.1331
  128OSM   H14F13762  -0.659   2.915   7.536 -1.4103  0.1797  0.9642
  128OSM   H14G13763  -0.611   3.049   7.645  0.7702 -0.5964  1.8087
  128OSM   C15F13764  -0.596   2.854   7.743 -0.4206  0.0858 -0.1422
  128OSM   H15F13765  -0.543   2.908   7.825  0.0244  1.4040 -1.2604
  128OSM   H15G13766  -0.537   2.762   7.726  1.6634  1.4472 -0.7004
  128OSM   C16F13767  -0.742   2.829   7.794 -0.3091  0.1943  0.1049
  128OSM   H16F13768  -0.736   2.761   7.882 -0.2211 -0.3624 -0.3259
  128OSM   H16G13769  -0.798   2.772   7.717 -0.8383  1.9909 -0.8834
  128OSM   C17F13770  -0.833   2.948   7.817 -0.2872  0.2485  0.5960
  128OSM   H17F13771  -0.876   2.977   7.719  0.5682 -0.2569  0.0587
  128OSM   H17G13772  -0.767   3.019   7.870 -0.9444  0.8476  0.6231
  128OSM   C18F13773  -0.954   2.902   7.908  0.0937 -0.8960  0.5061
  128OSM   H18F13774  -1.022   2.989   7.908 -0.0496 -1.0078  0.1317
  128OSM   H18G13775  -0.909   2.883   8.008 -1.2795 -3.2436  0.7464
  128OSM   H18H13776  -1.008   2.818   7.859  0.4677  0.2842 -2.0923
  129OSM      N13777   4.466   0.632   6.080 -0.7573 -0.2987 -0.2411
  129OSM    C1513778   4.423   0.489   6.073  0.0163 -0.1708 -0.6677
  129OSM   H15A13779   4.408   0.460   5.970  0.5546  0.2377 -0.8697
  129OSM   H15B13780   4.335   0.475   6.135  0.4859  1.2867  0.3765
  129OSM   H15C13781   4.504   0.433   6.117  0.5709  0.0264 -1.4179
  129OSM    C1413782   4.593   0.645   6.004  0.0407 -0.6867  0.0253
  129OSM   H14A13783   4.589   0.595   5.908 -2.8420  0.0371 -0.3297
  129OSM   H14B13784   4.675   0.593   6.051 -0.3879 -1.7775 -0.4163
  129OSM   H14C13785   4.609   0.749   5.977  0.1852 -1.2015 -2.0480
  129OSM    C1313786   4.356   0.718   6.009  0.2622  0.3627 -0.1468
  129OSM   H13A13787   4.258   0.680   6.033 -0.1924  1.0847 -0.8064
  129OSM   H13B13788   4.388   0.741   5.909  1.7022  0.6366  0.3476
  129OSM   H13C13789   4.344   0.816   6.053 -1.9838 -0.2832  0.8510
  129OSM    C1213790   4.495   0.678   6.219  0.1699  0.1431 -0.3116
  129OSM   H12A13791   4.401   0.704   6.265  0.4898  0.0567  0.4023
  129OSM   H12B13792   4.560   0.765   6.217  0.2211  0.2035  1.7727
  129OSM    C1113793   4.573   0.579   6.313  0.2939  0.1024 -0.3174
  129OSM   H11A13794   4.509   0.488   6.318  0.4766  0.0121  0.6602
  129OSM   H11B13795   4.579   0.621   6.416  0.7360  2.0002 -1.0832
  129OSM      P13796   4.756   0.397   6.260  0.0120  0.1464  0.2404
  129OSM    O1313797   4.659   0.316   6.179 -0.2585  0.2068 -0.2509
  129OSM    O1413798   4.899   0.385   6.222 -0.4377  0.5700  0.8833
  129OSM    O1113799   4.738   0.354   6.413 -0.0952 -0.5243  0.3024
  129OSM    O1213800   4.701   0.549   6.253  0.2816  0.3382 -0.0327
  129OSM    C1S13801   4.780   0.227   6.470  0.2909 -0.4119  0.3041
  129OSM    H1S13802   4.890   0.219   6.455  0.5958  2.6010  0.2154
  129OSM    H1T13803   4.736   0.138   6.421  0.3823 -0.3111  0.0401
  129OSM     NF13804   4.809   0.109   6.671 -0.2345 -0.2634 -0.2017
  129OSM    HNF13805   4.751   0.054   6.730 -1.3938  0.0218 -1.0538
  129OSM    C2S13806   4.744   0.227   6.616 -0.2456  0.1003  0.0881
  129OSM    H2S13807   4.784   0.324   6.655  1.0384  0.1409 -1.2661
  129OSM    C3S13808   4.579   0.243   6.641  0.9452 -0.0857 -0.4005
  129OSM    H3S13809   4.533   0.152   6.598  0.8117 -0.1334 -0.1600
  129OSM     O313810   4.528   0.358   6.574 -0.3305  0.2281  0.0742
  129OSM    HO313811   4.609   0.383   6.529  0.2021  0.2247  1.0134
  129OSM    C4S13812   4.553   0.239   6.791 -1.0919 -0.5242 -0.2706
  129OSM    H4S13813   4.579   0.140   6.831  1.4470 -0.0071 -0.4315
  129OSM    C5S13814   4.505   0.343   6.864  0.0569 -0.3173  0.2685
  129OSM    H5S13815   4.493   0.440   6.813 -0.5641  0.3890  1.7000
  129OSM    C6S13816   4.491   0.336   7.015  0.0901  0.3910 -0.0998
  129OSM    H6S13817   4.543   0.248   7.058 -2.8003 -1.8523 -0.8897
  129OSM    H6T13818   4.386   0.309   7.035  0.3247 -0.7006 -0.2939
  129OSM    C7S13819   4.519   0.470   7.091 -0.5627 -0.0793 -0.4942
  129OSM    H7S13820   4.480   0.556   7.033 -0.5795  0.5768  0.4729
  129OSM    H7T13821   4.628   0.483   7.110 -0.5634  1.8121 -1.5426
  129OSM    C8S13822   4.462   0.463   7.234 -0.8289  0.2387 -0.1013
  129OSM    H8S13823   4.351   0.472   7.233 -1.0268 -1.5777  1.2087
  129OSM    H8T13824   4.488   0.556   7.290  0.6156  0.7594 -1.5638
  129OSM    C9S13825   4.511   0.346   7.320 -0.7755  0.9314  0.4393
  129OSM    H9S13826   4.619   0.363   7.341 -0.0867 -1.2376 -0.9188
  129OSM    H9T13827   4.505   0.257   7.254 -3.9121  0.1011  1.6927
  129OSM   C10S13828   4.438   0.313   7.447 -0.3554  0.7354  0.2446
  129OSM   H10S13829   4.476   0.214   7.481 -2.2788  0.1801  0.9597
  129OSM   H10T13830   4.333   0.300   7.413 -0.1298 -1.1113  0.1776
  129OSM   C11S13831   4.422   0.432   7.547 -0.6150  0.1386  0.1667
  129OSM   H11S13832   4.350   0.500   7.498 -0.0399  1.2406  0.8257
  129OSM   H11T13833   4.517   0.486   7.563  0.1877 -1.6548  1.8391
  129OSM   C12S13834   4.370   0.385   7.687 -0.3122  0.0142 -0.8135
  129OSM   H12S13835   4.451   0.326   7.734 -0.0313 -0.8203 -2.2913
  129OSM   H12T13836   4.278   0.323   7.692 -0.7137  0.4608 -2.1522
  129OSM   C13S13837   4.338   0.499   7.786 -0.1573 -0.1072 -0.7387
  129OSM   H13S13838   4.247   0.547   7.745  0.0660  1.4854  0.5393
  129OSM   H13T13839   4.418   0.576   7.791  1.4411 -1.6579 -1.3351
  129OSM   C14S13840   4.289   0.455   7.922 -0.1530  0.1886  0.5377
  129OSM   H14S13841   4.191   0.406   7.900  0.5109 -1.2313  0.6331
  129OSM   H14T13842   4.264   0.544   7.984  0.2657  0.4297  0.3598
  129OSM   C15S13843   4.381   0.366   8.000 -0.1103  0.8974 -0.2016
  129OSM   H15S13844   4.479   0.416   8.017  1.3656 -2.1443  0.8277
  129OSM   H15T13845   4.389   0.270   7.945 -1.3842  0.7699 -0.1995
  129OSM   C16S13846   4.327   0.318   8.143 -0.3903  0.7887 -0.0251
  129OSM   H16S13847   4.274   0.395   8.203 -1.1187  0.4494 -0.2303
  129OSM   H16T13848   4.424   0.294   8.193 -0.6745 -0.3946 -0.0192
  129OSM   C17S13849   4.234   0.203   8.143 -0.5083 -0.2613  0.6406
  129OSM   H17S13850   4.282   0.129   8.074 -0.5835  0.3478 -0.0781
  129OSM   H17T13851   4.138   0.234   8.096 -2.0175 -0.7228  3.2101
  129OSM   C18S13852   4.218   0.152   8.286 -0.1516 -0.1937  0.0506
  129OSM   H18S13853   4.187   0.236   8.352 -2.5900 -1.8710  1.1917
  129OSM   H18T13854   4.310   0.109   8.332 -0.9220 -1.5169  0.4171
  129OSM   H18U13855   4.120   0.101   8.300 -1.3913  2.5542  2.4020
  129OSM    C1F13856   4.941   0.086   6.685 -0.2781 -0.3078 -0.5380
  129OSM     OF13857   5.032   0.158   6.636  0.0049 -0.2932 -0.5183
  129OSM    C2F13858   4.983  -0.039   6.753  0.1986 -0.4251  0.6546
  129OSM    H2F13859   5.080  -0.066   6.705 -0.9303 -0.1049 -2.0108
  129OSM    H2G13860   4.925  -0.130   6.726  1.8589 -1.3637  0.1471
  129OSM    C3F13861   5.012  -0.017   6.903  0.5387  0.3524 -0.9220
  129OSM    H3F13862   5.080   0.068   6.923  0.9009 -0.4317  1.4357
  129OSM    H3G13863   5.068  -0.106   6.938 -0.4218 -0.1727 -0.7056
  129OSM    C4F13864   4.888  -0.011   7.000 -0.4518 -0.0016 -0.6494
  129OSM    H4F13865   4.846  -0.114   6.996  2.3319 -1.3086  1.0389
  129OSM    H4G13866   4.812   0.061   6.962  0.3838  1.1655 -0.1543
  129OSM    C5F13867   4.933   0.023   7.148  0.1915  0.3071  0.2568
  129OSM    H5F13868   4.971   0.126   7.134  0.9485 -0.1410 -1.1356
  129OSM    H5G13869   5.014  -0.042   7.187  0.1987 -0.4864 -1.0169
  129OSM    C6F13870   4.811   0.027   7.242 -0.2944  0.2796 -0.2736
  129OSM    H6F13871   4.794  -0.080   7.264  2.3838  0.2285  2.1432
  129OSM    H6G13872   4.725   0.076   7.192 -0.6762  0.4224  0.4984
  129OSM    C7F13873   4.823   0.106   7.376 -0.5806  0.2591  0.2874
  129OSM    H7F13874   4.722   0.128   7.417 -1.3742  2.7978 -2.6491
  129OSM    H7G13875   4.864   0.206   7.349  1.2695  0.0444  2.0368
  129OSM    C8F13876   4.920   0.047   7.482  0.4422 -0.0571 -0.2015
  129OSM    H8F13877   4.948   0.130   7.550 -0.6267  0.0687  0.1098
  129OSM    H8G13878   5.015   0.035   7.425  0.6336  0.6858 -0.0539
  129OSM    C9F13879   4.861  -0.075   7.540  0.0676 -0.0086 -0.0639
  129OSM    H9F13880   4.848  -0.160   7.473  0.0100 -1.3330  1.5626
  129OSM   C10F13881   4.843  -0.080   7.669  0.2827  0.0422 -1.0433
  129OSM   H10F13882   4.802  -0.174   7.708 -0.4401  0.8461  0.2048
  129OSM   C11F13883   4.868   0.023   7.777  0.2323  0.1986  0.7293
  129OSM   H11F13884   4.921   0.115   7.744  0.5890 -0.9610 -2.1655
  129OSM   H11G13885   4.943  -0.020   7.848 -2.8513 -0.3794  3.9251
  129OSM   C12F13886   4.738   0.061   7.853  0.9365 -0.4774  0.0861
  129OSM   H12F13887   4.662  -0.019   7.839 -0.2972  0.4693  1.2285
  129OSM   H12G13888   4.689   0.155   7.821 -0.8932 -1.2465  0.5220
  129OSM   C13F13889   4.748   0.078   8.004  0.4385  0.7167  0.6838
  129OSM   H13F13890   4.820   0.160   8.025  1.1347  0.2618  0.0945
  129OSM   H13G13891   4.791  -0.017   8.043  2.0374  0.2354 -2.0548
  129OSM   C14F13892   4.611   0.097   8.082  0.3020 -0.3401  0.9156
  129OSM   H14F13893   4.534   0.026   8.048  0.1256  0.9019 -1.4996
  129OSM   H14G13894   4.580   0.187   8.024  0.4201 -2.4380 -2.7372
  129OSM   C15F13895   4.612   0.115   8.236  0.2592  0.6677  0.3030
  129OSM   H15F13896   4.513   0.078   8.272  0.8727 -2.5084 -0.8938
  129OSM   H15G13897   4.635   0.217   8.272  0.2431  0.8416 -0.1850
  129OSM   C16F13898   4.704   0.009   8.297  0.6654  0.4627 -0.1522
  129OSM   H16F13899   4.808   0.049   8.291  0.3187  1.7456  1.6757
  129OSM   H16G13900   4.690  -0.085   8.239 -0.9095  0.7149 -0.2142
  129OSM   C17F13901   4.669  -0.019   8.450  0.1138  0.5288  0.4936
  129OSM   H17F13902   4.745  -0.082   8.501  0.9601  1.7116  0.7555
  129OSM   H17G13903   4.567  -0.062   8.457  1.3264 -2.8048 -0.3935
  129OSM   C18F13904   4.671   0.114   8.531  0.0222 -0.0957 -0.5458
  129OSM   H18F13905   4.589   0.178   8.491 -0.2923 -1.3772 -2.0083
  129OSM   H18G13906   4.768   0.166   8.513  0.6339 -1.6793 -2.0710
  129OSM   H18H13907   4.666   0.084   8.638 -0.4441 -2.7638 -1.2523
  130OSM      N13908   5.439   2.287   5.957 -0.7942  0.2976  0.0488
  130OSM    C1513909   5.340   2.200   6.027  0.0751 -0.3186 -0.2748
  130OSM   H15A13910   5.265   2.265   6.069 -0.2292 -0.8250 -0.0257
  130OSM   H15B13911   5.394   2.156   6.109  0.1283 -2.0458 -1.1925
  130OSM   H15C13912   5.287   2.131   5.963  1.2124 -1.3866 -0.1044
  130OSM    C1413913   5.558   2.209   5.909  0.4773  0.3362 -0.3581
  130OSM   H14A13914   5.636   2.272   5.868  2.6822 -1.5246  0.7713
  130OSM   H14B13915   5.535   2.137   5.833  0.1725  2.8990 -2.8743
  130OSM   H14C13916   5.591   2.146   5.990 -2.2744  0.5023  1.0143
  130OSM    C1313917   5.380   2.357   5.845  0.0064 -0.2881 -0.2143
  130OSM   H13A13918   5.349   2.293   5.764  1.6180 -1.2895 -0.0799
  130OSM   H13B13919   5.455   2.421   5.798 -0.3735 -0.0399 -0.4897
  130OSM   H13C13920   5.301   2.418   5.886  0.7180  0.0404  0.7188
  130OSM    C1213921   5.483   2.390   6.061 -0.3054  0.5117  0.4095
  130OSM   H12A13922   5.567   2.435   6.010 -0.0819 -0.7033 -0.3439
  130OSM   H12B13923   5.513   2.341   6.152 -0.5773 -0.9761 -0.2723
  130OSM    C1113924   5.375   2.498   6.088 -0.1814  0.4964 -0.2171
  130OSM   H11A13925   5.343   2.539   5.990 -0.5582 -2.2993 -1.3417
  130OSM   H11B13926   5.425   2.570   6.155 -0.4833 -1.2197  1.9652
  130OSM      P13927   5.244   2.398   6.300  0.1736  0.0481 -0.0804
  130OSM    O1313928   5.114   2.341   6.317 -0.0428  0.3278  0.2739
  130OSM    O1413929   5.354   2.307   6.324 -0.1235 -0.0266  0.0161
  130OSM    O1113930   5.267   2.531   6.383  0.3914 -0.0181 -0.1407
  130OSM    O1213931   5.257   2.445   6.149  0.4526 -0.6382 -1.0502
  130OSM    C1S13932   5.390   2.565   6.453  0.9480  0.9127 -0.6297
  130OSM    H1S13933   5.448   2.637   6.391 -0.6403  1.2633 -1.7802
  130OSM    H1T13934   5.448   2.478   6.490 -0.7203  0.7663  1.9059
  130OSM     NF13935   5.464   2.703   6.649 -0.2404 -0.7127  0.3005
  130OSM    HNF13936   5.511   2.663   6.726 -0.3710  0.8547  1.2301
  130OSM    C2S13937   5.350   2.633   6.589 -0.1098  0.2546 -0.7343
  130OSM    H2S13938   5.272   2.709   6.567 -0.7456 -0.5838 -1.4456
  130OSM    C3S13939   5.287   2.522   6.680 -0.7518  0.0776 -0.3123
  130OSM    H3S13940   5.353   2.433   6.692 -2.5066 -1.4138 -1.1295
  130OSM     O313941   5.165   2.473   6.633  0.4991 -0.3315 -0.4867
  130OSM    HO313942   5.154   2.510   6.546  0.6410 -1.0635 -0.8251
  130OSM    C4S13943   5.254   2.580   6.822 -0.5787 -0.3906 -0.1404
  130OSM    H4S13944   5.199   2.675   6.832  0.2446  0.2759 -1.5416
  130OSM    C5S13945   5.294   2.539   6.946 -0.5648  0.1869  0.1014
  130OSM    H5S13946   5.355   2.448   6.956  0.1811  0.6268 -0.3794
  130OSM    C6S13947   5.267   2.613   7.070 -0.2712  0.6057 -0.3195
  130OSM    H6S13948   5.188   2.572   7.136 -0.9867  2.4133  0.0167
  130OSM    H6T13949   5.228   2.715   7.050 -2.2154  0.0565  0.3731
  130OSM    C7S13950   5.381   2.613   7.172 -0.6609 -0.6748 -0.1298
  130OSM    H7S13951   5.465   2.673   7.132 -1.6324  4.7654  4.5782
  130OSM    H7T13952   5.413   2.508   7.186 -1.3352 -0.7933  0.5875
  130OSM    C8S13953   5.329   2.663   7.311  0.8249  0.5517 -0.2821
  130OSM    H8S13954   5.287   2.578   7.369 -2.1721  1.2692 -1.2061
  130OSM    H8T13955   5.238   2.721   7.283 -0.6316 -0.8513  1.3622
  130OSM    C9S13956   5.440   2.729   7.400 -0.2022  0.6400 -0.1190
  130OSM    H9S13957   5.467   2.829   7.358  0.9774 -0.4374 -2.0410
  130OSM    H9T13958   5.527   2.661   7.402 -0.2562  0.5877  0.3932
  130OSM   C10S13959   5.404   2.735   7.550  0.1092 -0.1996  0.3219
  130OSM   H10S13960   5.376   2.635   7.591  0.5791 -0.4745 -0.0210
  130OSM   H10T13961   5.320   2.804   7.572  1.6343  2.0191 -0.5546
  130OSM   C11S13962   5.537   2.790   7.626  0.4004 -0.3803  0.7037
  130OSM   H11S13963   5.576   2.885   7.582  2.3022 -1.0534  0.8785
  130OSM   H11T13964   5.615   2.713   7.618  1.6417  1.0150 -1.6216
  130OSM   C12S13965   5.498   2.818   7.775 -0.9027 -1.0694 -0.2244
  130OSM   H12S13966   5.420   2.898   7.777 -0.8995 -0.8527 -3.3715
  130OSM   H12T13967   5.587   2.860   7.826 -2.1158  2.2925 -0.5982
  130OSM   C13S13968   5.450   2.697   7.850  0.4844 -0.0525 -0.7875
  130OSM   H13S13969   5.520   2.611   7.852 -1.6705 -1.9057 -1.3997
  130OSM   H13T13970   5.363   2.662   7.790 -0.0533  1.4965 -0.9457
  130OSM   C14S13971   5.403   2.738   7.993 -0.0639  0.4502  0.8422
  130OSM   H14S13972   5.308   2.794   7.981 -0.8857 -0.9731  0.6249
  130OSM   H14T13973   5.468   2.819   8.034 -0.6725  0.8333  1.0528
  130OSM   C15S13974   5.388   2.626   8.098 -0.3328 -0.0348 -0.3430
  130OSM   H15S13975   5.306   2.552   8.088  0.3695 -0.7013 -1.3541
  130OSM   H15T13976   5.375   2.685   8.192 -0.6220 -2.7541  1.4195
  130OSM   C16S13977   5.515   2.546   8.131  0.1460 -0.0902  0.2145
  130OSM   H16S13978   5.553   2.525   8.029  1.6566 -0.4454  0.8283
  130OSM   H16T13979   5.502   2.448   8.183  2.5241 -1.3211 -1.3068
  130OSM   C17S13980   5.624   2.631   8.198 -0.8466  1.0964 -0.4481
  130OSM   H17S13981   5.588   2.667   8.297  1.8209  0.1228  0.9812
  130OSM   H17T13982   5.640   2.725   8.142 -1.6651  1.5509  0.0551
  130OSM   C18S13983   5.759   2.567   8.239 -0.3714 -0.6674 -0.1346
  130OSM   H18S13984   5.824   2.544   8.152  0.9218  0.4263  0.5062
  130OSM   H18T13985   5.751   2.469   8.291  2.1172 -2.0625 -2.1267
  130OSM   H18U13986   5.813   2.646   8.294 -0.8847  0.0021 -0.5796
  130OSM    C1F13987   5.516   2.816   6.596 -0.4212  0.0754 -0.5296
  130OSM     OF13988   5.478   2.866   6.495 -0.9422 -0.7173  0.4658
  130OSM    C2F13989   5.636   2.868   6.666  0.7537  0.4632  0.1014
  130OSM    H2F13990   5.621   2.977   6.684  0.6848  0.2721  1.2514
  130OSM    H2G13991   5.731   2.851   6.611  1.1413 -0.2179  0.9718
  130OSM    C3F13992   5.653   2.807   6.811 -0.1985 -0.1303 -0.3637
  130OSM    H3F13993   5.682   2.701   6.802  1.1835  0.2260 -0.3050
  130OSM    H3G13994   5.558   2.814   6.867  0.7426 -0.1132  1.2783
  130OSM    C4F13995   5.750   2.892   6.907  0.1027  0.0446 -0.3453
  130OSM    H4F13996   5.696   2.986   6.932  0.8145  0.7963 -1.5839
  130OSM    H4G13997   5.854   2.906   6.872  1.3219 -2.3694  1.9437
  130OSM    C5F13998   5.772   2.814   7.042  0.4070 -0.0326  0.4516
  130OSM    H5F13999   5.846   2.733   7.023  0.0534 -0.0457 -0.9709
  130OSM    H5G14000   5.673   2.775   7.076  0.4468 -1.9251 -1.3866
  130OSM    C6F14001   5.821   2.906   7.157  0.8997  0.3495  0.2000
  130OSM    H6F14002   5.730   2.964   7.184  1.1193  1.7764 -1.8947
  130OSM    H6G14003   5.896   2.976   7.113 -1.6922  0.2411 -5.2069
  130OSM    C7F14004   5.857   2.827   7.283 -0.5111  0.4383  0.1514
  130OSM    H7F14005   5.963   2.796   7.291 -0.0657  1.7332 -0.5584
  130OSM    H7G14006   5.798   2.733   7.278  0.1966 -0.0751  1.1489
  130OSM    C8F14007   5.803   2.898   7.404 -0.0373  0.4223  0.4087
  130OSM    H8F14008   5.796   2.823   7.486  0.7261  1.4510  1.4497
  130OSM    H8G14009   5.698   2.925   7.382  0.0735 -0.5802 -1.5550
  130OSM    C9F14010   5.899   3.003   7.448 -0.6129  0.6442  0.1331
  130OSM    H9F14011   6.006   2.975   7.456 -0.5306  0.7641 -0.5019
  130OSM   C10F14012   5.863   3.128   7.496  0.1367 -0.1376  0.0514
  130OSM   H10F14013   5.942   3.198   7.527 -1.7483  2.1880 -0.1786
  130OSM   C11F14014   5.725   3.188   7.504  0.0955 -0.1808 -0.4094
  130OSM   H11F14015   5.653   3.146   7.431 -0.2301 -1.0736  0.4101
  130OSM   H11G14016   5.735   3.294   7.470 -3.0492 -0.1349 -1.4894
  130OSM   C12F14017   5.687   3.176   7.654  0.4985 -0.1873 -0.2436
  130OSM   H12F14018   5.682   3.070   7.685  0.1765 -1.1994 -3.3436
  130OSM   H12G14019   5.584   3.216   7.665  1.0811  0.9843  1.3348
  130OSM   C13F14020   5.773   3.251   7.755  0.6574  0.3308 -0.5088
  130OSM   H13F14021   5.807   3.348   7.714 -0.7556  1.0794  0.0397
  130OSM   H13G14022   5.865   3.191   7.775  0.4674  0.3930  0.6186
  130OSM   C14F14023   5.691   3.268   7.882 -0.3297 -0.3741 -0.6759
  130OSM   H14F14024   5.675   3.171   7.934  4.0534 -1.6634 -1.3538
  130OSM   H14G14025   5.596   3.318   7.854 -0.1948  0.3433  0.0984
  130OSM   C15F14026   5.751   3.356   7.996  0.9410  0.8992 -0.4990
  130OSM   H15F14027   5.674   3.375   8.074  1.7188 -1.2512  0.8792
  130OSM   H15G14028   5.781   3.454   7.954 -0.0861  0.4373 -2.4328
  130OSM   C16F14029   5.878   3.298   8.064 -0.1078  0.5777 -0.2990
  130OSM   H16F14030   5.926   3.383   8.117  1.8608  0.1158 -1.2300
  130OSM   H16G14031   5.946   3.259   7.985 -1.1546 -1.0588 -0.4296
  130OSM   C17F14032   5.853   3.190   8.172 -0.5406 -0.0854 -1.0838
  130OSM   H17F14033   5.948   3.135   8.191 -0.6860 -1.3037 -3.5019
  130OSM   H17G14034   5.774   3.116   8.146 -1.0542  0.4678 -1.1115
  130OSM   C18F14035   5.807   3.269   8.301 -0.5265  0.1290 -0.2822
  130OSM   H18F14036   5.880   3.351   8.315  1.3222 -1.4792 -0.2294
  130OSM   H18G14037   5.807   3.204   8.391  1.7363  1.3631  0.6979
  130OSM   H18H14038   5.712   3.322   8.275 -0.1634  1.0211  0.1544
  131OSM      N14039   5.979   0.172   6.073  0.4814 -0.1996  0.1629
  131OSM    C1514040   6.078   0.214   5.956 -0.4314 -0.1055 -0.2172
  131OSM   H15A14041   6.150   0.288   5.988  1.2936 -1.6177 -0.4092
  131OSM   H15B14042   6.024   0.240   5.866  0.8971  2.4798 -0.3443
  131OSM   H15C14043   6.140   0.130   5.929  1.3230  1.5470 -1.6126
  131OSM    C1414044   5.900   0.065   6.016  0.5474  0.0277  0.2536
  131OSM   H14A14045   5.836   0.091   5.933  1.7334  1.3081 -0.3184
  131OSM   H14B14046   5.844   0.024   6.098  0.5106  0.5711  0.5004
  131OSM   H14C14047   5.970  -0.012   5.984  1.1805  0.5300  0.4062
  131OSM    C1314048   6.051   0.127   6.185  0.0826  0.5040 -1.0618
  131OSM   H13A14049   6.099   0.209   6.238  0.8443  1.1587 -2.6859
  131OSM   H13B14050   6.132   0.058   6.166 -0.4797 -0.3998 -0.2342
  131OSM   H13C14051   5.996   0.073   6.260  2.7986 -0.1986  0.5792
  131OSM    C1214052   5.894   0.292   6.112  0.0669 -0.5779  0.5065
  131OSM   H12A14053   5.829   0.316   6.029 -0.3001 -0.3506  0.8515
  131OSM   H12B14054   5.959   0.378   6.114 -0.0735 -0.4010 -1.2711
  131OSM    C1114055   5.807   0.287   6.243  0.2024 -0.0033  0.2823
  131OSM   H11A14056   5.785   0.389   6.279  0.5200 -0.7092  2.6608
  131OSM   H11B14057   5.857   0.241   6.331  1.2986 -1.9841 -1.2746
  131OSM      P14058   5.549   0.289   6.157 -0.2997  0.1197 -0.1718
  131OSM    O1314059   5.581   0.398   6.060 -0.9152 -0.5404 -0.0954
  131OSM    O1414060   5.448   0.192   6.118  0.4356 -0.8267  0.1026
  131OSM    O1114061   5.491   0.347   6.291 -0.2650 -0.2811 -0.1046
  131OSM    O1214062   5.681   0.219   6.209 -0.5394  0.6522  0.0780
  131OSM    C1S14063   5.420   0.270   6.391 -0.7700  0.0517  0.9476
  131OSM    H1S14064   5.414   0.163   6.363 -0.2863  0.0933  0.6736
  131OSM    H1T14065   5.320   0.314   6.412 -1.4206 -1.4836  1.1402
  131OSM     NF14066   5.448   0.184   6.629 -0.1186  0.2610  0.1224
  131OSM    HNF14067   5.387   0.216   6.701 -0.7591 -0.0920 -0.2538
  131OSM    C2S14068   5.496   0.279   6.529  0.2963 -0.1633  0.4025
  131OSM    H2S14069   5.601   0.248   6.507 -0.7420 -3.4909 -0.4678
  131OSM    C3S14070   5.479   0.423   6.581 -0.2780  0.3489 -0.3601
  131OSM    H3S14071   5.371   0.445   6.597 -0.2100 -0.7905  2.1050
  131OSM     O314072   5.533   0.529   6.503  0.8794 -0.0030 -0.5008
  131OSM    HO314073   5.548   0.495   6.414 -1.6466  0.5014 -1.2043
  131OSM    C4S14074   5.556   0.444   6.715 -0.0907 -0.5238  0.7843
  131OSM    H4S14075   5.665   0.458   6.706 -0.4269  1.1721 -1.5811
  131OSM    C5S14076   5.517   0.463   6.843  0.0019  0.2631  0.0714
  131OSM    H5S14077   5.413   0.491   6.868  0.5834  1.8554  0.8026
  131OSM    C6S14078   5.616   0.485   6.952 -0.4291 -0.3415  0.2858
  131OSM    H6S14079   5.723   0.482   6.924 -0.9218 -2.1738 -1.6808
  131OSM    H6T14080   5.608   0.390   7.007 -0.6146 -1.3674 -1.4436
  131OSM    C7S14081   5.578   0.604   7.045 -0.4062 -0.0972  0.2721
  131OSM    H7S14082   5.653   0.599   7.127 -1.0850  1.3026  1.0244
  131OSM    H7T14083   5.485   0.604   7.105 -0.3060  0.3281  0.4391
  131OSM    C8S14084   5.570   0.744   6.966  0.2107  0.8356 -0.1842
  131OSM    H8S14085   5.476   0.735   6.908 -0.3462  0.0828  0.7973
  131OSM    H8T14086   5.645   0.733   6.885  1.0234 -0.6999  0.7355
  131OSM    C9S14087   5.577   0.872   7.051 -0.1100 -0.6829 -0.6579
  131OSM    H9S14088   5.682   0.892   7.079 -0.8964  0.1202  1.9905
  131OSM    H9T14089   5.508   0.852   7.136 -0.1949 -0.0318 -0.5698
  131OSM   C10S14090   5.536   1.001   6.973 -0.1676  0.5941 -0.0452
  131OSM   H10S14091   5.455   0.973   6.901 -0.0691 -1.6667  0.6545
  131OSM   H10T14092   5.621   1.031   6.908  1.2479 -0.8556  1.0779
  131OSM   C11S14093   5.480   1.114   7.060  0.0782  0.5385 -0.4755
  131OSM   H11S14094   5.388   1.083   7.113 -1.2035  3.0790 -1.0263
  131OSM   H11T14095   5.438   1.190   6.991  0.7580  0.9375 -0.4573
  131OSM   C12S14096   5.581   1.181   7.165  0.0861  0.0489  0.1752
  131OSM   H12S14097   5.658   1.229   7.102  0.4168 -3.3580 -2.2749
  131OSM   H12T14098   5.632   1.100   7.221 -1.2878  0.2718  1.8491
  131OSM   C13S14099   5.512   1.274   7.263  0.4178 -0.3908 -0.2130
  131OSM   H13S14100   5.442   1.333   7.201  0.9061  0.6802  0.2302
  131OSM   H13T14101   5.581   1.341   7.319 -0.2923  0.4852 -0.3752
  131OSM   C14S14102   5.435   1.199   7.368  0.3054  0.1364  0.4741
  131OSM   H14S14103   5.497   1.125   7.423  1.6459  0.6893 -0.2625
  131OSM   H14T14104   5.352   1.147   7.316  0.6310  0.7026 -0.6327
  131OSM   C15S14105   5.379   1.293   7.477 -0.0247  0.2223 -0.1562
  131OSM   H15S14106   5.292   1.346   7.433  0.6889 -0.1711 -2.1233
  131OSM   H15T14107   5.447   1.378   7.499 -0.9051  0.9660 -0.2598
  131OSM   C16S14108   5.327   1.221   7.604  0.2062 -0.5350  0.4889
  131OSM   H16S14109   5.415   1.164   7.641  1.2843 -0.1552 -1.3825
  131OSM   H16T14110   5.245   1.154   7.571 -0.1557  0.8790 -1.6535
  131OSM   C17S14111   5.282   1.315   7.715 -0.6907 -0.4623 -0.4536
  131OSM   H17S14112   5.195   1.370   7.675  0.2596  2.1114  0.7963
  131OSM   H17T14113   5.348   1.401   7.739 -0.4515 -0.7836  0.0815
  131OSM   C18S14114   5.252   1.249   7.845  0.0467  0.2247 -0.5402
  131OSM   H18S14115   5.334   1.220   7.913  0.6401  1.3089 -0.7685
  131OSM   H18T14116   5.211   1.148   7.826  1.8827 -1.1853  2.3134
  131OSM   H18U14117   5.186   1.312   7.909  2.1162  1.3988  0.5582
  131OSM    C1F14118   5.470   0.057   6.616 -0.4986 -0.0013  0.4022
  131OSM     OF14119   5.549   0.011   6.530  1.1568 -0.2225  0.2040
  131OSM    C2F14120   5.411  -0.035   6.724  0.3235 -0.4136  0.3554
  131OSM    H2F14121   5.317  -0.079   6.685 -0.2163  1.4414 -0.5584
  131OSM    H2G14122   5.382   0.031   6.810 -0.9923 -1.6749  0.9200
  131OSM    C3F14123   5.508  -0.138   6.786 -0.5038 -0.0664 -0.4288
  131OSM    H3F14124   5.603  -0.087   6.813 -0.6838 -0.3868  0.8560
  131OSM    H3G14125   5.529  -0.219   6.713 -2.8323 -1.6489  0.5515
  131OSM    C4F14126   5.470  -0.211   6.919 -0.1216 -0.6781 -0.1645
  131OSM    H4F14127   5.521  -0.309   6.909  0.7468 -0.1100 -1.9200
  131OSM    H4G14128   5.363  -0.237   6.930 -0.4090  0.1473 -0.8233
  131OSM    C5F14129   5.529  -0.153   7.051  0.1986  0.2288 -0.0400
  131OSM    H5F14130   5.478  -0.062   7.089 -1.2848 -0.0323 -1.3052
  131OSM    H5G14131   5.631  -0.119   7.025  1.0555 -2.1683 -0.0654
  131OSM    C6F14132   5.539  -0.250   7.167 -0.1320 -0.1887  0.3957
  131OSM    H6F14133   5.617  -0.208   7.235 -0.0727 -1.7099  1.3303
  131OSM    H6G14134   5.581  -0.348   7.135  1.2938 -0.2127  2.1563
  131OSM    C7F14135   5.416  -0.249   7.267 -0.4779 -0.4512  0.4092
  131OSM    H7F14136   5.407  -0.351   7.311 -0.5836 -1.4973 -1.9105
  131OSM    H7G14137   5.328  -0.234   7.202 -0.3183  0.5114  0.4025
  131OSM    C8F14138   5.411  -0.131   7.366 -0.5326  0.1478  0.0385
  131OSM    H8F14139   5.429  -0.036   7.311  1.1450 -0.7378 -1.0197
  131OSM    H8G14140   5.498  -0.139   7.435  0.0299  1.4802 -0.4748
  131OSM    C9F14141   5.281  -0.124   7.434 -0.6185 -0.8861 -0.1473
  131OSM    H9F14142   5.199  -0.114   7.362 -1.0374 -1.1828  0.2786
  131OSM   C10F14143   5.257  -0.131   7.564  0.5295  0.6339 -0.4265
  131OSM   H10F14144   5.158  -0.116   7.610  2.7217  1.3566  4.7159
  131OSM   C11F14145   5.362  -0.151   7.670  0.1102 -0.8826 -0.3792
  131OSM   H11F14146   5.449  -0.084   7.656 -1.6625  1.2013 -2.1093
  131OSM   H11G14147   5.381  -0.261   7.673 -3.0391 -1.5219 -0.1140
  131OSM   C12F14148   5.294  -0.112   7.806 -0.8388 -0.5366  0.1347
  131OSM   H12F14149   5.199  -0.168   7.815 -1.6442  0.4847 -1.3899
  131OSM   H12G14150   5.281  -0.001   7.801 -0.4297 -0.4604  0.6814
  131OSM   C13F14151   5.382  -0.126   7.935  0.3954 -0.4657 -0.0099
  131OSM   H13F14152   5.474  -0.065   7.923  1.4132 -1.7735  0.8730
  131OSM   H13G14153   5.435  -0.222   7.945  0.9891 -0.7726 -4.3782
  131OSM   C14F14154   5.309  -0.087   8.062  0.0543  0.0373  0.5695
  131OSM   H14F14155   5.223  -0.153   8.084 -0.8976  1.2158  0.5006
  131OSM   H14G14156   5.282   0.021   8.059  0.5523  0.1418 -0.6401
  131OSM   C15F14157   5.406  -0.091   8.182  0.2732  0.1114 -1.1666
  131OSM   H15F14158   5.496  -0.027   8.168 -1.0995  2.4445  0.0703
  131OSM   H15G14159   5.444  -0.195   8.186 -0.0579 -0.0152 -1.3107
  131OSM   C16F14160   5.353  -0.073   8.327  0.1451  0.2901 -0.0251
  131OSM   H16F14161   5.332   0.029   8.367  0.0615 -0.2808  1.4530
  131OSM   H16G14162   5.427  -0.107   8.402  2.5549  1.6862 -1.6237
  131OSM   C17F14163   5.224  -0.157   8.345 -0.1426  0.6383  0.8474
  131OSM   H17F14164   5.224  -0.241   8.272  0.3602  1.0897  0.3167
  131OSM   H17G14165   5.136  -0.100   8.308  0.1417  0.1296 -0.7251
  131OSM   C18F14166   5.199  -0.220   8.475  0.6121  0.1653 -0.8686
  131OSM   H18F14167   5.103  -0.274   8.462  0.8004 -0.1750 -0.8363
  131OSM   H18G14168   5.186  -0.143   8.555  1.9125  0.3853 -0.8443
  131OSM   H18H14169   5.264  -0.303   8.507 -0.5734 -0.7031 -0.6329
  132OSM      N14170   1.024   3.452   6.380 -0.7690 -0.3048 -0.3994
  132OSM    C1514171   1.154   3.379   6.415 -0.2975 -0.4977  0.0682
  132OSM   H15A14172   1.155   3.322   6.507  0.6150 -1.0343 -0.2744
  132OSM   H15B14173   1.235   3.450   6.420 -1.1089  0.5809 -1.2515
  132OSM   H15C14174   1.181   3.311   6.336  1.4726 -0.7762  0.8627
  132OSM    C1414175   0.997   3.553   6.487  0.1411 -0.2541 -0.0894
  132OSM   H14A14176   1.092   3.596   6.512  0.2104 -0.4444 -0.0220
  132OSM   H14B14177   0.960   3.506   6.577 -0.0229 -0.2510 -0.1551
  132OSM   H14C14178   0.929   3.633   6.460 -0.3917  0.3548  2.7486
  132OSM    C1314179   1.043   3.518   6.248  0.3071  0.1007  0.3761
  132OSM   H13A14180   1.110   3.602   6.252  1.8457 -1.0297 -0.5100
  132OSM   H13B14181   0.953   3.563   6.209  0.0284 -1.0823 -0.4008
  132OSM   H13C14182   1.080   3.442   6.181  0.9968 -0.3253  1.2153
  132OSM    C1214183   0.921   3.346   6.366 -0.2765 -0.6772  0.1838
  132OSM   H12A14184   0.890   3.301   6.459 -1.6545  0.9991  0.5901
  132OSM   H12B14185   0.966   3.265   6.310  1.8256 -0.3867  1.3456
  132OSM    C1114186   0.792   3.384   6.303 -0.4316  0.5166 -0.8217
  132OSM   H11A14187   0.801   3.426   6.201  0.7886  1.6130 -0.2870
  132OSM   H11B14188   0.729   3.450   6.367  0.6957  0.7025  0.1198
  132OSM      P14189   0.677   3.190   6.161 -0.0717  0.1785 -0.2587
  132OSM    O1314190   0.795   3.201   6.074 -0.4366 -0.3536  0.5126
  132OSM    O1414191   0.640   3.049   6.189  0.4318 -0.0859 -0.2354
  132OSM    O1114192   0.552   3.272   6.108 -0.0711  0.4713  0.4250
  132OSM    O1214193   0.714   3.266   6.296  0.1536  0.4614  0.3733
  132OSM    C1S14194   0.422   3.263   6.165 -0.0184 -0.2819 -0.2638
  132OSM    H1S14195   0.403   3.158   6.198  0.5552  0.5262  2.9609
  132OSM    H1T14196   0.346   3.288   6.088 -0.6534 -1.0129  0.1098
  132OSM     NF14197   0.281   3.315   6.366 -0.0871 -0.4923  0.0495
  132OSM    HNF14198   0.188   3.328   6.331  1.1921  0.3441 -3.4665
  132OSM    C2S14199   0.401   3.356   6.294  0.1470  0.2186  0.3008
  132OSM    H2S14200   0.496   3.341   6.350  0.9992 -0.1161 -1.1655
  132OSM    C3S14201   0.398   3.505   6.240 -0.5672 -0.0622  0.3682
  132OSM    H3S14202   0.311   3.524   6.175  0.2759 -1.2392 -1.1726
  132OSM     O314203   0.505   3.541   6.150  0.1200 -0.7487  0.0069
  132OSM    HO314204   0.538   3.454   6.126 -1.1312 -1.1129 -0.4693
  132OSM    C4S14205   0.393   3.604   6.353 -0.1045  0.8615  0.7485
  132OSM    H4S14206   0.289   3.602   6.389 -1.1068 -0.0611 -1.9346
  132OSM    C5S14207   0.479   3.681   6.415  0.2761 -0.0852 -0.6055
  132OSM    H5S14208   0.584   3.689   6.383  0.6057 -0.1117  0.4064
  132OSM    C6S14209   0.429   3.766   6.529 -0.0329  0.4860  0.1548
  132OSM    H6S14210   0.321   3.791   6.527 -0.0673  0.3450  0.2708
  132OSM    H6T14211   0.483   3.863   6.526 -0.6300  0.8529  0.8719
  132OSM    C7S14212   0.445   3.688   6.657  0.3144 -0.2033 -0.6324
  132OSM    H7S14213   0.443   3.757   6.744 -1.3438  0.1469 -0.9016
  132OSM    H7T14214   0.545   3.640   6.661 -0.0729 -1.0083 -0.4379
  132OSM    C8S14215   0.333   3.585   6.687 -0.1783 -0.0949 -0.5614
  132OSM    H8S14216   0.341   3.493   6.625  1.3958 -1.3840  1.4437
  132OSM    H8T14217   0.237   3.633   6.655 -0.8732 -0.1260  1.3739
  132OSM    C9S14218   0.329   3.536   6.834 -0.0951  0.2872  0.1412
  132OSM    H9S14219   0.398   3.592   6.900  0.4471  0.7607 -0.8161
  132OSM    H9T14220   0.372   3.433   6.838  1.8989  1.0213 -1.0120
  132OSM   C10S14221   0.196   3.550   6.912 -0.3230 -0.9088 -0.4240
  132OSM   H10S14222   0.116   3.493   6.860  0.2971 -1.6092 -0.6232
  132OSM   H10T14223   0.168   3.657   6.924  1.9535 -0.3273  0.1905
  132OSM   C11S14224   0.206   3.497   7.056 -0.3733  0.0669  0.9310
  132OSM   H11S14225   0.272   3.558   7.121  0.1462 -1.1380  1.5630
  132OSM   H11T14226   0.258   3.399   7.060  0.9749  0.5869 -1.6300
  132OSM   C12S14227   0.068   3.498   7.125  0.0592 -0.5852 -0.7256
  132OSM   H12S14228  -0.010   3.465   7.053  0.0646  0.5677 -1.2938
  132OSM   H12T14229   0.048   3.602   7.159 -0.0049 -0.3756 -1.3953
  132OSM   C13S14230   0.060   3.405   7.251  0.3105 -0.7897 -0.2789
  132OSM   H13S14231   0.132   3.432   7.331  0.8326 -0.9908 -0.6717
  132OSM   H13T14232   0.091   3.306   7.211  1.4916 -0.2854 -0.6601
  132OSM   C14S14233  -0.069   3.409   7.339  0.3595 -0.4632 -0.1122
  132OSM   H14S14234  -0.163   3.401   7.281 -0.7429 -3.3614  1.8353
  132OSM   H14T14235  -0.069   3.503   7.399  2.1997 -1.0105  0.8492
  132OSM   C15S14236  -0.066   3.298   7.444 -0.5613  0.0727  0.4173
  132OSM   H15S14237   0.030   3.313   7.498  1.6853 -0.1214 -3.1709
  132OSM   H15T14238  -0.065   3.199   7.392  0.5091 -0.1719  0.8638
  132OSM   C16S14239  -0.171   3.317   7.548  0.1673  0.5109 -0.2683
  132OSM   H16S14240  -0.264   3.358   7.503 -2.7937 -1.6457  3.3310
  132OSM   H16T14241  -0.133   3.405   7.605 -1.3217 -0.1872  1.9582
  132OSM   C17S14242  -0.187   3.202   7.643  0.3250  0.6243 -0.2264
  132OSM   H17S14243  -0.211   3.112   7.581  0.8423  1.4564 -1.6938
  132OSM   H17T14244  -0.277   3.208   7.707  1.5893 -1.8162  1.9484
  132OSM   C18S14245  -0.074   3.172   7.742 -0.1074 -0.1773 -0.5788
  132OSM   H18S14246  -0.109   3.080   7.794  1.2995 -1.0690 -1.1498
  132OSM   H18T14247  -0.049   3.253   7.814  0.5231 -0.5485 -0.3719
  132OSM   H18U14248   0.017   3.134   7.692  1.5647  0.7068  1.6402
  132OSM    C1F14249   0.286   3.220   6.459 -0.3061  0.4648  0.4778
  132OSM     OF14250   0.390   3.170   6.496  0.0822 -0.2109  0.3600
  132OSM    C2F14251   0.145   3.168   6.498 -0.2162  0.1514 -0.4800
  132OSM    H2F14252   0.101   3.115   6.410  1.9396 -3.7762  0.5472
  132OSM    H2G14253   0.086   3.255   6.531  0.5127  0.4376  0.0977
  132OSM    C3F14254   0.168   3.076   6.616  0.0002  0.2187 -0.6397
  132OSM    H3F14255   0.241   2.996   6.589 -2.1101 -1.8176 -0.6538
  132OSM    H3G14256   0.068   3.035   6.642  0.0104 -0.6144 -1.7879
  132OSM    C4F14257   0.219   3.137   6.746 -0.3013 -0.4887  0.7006
  132OSM    H4F14258   0.153   3.223   6.767 -0.8708  0.7113 -4.6206
  132OSM    H4G14259   0.319   3.178   6.722  0.3666 -2.3800  0.0057
  132OSM    C5F14260   0.221   3.038   6.862 -0.1086  0.1344 -0.5048
  132OSM    H5F14261   0.283   2.947   6.847  3.1667  1.2936  3.6847
  132OSM    H5G14262   0.115   3.009   6.877  0.1988 -0.0734  1.6524
  132OSM    C6F14263   0.274   3.100   6.990 -0.4638  0.0955 -0.2898
  132OSM    H6F14264   0.222   3.193   7.021 -0.2883  0.0149  0.2560
  132OSM    H6G14265   0.381   3.125   6.979 -0.6259  0.0978 -2.2517
  132OSM    C7F14266   0.266   3.006   7.111 -0.2454  0.4002 -0.0700
  132OSM    H7F14267   0.296   2.901   7.090  2.5815  1.1678 -0.2969
  132OSM    H7G14268   0.162   3.002   7.151  0.4061 -1.6426  1.6178
  132OSM    C8F14269   0.370   3.038   7.224  0.4968  0.2670  0.6935
  132OSM    H8F14270   0.479   3.021   7.208  0.5803  0.5141  0.9966
  132OSM    H8G14271   0.347   2.954   7.294  0.9951 -0.5051 -0.0489
  132OSM    C9F14272   0.352   3.171   7.286 -0.7155  0.1514 -0.9611
  132OSM    H9F14273   0.349   3.253   7.213 -1.4005  2.6148  1.6823
  132OSM   C10F14274   0.330   3.208   7.413  0.5180 -0.0959 -0.0987
  132OSM   H10F14275   0.345   3.317   7.416 -1.7823  0.2630 -0.1652
  132OSM   C11F14276   0.322   3.116   7.537  0.4160 -0.8345  0.4730
  132OSM   H11F14277   0.405   3.042   7.543  0.8704 -0.3603  0.0716
  132OSM   H11G14278   0.228   3.057   7.526  0.3994 -0.4460 -2.3877
  132OSM   C12F14279   0.341   3.204   7.662 -0.0193 -0.1509  1.7923
  132OSM   H12F14280   0.249   3.264   7.674 -0.7417 -0.5772 -1.0061
  132OSM   H12G14281   0.430   3.270   7.653 -1.1541  1.2033  0.0162
  132OSM   C13F14282   0.376   3.115   7.784  0.6683 -0.1561  0.3429
  132OSM   H13F14283   0.416   3.179   7.866  0.4009  2.7607 -1.6527
  132OSM   H13G14284   0.445   3.030   7.765 -0.7524 -0.8279 -2.2239
  132OSM   C14F14285   0.247   3.050   7.849 -0.1787 -0.2974  0.5549
  132OSM   H14F14286   0.216   2.961   7.789  1.3926  0.4443 -1.4691
  132OSM   H14G14287   0.161   3.118   7.831  0.9890  0.9832 -0.3734
  132OSM   C15F14288   0.260   3.000   7.991  0.1714  0.3545 -0.5033
  132OSM   H15F14289   0.164   2.957   8.027  0.6417  1.8454  2.8777
  132OSM   H15G14290   0.262   3.081   8.067  0.7868 -2.2657  2.4924
  132OSM   C16F14291   0.375   2.889   8.008  0.3118 -0.2730  0.4144
  132OSM   H16F14292   0.471   2.942   7.990  0.3741 -0.2034  0.9422
  132OSM   H16G14293   0.350   2.825   7.921 -1.2654  1.1692 -0.2536
  132OSM   C17F14294   0.374   2.810   8.137 -0.1146  0.8027 -0.1161
  132OSM   H17F14295   0.287   2.741   8.131  1.1128 -0.8214  0.0100
  132OSM   H17G14296   0.346   2.876   8.222 -1.2639  1.7146 -1.1573
  132OSM   C18F14297   0.505   2.735   8.163  0.1186  0.3214 -0.6052
  132OSM   H18F14298   0.584   2.813   8.163  0.4551  0.2219  3.4804
  132OSM   H18G14299   0.523   2.658   8.085 -2.2078  0.9603 -1.8337
  132OSM   H18H14300   0.514   2.689   8.264  2.5201  1.3878 -0.2575
  133SAPE     N14301   3.107   2.550  11.004  0.6431 -0.2567 -0.4655
  133SAPE   HN114302   3.166   2.567  10.920 -1.0870  0.2989 -1.6253
  133SAPE   HN214303   3.060   2.641  11.023 -0.2444 -1.0891  1.7065
  133SAPE   HN314304   3.161   2.526  11.090 -0.8346  2.2653  1.3128
  133SAPE   C1214305   2.995   2.445  10.986 -0.0852  0.6587  0.1808
  133SAPE  H12A14306   2.929   2.445  11.076 -2.0727 -0.7171 -1.1917
  133SAPE  H12B14307   3.047   2.348  10.972 -0.0639  0.6903  0.0392
  133SAPE   C1114308   2.905   2.478  10.872  0.1541 -0.0370  0.6962
  133SAPE  H11A14309   2.835   2.392  10.862  1.7273 -1.3414  0.5526
  133SAPE  H11B14310   2.955   2.453  10.776 -0.8446 -1.8317  0.5990
  133SAPE     P14311   2.730   2.638  10.772  0.0493  0.0797  0.3954
  133SAPE   O1314312   2.638   2.522  10.771 -0.0492 -0.5244  0.4843
  133SAPE   O1414313   2.669   2.773  10.802  0.7109  0.3864  0.3850
  133SAPE   O1214314   2.849   2.610  10.868  0.3565 -0.1883  0.2870
  133SAPE   O1114315   2.794   2.649  10.625 -1.0107 -0.5955  0.5025
  133SAPE    C114316   2.911   2.734  10.605 -0.1064 -0.8595  0.6165
  133SAPE    HA14317   2.880   2.840  10.595  1.6935 -0.4087 -0.6712
  133SAPE    HB14318   2.974   2.732  10.696  0.2484  0.8252  0.4345
  133SAPE    C214319   2.997   2.696  10.480 -0.7370  0.6013 -0.0692
  133SAPE    HS14320   3.087   2.762  10.476  0.3075 -0.7520  0.2632
  133SAPE   O2114321   2.930   2.678  10.354  0.0126  0.2566 -0.5709
  133SAPE   C2114322   2.895   2.793  10.296  0.7244 -0.6829 -0.5437
  133SAPE   O2214323   2.916   2.905  10.342  0.2983 -0.4422  0.1262
  133SAPE   C2214324   2.847   2.754  10.158  0.4746  0.3522 -0.1654
  133SAPE   H2R14325   2.746   2.707  10.164  0.6793 -0.4891 -2.3819
  133SAPE   H2S14326   2.855   2.836  10.083 -0.6459  1.3112  0.7135
  133SAPE    C314327   3.058   2.549  10.508 -0.0663 -0.3471  0.1652
  133SAPE    HX14328   2.980   2.470  10.510  1.8723 -2.4430 -1.5179
  133SAPE    HY14329   3.099   2.556  10.611 -0.5222  1.3431  0.2620
  133SAPE   O3114330   3.160   2.512  10.413 -0.2756  0.2716 -0.6383
  133SAPE   C3114331   3.194   2.387  10.407  0.3078  0.5127  0.1088
  133SAPE   O3214332   3.163   2.302  10.492  0.8808  0.1530 -0.3585
  133SAPE   C3214333   3.291   2.353  10.296 -0.6602  0.5068 -1.1972
  133SAPE   H2X14334   3.373   2.288  10.333 -0.0157  2.4882  1.1058
  133SAPE   H2Y14335   3.336   2.448  10.260  1.5386 -0.9979 -2.6988
  133SAPE   C2314336   2.944   2.642  10.095  0.5798  0.6396  0.4471
  133SAPE   H3R14337   2.872   2.587  10.030  2.1253  0.1940 -0.9389
  133SAPE   H3S14338   2.983   2.571  10.171 -1.4320 -2.1109 -0.9015
  133SAPE   C2414339   3.061   2.700  10.016 -0.6930  0.7882 -0.6717
  133SAPE   H4R14340   3.120   2.769  10.080  0.5880  2.1955 -3.1746
  133SAPE   H4S14341   3.016   2.763   9.935  1.6212 -0.6687 -3.2508
  133SAPE   C2514342   3.158   2.610   9.942 -0.1876  0.7129 -0.2313
  133SAPE   H5R14343   3.110   2.524   9.893 -0.9002  0.4643  0.8530
  133SAPE   C2614344   3.287   2.622   9.946  0.0748  0.3372 -0.1797
  133SAPE   H6R14345   3.349   2.551   9.890  0.9390  0.6683  0.3489
  133SAPE   C2714346   3.363   2.730  10.022 -0.4966  0.0122  0.3926
  133SAPE   H7R14347   3.339   2.722  10.131  1.0664  0.2677  0.7834
  133SAPE   H7S14348   3.319   2.827   9.991  1.0501  0.3652 -0.8369
  133SAPE   C2814349   3.514   2.742  10.017 -0.4119 -0.4314 -0.6745
  133SAPE   H8R14350   3.566   2.722  10.112 -2.6947 -2.6800  0.2011
  133SAPE   C2914351   3.592   2.758   9.912 -0.0706 -0.0038 -0.5205
  133SAPE   H9R14352   3.692   2.795   9.938  0.1812 -0.8165 -0.3080
  133SAPE  C21014353   3.555   2.782   9.767  0.4338  0.4412  0.2888
  133SAPE  H10R14354   3.601   2.876   9.728 -0.6991  0.2348 -1.6619
  133SAPE  H10S14355   3.446   2.803   9.772  0.3273 -0.3409  2.1025
  133SAPE  C21114356   3.568   2.660   9.676  0.4457  0.4051  0.1478
  133SAPE  H11R14357   3.495   2.579   9.692 -1.6495  1.6586 -2.5021
  133SAPE  C21214358   3.659   2.644   9.583 -0.0471  0.2259  0.8155
  133SAPE  H12R14359   3.675   2.549   9.530 -0.4209  0.6536 -0.1004
  133SAPE  C21314360   3.758   2.740   9.539 -0.0150  0.3732  0.4008
  133SAPE  H13R14361   3.852   2.729   9.597 -0.4134  0.0890  1.0093
  133SAPE  H13S14362   3.727   2.846   9.550 -0.8409  0.1898 -0.0701
  133SAPE  C21414363   3.806   2.715   9.389 -0.3304  0.1778 -0.1926
  133SAPE  H14R14364   3.755   2.635   9.332  0.2090 -0.7195  0.5617
  133SAPE  C21514365   3.884   2.802   9.325 -0.5209 -0.2179 -0.1575
  133SAPE  H15R14366   3.910   2.775   9.222  0.9182 -1.5293  0.5102
  133SAPE  C21614367   3.945   2.939   9.371  0.2207  1.0335 -0.4393
  133SAPE  H16R14368   3.907   2.961   9.474  0.5991 -0.7336  0.1072
  133SAPE  H16S14369   3.912   3.021   9.304 -0.0626  2.2613  1.1236
  133SAPE  C21714370   4.095   2.937   9.404 -0.0411  0.3678  0.2728
  133SAPE  H17R14371   4.161   2.895   9.326 -0.2609  2.4405 -1.0992
  133SAPE  H17S14372   4.115   2.871   9.492 -0.7434 -1.6101 -0.9890
  133SAPE  C21814373   4.144   3.082   9.450  0.7770  1.4244  0.3729
  133SAPE  H18R14374   4.079   3.112   9.536  0.3395 -1.2466  1.0414
  133SAPE  H18S14375   4.118   3.138   9.358  0.4843 -0.2662 -0.6087
  133SAPE  C21914376   4.291   3.095   9.468 -0.1917  0.6422  0.1337
  133SAPE  H19R14377   4.352   3.062   9.381 -0.0641 -0.6994  0.7187
  133SAPE  H19S14378   4.327   3.036   9.555 -0.2822 -0.4700 -0.5718
  133SAPE  C22014379   4.311   3.247   9.491 -0.1185  0.0684 -0.2506
  133SAPE  H20R14380   4.419   3.274   9.491 -0.5375  1.9025 -1.2671
  133SAPE  H20S14381   4.257   3.266   9.586  0.5284  0.4966  0.0440
  133SAPE  H20T14382   4.270   3.301   9.404  1.9528  0.5728 -0.9793
  133SAPE   C3314383   3.210   2.291  10.186 -0.0843 -0.6225  0.5434
  133SAPE   H3X14384   3.137   2.366  10.147  1.5067  0.2742 -0.8566
  133SAPE   H3Y14385   3.152   2.205  10.224  0.1581 -0.7224  0.6848
  133SAPE   C3414386   3.298   2.245  10.074 -0.3495  0.0006  0.3283
  133SAPE   H4X14387   3.388   2.193  10.113  1.7712  2.0049 -1.5902
  133SAPE   H4Y14388   3.326   2.336  10.017  3.2631 -2.1246 -1.6956
  133SAPE   C3514389   3.223   2.136   9.992 -0.3388  0.3947 -0.3241
  133SAPE   H5X14390   3.133   2.175   9.940 -0.2472  0.7868 -0.1981
  133SAPE   H5Y14391   3.194   2.052  10.058 -1.1237 -1.5821 -2.9961
  133SAPE   C3614392   3.310   2.077   9.878  0.3232  0.3141  0.1328
  133SAPE   H6X14393   3.407   2.046   9.922  0.4723  0.5204 -0.0530
  133SAPE   H6Y14394   3.333   2.160   9.809 -0.5391 -0.6487 -1.3573
  133SAPE   C3714395   3.242   1.971   9.788 -0.8873  0.3427 -0.2360
  133SAPE   H7X14396   3.144   2.013   9.756  0.1084  2.5597 -0.5964
  133SAPE   H7Y14397   3.221   1.878   9.845 -1.7526  0.3802 -0.4749
  133SAPE   C3814398   3.329   1.944   9.666  0.1705  1.2129  0.5358
  133SAPE   H8X14399   3.433   1.936   9.705 -0.8463  0.2107  3.3059
  133SAPE   H8Y14400   3.329   2.031   9.598 -2.0331  1.6435  0.9856
  133SAPE   C3914401   3.289   1.811   9.595  0.2784  0.0986 -0.0133
  133SAPE   H9X14402   3.184   1.827   9.564  0.1794 -0.8547 -0.1962
  133SAPE   H9Y14403   3.297   1.723   9.663 -0.4678 -1.3803 -1.7580
  133SAPE  C31014404   3.364   1.773   9.465  0.8889  0.0324  0.2134
  133SAPE  H10X14405   3.313   1.681   9.430  0.2635 -0.5350  2.4172
  133SAPE  H10Y14406   3.472   1.751   9.479  0.9623 -0.5134 -1.0799
  133SAPE  C31114407   3.337   1.873   9.352  0.4428 -0.6702 -0.3873
  133SAPE  H11X14408   3.363   1.971   9.398  0.1956 -0.7592 -0.0549
  133SAPE  H11Y14409   3.229   1.893   9.333  0.0888 -2.9557 -1.0575
  133SAPE  C31214410   3.425   1.839   9.234 -0.3574  0.0253  0.0858
  133SAPE  H12X14411   3.399   1.742   9.187  1.5962 -0.8086  0.6288
  133SAPE  H12Y14412   3.531   1.839   9.268  0.1670  1.1238 -1.4245
  133SAPE  C31314413   3.436   1.956   9.134  0.1046  0.0090 -0.0879
  133SAPE  H13X14414   3.346   1.970   9.071  0.0438 -0.7377 -0.1811
  133SAPE  H13Y14415   3.525   1.931   9.073 -0.0136  0.5865 -0.5019
  133SAPE  C31414416   3.467   2.097   9.197 -0.1556 -0.2994 -0.1708
  133SAPE  H14X14417   3.535   2.075   9.282  1.0722 -0.0335 -1.0385
  133SAPE  H14Y14418   3.372   2.141   9.234  0.9310  0.5576  1.7504
  133SAPE  C31514419   3.524   2.201   9.099  0.1446 -0.1492  0.6197
  133SAPE  H15X14420   3.452   2.221   9.017  0.6580  0.4689  0.3006
  133SAPE  H15Y14421   3.617   2.148   9.067  1.0256 -0.9117  4.0425
  133SAPE  C31614422   3.572   2.344   9.159  0.4850 -0.1128  0.3673
  133SAPE  H16X14423   3.608   2.413   9.080  1.7419  0.3535  1.3273
  133SAPE  H16Y14424   3.639   2.331   9.247 -1.3352  0.9603  2.0135
  133SAPE  C31714425   3.451   2.427   9.214 -0.4954  0.1591  0.1098
  133SAPE  H17X14426   3.489   2.510   9.277  3.7785 -0.9923 -0.6293
  133SAPE  H17Y14427   3.392   2.361   9.281 -2.6183 -1.3947 -3.0367
  133SAPE  C31814428   3.370   2.485   9.095 -0.5496  0.2089  0.1543
  133SAPE  H18X14429   3.277   2.525   9.140  0.6220  0.8715  2.1367
  133SAPE  H18Y14430   3.359   2.405   9.019  0.1040 -0.6236  0.9209
  133SAPE  H18Z14431   3.436   2.558   9.042 -1.4415  0.3334 -0.8244
  134SAPE     N14432   6.523   2.778  10.660 -0.0522 -0.1006  0.7941
  134SAPE   HN114433   6.464   2.695  10.644  1.1192 -1.1576  1.7254
  134SAPE   HN214434   6.533   2.826  10.568 -1.8109  0.9391  1.0920
  134SAPE   HN314435   6.621   2.744  10.672 -0.2513 -1.1114 -0.2918
  134SAPE   C1214436   6.483   2.869  10.767  0.2520  0.5587 -0.6577
  134SAPE  H12A14437   6.560   2.946  10.786 -1.7086  2.4777  0.0133
  134SAPE  H12B14438   6.478   2.811  10.862 -0.8271 -0.0234 -1.0461
  134SAPE   C1114439   6.352   2.942  10.739 -0.4867 -0.2620  0.0853
  134SAPE  H11A14440   6.275   2.869  10.705  1.7998 -2.7741 -0.0302
  134SAPE  H11B14441   6.358   3.016  10.657 -0.4082 -0.8960 -0.4836
  134SAPE     P14442   6.146   3.071  10.841 -0.1258  0.2338  0.0342
  134SAPE   O1314443   6.053   2.953  10.836 -0.1141 -0.4087 -0.6619
  134SAPE   O1414444   6.127   3.162  10.951 -0.2183 -0.0233 -0.2931
  134SAPE   O1214445   6.296   3.014  10.849 -0.4056 -0.0417  0.0223
  134SAPE   O1114446   6.145   3.140  10.702 -0.5187  0.5654 -0.0089
  134SAPE    C114447   6.220   3.264  10.675 -0.3276  0.0560  0.1501
  134SAPE    HA14448   6.154   3.348  10.644 -1.4089 -0.7098  0.3438
  134SAPE    HB14449   6.283   3.305  10.756 -0.1529 -0.7718  0.4408
  134SAPE    C214450   6.316   3.260  10.549  0.1840 -0.4287  0.0065
  134SAPE    HS14451   6.399   3.205  10.597 -0.9879 -2.2439  0.0628
  134SAPE   O2114452   6.351   3.392  10.502 -0.7907  0.2027  0.5047
  134SAPE   C2114453   6.459   3.394  10.432 -0.3752 -0.2485  0.9069
  134SAPE   O2214454   6.519   3.295  10.392  0.0076 -0.4017  0.4761
  134SAPE   C2214455   6.499   3.536  10.397 -0.6112 -0.9550  0.3559
  134SAPE   H2R14456   6.422   3.606  10.435  0.4955 -0.2680  1.3860
  134SAPE   H2S14457   6.594   3.561  10.449 -0.8821 -0.0561  0.4257
  134SAPE    C314458   6.253   3.170  10.438  0.2121  0.1191 -0.2511
  134SAPE    HX14459   6.216   3.070  10.471 -1.6433  0.6057 -0.7644
  134SAPE    HY14460   6.332   3.150  10.362 -1.3906 -1.6760 -1.5582
  134SAPE   O3114461   6.136   3.239  10.388  0.2537  0.0485 -0.5697
  134SAPE   C3114462   6.119   3.227  10.257  0.4829 -0.1964 -0.1475
  134SAPE   O3214463   6.195   3.173  10.181 -0.6140 -0.9529 -0.0764
  134SAPE   C3214464   5.986   3.281  10.219 -0.8389  0.4758 -0.7776
  134SAPE   H2X14465   5.960   3.373  10.275 -0.8674  0.1050 -0.1752
  134SAPE   H2Y14466   5.919   3.202  10.260  0.7025 -0.3793  0.1690
  134SAPE   C2314467   6.524   3.554  10.245 -0.2398  0.3382 -0.7550
  134SAPE   H3R14468   6.439   3.508  10.191 -1.4820  1.9048 -0.2002
  134SAPE   H3S14469   6.612   3.491  10.218 -1.4351 -1.0204 -1.6195
  134SAPE   C2414470   6.531   3.700  10.193 -0.1200 -0.8334  0.2832
  134SAPE   H4R14471   6.434   3.745  10.221  0.0646  0.8987 -1.6036
  134SAPE   H4S14472   6.523   3.699  10.082  2.6714 -3.8862 -0.0399
  134SAPE   C2514473   6.644   3.787  10.250  0.0899  0.5912 -0.9034
  134SAPE   H5R14474   6.732   3.742  10.298 -1.0942 -0.6218  0.2236
  134SAPE   C2614475   6.630   3.920  10.240  0.0452 -0.4395 -0.4639
  134SAPE   H6R14476   6.705   3.989  10.282 -0.4185 -0.2087  0.0005
  134SAPE   C2714477   6.508   3.992  10.182 -0.4307 -0.2167  0.0395
  134SAPE   H7R14478   6.450   4.036  10.265 -0.3175  0.3645 -0.1841
  134SAPE   H7S14479   6.432   3.929  10.132 -0.1493 -1.7423  1.4487
  134SAPE   C2814480   6.550   4.111  10.108 -0.5838  0.1744  0.3612
  134SAPE   H8R14481   6.534   4.204  10.165  0.1427 -0.1952  1.1813
  134SAPE   C2914482   6.591   4.101   9.976 -0.4342 -0.5836  0.1002
  134SAPE   H9R14483   6.624   4.198   9.936  1.6387  0.0792  3.0258
  134SAPE  C21014484   6.605   3.975   9.894 -0.2712  0.1212 -0.1316
  134SAPE  H10R14485   6.661   3.900   9.954  0.9563  1.5834  0.6046
  134SAPE  H10S14486   6.663   4.000   9.803 -0.5492  2.0255  0.1774
  134SAPE  C21114487   6.476   3.909   9.858 -0.3551 -0.0175  0.1286
  134SAPE  H11R14488   6.412   3.888   9.944 -0.3557  2.2394  0.7420
  134SAPE  C21214489   6.426   3.892   9.733 -0.3823  0.0959  0.2953
  134SAPE  H12R14490   6.329   3.843   9.717 -0.6639  0.9215 -0.6754
  134SAPE  C21314491   6.497   3.923   9.607 -0.6552  0.3798  0.4832
  134SAPE  H13R14492   6.560   3.839   9.571  0.0376  0.8110  0.6841
  134SAPE  H13S14493   6.569   4.002   9.636 -1.2703  0.5396  1.6337
  134SAPE  C21414494   6.401   3.981   9.502 -0.2405 -0.3582  0.1686
  134SAPE  H14R14495   6.303   4.016   9.538 -0.3211  0.5462 -0.8613
  134SAPE  C21514496   6.414   3.974   9.372  0.2272 -0.2368 -0.1750
  134SAPE  H15R14497   6.336   4.021   9.310  1.0571 -1.0031 -1.8947
  134SAPE  C21614498   6.546   3.933   9.308  0.1230  0.0659 -0.0978
  134SAPE  H16R14499   6.544   3.823   9.289 -0.3659 -0.2307  1.4502
  134SAPE  H16S14500   6.638   3.960   9.364 -0.4668  2.6513 -0.2743
  134SAPE  C21714501   6.561   4.018   9.177  0.4174 -0.2926  0.0811
  134SAPE  H17R14502   6.559   4.128   9.191 -2.3027 -0.3211  0.4057
  134SAPE  H17S14503   6.475   4.005   9.108 -0.3288  1.9835  0.4931
  134SAPE  C21814504   6.694   3.993   9.101  0.2989 -0.1558 -0.1642
  134SAPE  H18R14505   6.687   3.888   9.065 -0.1844  0.0870 -0.8115
  134SAPE  H18S14506   6.780   3.999   9.171 -0.2642 -2.9687  0.8931
  134SAPE  C21914507   6.725   4.077   8.976  0.1425  0.1900  0.1799
  134SAPE  H19R14508   6.751   4.182   9.003 -0.3922 -0.1798  2.3113
  134SAPE  H19S14509   6.629   4.073   8.922  0.0460 -0.3654  0.3862
  134SAPE  C22014510   6.834   4.016   8.882 -0.0232  0.6419 -0.1448
  134SAPE  H20R14511   6.856   4.070   8.787 -0.4050 -0.9563 -1.1888
  134SAPE  H20S14512   6.813   3.909   8.858  0.6401 -0.1297  2.4631
  134SAPE  H20T14513   6.929   4.007   8.938 -0.4591 -1.1183  0.3771
  134SAPE   C3314514   5.948   3.286  10.068  0.2046 -1.1052 -0.1483
  134SAPE   H3X14515   6.029   3.334  10.009  0.8661 -2.9474 -0.8220
  134SAPE   H3Y14516   5.858   3.350  10.057  1.0402  0.3889  1.3046
  134SAPE   C3414517   5.912   3.153  10.004  0.2787  0.6221 -0.1834
  134SAPE   H4X14518   5.838   3.100  10.066  0.7711 -0.2103 -0.2928
  134SAPE   H4Y14519   6.009   3.099   9.999  0.4535  0.9907 -1.1484
  134SAPE   C3514520   5.855   3.155   9.862  0.3002 -0.3135 -0.5060
  134SAPE   H5X14521   5.943   3.183   9.800 -1.0156  0.6362 -2.0188
  134SAPE   H5Y14522   5.784   3.240   9.873  0.2737 -0.5917  2.1314
  134SAPE   C3614523   5.794   3.021   9.809 -0.1906 -0.3890  0.1111
  134SAPE   H6X14524   5.726   2.961   9.874  2.4423 -3.0207  0.7118
  134SAPE   H6Y14525   5.882   2.953   9.800 -0.1678 -0.2285 -1.0068
  134SAPE   C3714526   5.750   3.032   9.659  0.3990 -0.5634 -0.3426
  134SAPE   H7X14527   5.705   3.133   9.647 -0.9084 -0.4725  3.7878
  134SAPE   H7Y14528   5.665   2.963   9.642 -0.3450 -0.4866  2.4447
  134SAPE   C3814529   5.871   3.000   9.563 -0.4273 -0.4947 -0.1497
  134SAPE   H8X14530   5.903   2.894   9.572  2.5811  0.3656  0.0477
  134SAPE   H8Y14531   5.956   3.064   9.594  0.4216 -0.4180 -2.4442
  134SAPE   C3914532   5.852   3.036   9.415 -0.3518  0.9694  0.1340
  134SAPE   H9X14533   5.944   3.027   9.354  0.9066  1.0668  1.9577
  134SAPE   H9Y14534   5.816   3.141   9.419  0.3459  1.2259 -0.1956
  134SAPE  C31014535   5.741   2.947   9.351 -0.3264  0.1205  0.8628
  134SAPE  H10X14536   5.648   2.971   9.407 -0.9466 -0.8731  0.2811
  134SAPE  H10Y14537   5.756   2.837   9.347 -0.7027  0.0731  0.7161
  134SAPE  C31114538   5.715   3.000   9.208  0.0294  0.1436 -0.1440
  134SAPE  H11X14539   5.631   2.951   9.155 -0.8276  1.4629 -0.0433
  134SAPE  H11Y14540   5.805   2.971   9.149  0.5643 -0.5410  0.9881
  134SAPE  C31214541   5.686   3.148   9.190  0.1885  0.4516 -0.5741
  134SAPE  H12X14542   5.773   3.206   9.228  0.8577 -2.2052  2.4093
  134SAPE  H12Y14543   5.601   3.176   9.256  1.6543  0.1512  1.5687
  134SAPE  C31314544   5.679   3.186   9.043  0.6208 -0.6375 -0.2573
  134SAPE  H13X14545   5.759   3.129   8.991  1.2665  0.4470 -0.4996
  134SAPE  H13Y14546   5.706   3.293   9.028  1.2599 -0.4425  1.8546
  134SAPE  C31414547   5.538   3.154   8.980  0.5890  0.0288  0.1891
  134SAPE  H14X14548   5.456   3.220   9.014  1.1707 -0.3631  2.5678
  134SAPE  H14Y14549   5.507   3.053   9.013 -0.2356 -0.0276 -0.7266
  134SAPE  C31514550   5.557   3.167   8.828 -0.1326 -0.1497  0.1494
  134SAPE  H15X14551   5.629   3.088   8.800  1.0874  1.1683 -0.5865
  134SAPE  H15Y14552   5.608   3.260   8.794  2.8227 -1.4746  0.6136
  134SAPE  C31614553   5.433   3.140   8.748 -0.2611  0.5007  0.3837
  134SAPE  H16X14554   5.376   3.235   8.748 -0.8005  0.2897 -3.0577
  134SAPE  H16Y14555   5.367   3.064   8.795 -0.9740  0.3897 -0.7856
  134SAPE  C31714556   5.454   3.092   8.606 -0.2064  1.1175 -0.6113
  134SAPE  H17X14557   5.351   3.090   8.564  0.6218 -2.3223 -2.8854
  134SAPE  H17Y14558   5.489   2.987   8.604  0.5990  1.3866 -1.9422
  134SAPE  C31814559   5.536   3.176   8.518  0.0331  0.0717  0.1288
  134SAPE  H18X14560   5.487   3.276   8.511  1.4476  0.6467 -3.0749
  134SAPE  H18Y14561   5.540   3.129   8.418 -1.0273 -0.2224  0.2097
  134SAPE  H18Z14562   5.640   3.176   8.555 -0.2072 -0.8546  0.8174
  135SAPE     N14563   5.421   1.887  10.401  0.3099 -0.3700  0.3834
  135SAPE   HN114564   5.344   1.820  10.383  2.5597 -2.9870 -0.0979
  135SAPE   HN214565   5.511   1.861  10.357  0.2725  0.0079  0.0730
  135SAPE   HN314566   5.426   1.912  10.502 -0.2583  0.3217  0.2542
  135SAPE   C1214567   5.379   2.040  10.350 -0.2048  0.4968 -0.1664
  135SAPE  H12A14568   5.367   2.032  10.240  1.1825  1.6668 -0.4343
  135SAPE  H12B14569   5.474   2.094  10.370 -0.6812  0.7526  1.5573
  135SAPE   C1114570   5.263   2.107  10.436  0.8546 -0.0695 -0.2192
  135SAPE  H11A14571   5.266   2.214  10.409 -0.7283 -0.2949 -1.4492
  135SAPE  H11B14572   5.277   2.110  10.546 -4.2390  0.2178  0.6764
  135SAPE     P14573   5.012   2.027  10.488  0.4115  0.1958 -0.1474
  135SAPE   O1314574   5.058   1.929  10.585  0.2993 -0.0298  0.2729
  135SAPE   O1414575   4.982   2.161  10.537  0.2778 -0.2116  0.1894
  135SAPE   O1214576   5.134   2.056  10.389  0.6706  0.0422  0.4469
  135SAPE   O1114577   4.907   1.965  10.392 -0.2919 -0.0637 -0.4233
  135SAPE    C114578   4.898   2.025  10.257  0.2157 -0.4230  0.6087
  135SAPE    HA14579   4.795   2.013  10.218  0.7441 -0.5362 -0.8152
  135SAPE    HB14580   4.909   2.135  10.266  2.8729 -0.6979  1.7630
  135SAPE    C214581   4.992   1.968  10.145  0.2534  0.0278 -0.0751
  135SAPE    HS14582   5.092   2.013  10.163  0.1787 -0.4050  1.6297
  135SAPE   O2114583   4.946   1.988  10.009  0.4721  0.1461 -0.0516
  135SAPE   C2114584   4.918   2.117   9.981 -0.6498 -0.8078 -0.6752
  135SAPE   O2214585   4.958   2.212  10.053  0.3579 -0.1203 -0.3363
  135SAPE   C2214586   4.836   2.130   9.853  0.2758  0.1201  1.2534
  135SAPE   H2R14587   4.899   2.170   9.771 -1.4160 -0.9600 -0.6703
  135SAPE   H2S14588   4.781   2.035   9.834 -1.2647  1.6034 -2.6156
  135SAPE    C314589   5.008   1.808  10.154 -0.1243  0.3738  0.3125
  135SAPE    HX14590   4.912   1.752  10.143  0.4868 -0.8793  1.2316
  135SAPE    HY14591   5.051   1.782  10.252 -0.9399 -2.0491  0.0930
  135SAPE   O3114592   5.096   1.761  10.048  0.7956 -0.0626 -0.1780
  135SAPE   C3114593   5.219   1.768  10.067  0.3956  0.0351  0.0116
  135SAPE   O3214594   5.273   1.809  10.168 -0.2910 -0.2245  0.4912
  135SAPE   C3214595   5.289   1.710   9.947 -0.0736 -0.9007  0.1150
  135SAPE   H2X14596   5.230   1.639   9.884 -0.3361 -0.2892 -0.3314
  135SAPE   H2Y14597   5.389   1.670   9.976  0.2413  1.2363  2.3010
  135SAPE   C2314598   4.722   2.227   9.875  0.5963 -0.1239 -0.3770
  135SAPE   H3R14599   4.747   2.326   9.919 -0.1839  0.1661 -0.5559
  135SAPE   H3S14600   4.644   2.188   9.945 -0.6810  2.6386 -0.1028
  135SAPE   C2414601   4.649   2.259   9.743 -0.4986 -0.7156  0.8694
  135SAPE   H4R14602   4.720   2.291   9.665 -0.6050 -0.9759  0.6628
  135SAPE   H4S14603   4.575   2.340   9.759 -1.3383 -0.7768 -2.1763
  135SAPE   C2514604   4.564   2.148   9.700  0.0078  0.3522  0.0492
  135SAPE   H5R14605   4.504   2.094   9.775 -0.5728 -0.2006 -0.7970
  135SAPE   C2614606   4.553   2.107   9.575  0.1580 -0.1496 -0.3417
  135SAPE   H6R14607   4.495   2.017   9.551 -1.3081  0.5979  0.2572
  135SAPE   C2714608   4.620   2.172   9.447  0.3285 -0.2483  0.8487
  135SAPE   H7R14609   4.645   2.086   9.381 -1.7367  0.7231 -1.3927
  135SAPE   H7S14610   4.714   2.228   9.464  1.9539 -2.6568  0.3668
  135SAPE   C2814611   4.523   2.263   9.370 -0.3796 -0.2940 -0.2023
  135SAPE   H8R14612   4.533   2.367   9.405  0.0446 -0.2433 -0.4729
  135SAPE   C2914613   4.447   2.239   9.267 -0.0508  0.3739  0.7161
  135SAPE   H9R14614   4.384   2.318   9.224 -1.0563  0.3348  2.0630
  135SAPE  C21014615   4.445   2.110   9.185 -0.5778  0.1355  0.5976
  135SAPE  H10R14616   4.490   2.024   9.238 -1.2112 -0.6767 -0.1547
  135SAPE  H10S14617   4.503   2.130   9.092  1.5630 -1.0753  1.5792
  135SAPE  C21114618   4.303   2.067   9.155 -0.0209 -0.1441 -0.4784
  135SAPE  H11R14619   4.242   2.081   9.245  1.9511 -2.2631  1.3231
  135SAPE  C21214620   4.255   1.993   9.053  0.0959  0.1005 -0.4015
  135SAPE  H12R14621   4.150   1.964   9.066  0.3323 -0.3553  0.5657
  135SAPE  C21314622   4.322   1.934   8.929 -0.5912  0.4447  0.9976
  135SAPE  H13R14623   4.344   1.826   8.945 -1.3144  0.0664 -0.4748
  135SAPE  H13S14624   4.421   1.980   8.905 -0.0194 -0.7512  1.0054
  135SAPE  C21414625   4.247   1.945   8.801  0.8024  0.3541  0.1776
  135SAPE  H14R14626   4.168   2.020   8.816 -1.2883 -1.8346  0.7326
  135SAPE  C21514627   4.258   1.859   8.701 -0.0420 -0.1907 -0.4023
  135SAPE  H15R14628   4.204   1.868   8.605  0.4235  0.4778 -0.6100
  135SAPE  C21614629   4.342   1.738   8.695 -0.5065  1.0919  0.3124
  135SAPE  H16R14630   4.279   1.648   8.707 -1.1070  1.2666 -1.3459
  135SAPE  H16S14631   4.415   1.760   8.777 -0.7771  0.8863  0.6118
  135SAPE  C21714632   4.417   1.695   8.562  0.4815 -0.8685 -0.0745
  135SAPE  H17R14633   4.339   1.675   8.486  0.7716 -0.6450 -0.4286
  135SAPE  H17S14634   4.474   1.601   8.578 -1.0346 -2.0477 -1.3041
  135SAPE  C21814635   4.514   1.811   8.518 -0.8373 -0.6377  0.1441
  135SAPE  H18R14636   4.569   1.853   8.605 -0.5905 -2.2290  0.7805
  135SAPE  H18S14637   4.454   1.894   8.474 -0.0830  0.6153  1.4170
  135SAPE  C21914638   4.613   1.768   8.403 -0.9846  0.0389  0.9040
  135SAPE  H19R14639   4.689   1.708   8.457  0.4251  0.3506 -0.6361
  135SAPE  H19S14640   4.651   1.868   8.374  0.8536 -1.0354 -0.5813
  135SAPE  C22014641   4.551   1.696   8.278 -0.5986  0.8572  0.6479
  135SAPE  H20R14642   4.500   1.602   8.309 -0.0008 -0.1300 -1.2005
  135SAPE  H20S14643   4.635   1.671   8.209  0.1139 -1.8996  2.3167
  135SAPE  H20T14644   4.476   1.762   8.230 -0.6360 -0.2495 -0.8848
  135SAPE   C3314645   5.318   1.814   9.829 -0.5575 -0.0308  0.2384
  135SAPE   H3X14646   5.393   1.886   9.869 -1.4374  0.4589  1.0383
  135SAPE   H3Y14647   5.216   1.852   9.808 -0.3450  0.8634  0.7880
  135SAPE   C3414648   5.373   1.754   9.703  0.0249 -0.1876 -0.1370
  135SAPE   H4X14649   5.465   1.693   9.718  0.2477  0.4887  1.3845
  135SAPE   H4Y14650   5.402   1.838   9.636 -2.7501  0.5459 -0.5391
  135SAPE   C3514651   5.277   1.671   9.623 -0.3183 -0.0515 -0.2086
  135SAPE   H5X14652   5.175   1.714   9.632 -0.9520 -1.2119 -1.5304
  135SAPE   H5Y14653   5.272   1.565   9.657  0.8739 -0.5895 -1.6198
  135SAPE   C3614654   5.299   1.669   9.472 -0.7227 -0.5579  0.0215
  135SAPE   H6X14655   5.395   1.615   9.452  0.2392  1.0330  0.1527
  135SAPE   H6Y14656   5.309   1.775   9.441 -3.2666 -0.5913 -1.1828
  135SAPE   C3714657   5.181   1.594   9.396  0.2183  0.1011 -0.1639
  135SAPE   H7X14658   5.100   1.669   9.396  1.9447  2.0815 -1.5498
  135SAPE   H7Y14659   5.152   1.501   9.449 -0.9254 -0.8834 -2.3758
  135SAPE   C3814660   5.207   1.570   9.247 -0.2728  1.1049  0.0820
  135SAPE   H8X14661   5.126   1.506   9.206  0.0244 -0.0265  1.2037
  135SAPE   H8Y14662   5.307   1.527   9.221  0.1712  1.6219  0.8803
  135SAPE   C3914663   5.216   1.704   9.170  0.5263  0.3340  0.5737
  135SAPE   H9X14664   5.305   1.761   9.203  1.3045 -1.6870  2.1490
  135SAPE   H9Y14665   5.126   1.768   9.183 -0.8127 -0.9941 -1.5300
  135SAPE  C31014666   5.235   1.692   9.018  0.5009  0.1806  0.9597
  135SAPE  H10X14667   5.166   1.615   8.977 -0.5345  0.0747  2.8000
  135SAPE  H10Y14668   5.337   1.656   8.996  0.4006 -0.1333  0.9998
  135SAPE  C31114669   5.198   1.823   8.950 -0.6890 -0.3659  0.0811
  135SAPE  H11X14670   5.268   1.898   8.993  2.0253 -2.8607  0.2933
  135SAPE  H11Y14671   5.097   1.851   8.988  0.2302  0.3673  2.1672
  135SAPE  C31214672   5.178   1.817   8.801 -0.6891  0.1307 -0.7035
  135SAPE  H12X14673   5.097   1.741   8.796 -1.2613  0.7302 -0.7904
  135SAPE  H12Y14674   5.272   1.783   8.752 -0.6033 -0.9461  0.1756
  135SAPE  C31314675   5.123   1.948   8.738 -0.0706  0.2136  0.4039
  135SAPE  H13X14676   5.177   2.038   8.773  0.1971 -0.5804  2.1375
  135SAPE  H13Y14677   5.019   1.967   8.773  0.7114  0.7355  2.6179
  135SAPE  C31414678   5.138   1.942   8.582 -0.0762  0.5467 -0.3235
  135SAPE  H14X14679   5.230   1.892   8.543  0.2575  1.9675 -1.4376
  135SAPE  H14Y14680   5.146   2.050   8.558  0.4191  0.9169  1.3885
  135SAPE  C31514681   5.012   1.894   8.514 -0.1339  0.3820 -0.1697
  135SAPE  H15X14682   4.923   1.956   8.539 -1.4385 -2.2674  2.4121
  135SAPE  H15Y14683   4.993   1.788   8.541  0.7866  0.0390 -0.8413
  135SAPE  C31614684   5.020   1.896   8.360  0.7303 -0.4508 -0.3598
  135SAPE  H16X14685   4.929   1.853   8.313 -0.6549  1.5917  0.3468
  135SAPE  H16Y14686   5.111   1.844   8.322  0.3877 -1.2705 -0.0873
  135SAPE  C31714687   5.017   2.039   8.293  0.0346 -0.0543  0.0894
  135SAPE  H17X14688   5.077   2.124   8.333 -2.3175  1.8971 -0.2874
  135SAPE  H17Y14689   4.916   2.075   8.321 -0.9850 -2.5129 -0.2507
  135SAPE  C31814690   5.023   2.045   8.139 -0.0276  0.1677 -0.5928
  135SAPE  H18X14691   5.113   1.985   8.114 -2.2954 -3.9176  0.1657
  135SAPE  H18Y14692   5.031   2.145   8.090  2.1642 -1.2508 -3.4616
  135SAPE  H18Z14693   4.931   2.008   8.090  0.6060  0.8903 -2.4259
  136SAPE     N14694   0.065   1.096  11.053  0.0022  0.6186 -0.0263
  136SAPE   HN114695   0.097   1.093  11.152 -0.6414  0.3796  0.1780
  136SAPE   HN214696  -0.016   1.031  11.049  1.0108 -0.6283 -1.6593
  136SAPE   HN314697   0.141   1.040  11.008 -1.0356 -2.1126  1.3883
  136SAPE   C1214698   0.023   1.230  10.990 -0.0494 -0.1575 -0.4821
  136SAPE  H12A14699   0.108   1.296  11.014  0.4624 -1.4970  1.6925
  136SAPE  H12B14700  -0.069   1.258  11.047  0.9870  1.1681  0.6108
  136SAPE   C1114701  -0.002   1.206  10.841 -0.4514 -0.6121  0.3368
  136SAPE  H11A14702   0.097   1.178  10.798 -0.0454 -2.6976  2.4390
  136SAPE  H11B14703  -0.038   1.307  10.810  2.1990  0.1528 -0.5731
  136SAPE     P14704  -0.078   0.967  10.749 -0.1964 -0.1043  0.4562
  136SAPE   O1314705   0.002   0.887  10.842  0.5372 -0.6486 -0.3351
  136SAPE   O1414706  -0.200   0.906  10.701 -0.4045  0.0166 -0.2302
  136SAPE   O1214707  -0.102   1.107  10.807  0.2070 -0.2418  0.2046
  136SAPE   O1114708   0.007   1.002  10.626  0.2561 -0.1345  0.2582
  136SAPE    C114709  -0.034   1.088  10.521 -0.9338 -0.9465  0.1845
  136SAPE    HA14710  -0.119   1.152  10.552 -1.4356 -0.9863 -1.0681
  136SAPE    HB14711   0.049   1.157  10.495 -0.2803 -1.5523  0.6334
  136SAPE    C214712  -0.072   1.026  10.379  0.2048 -0.0250  0.2350
  136SAPE    HS14713  -0.173   0.982  10.388 -0.5266  0.8239 -2.8221
  136SAPE   O2114714   0.034   0.931  10.334  0.4286 -0.0660 -0.0809
  136SAPE   C2114715  -0.027   0.824  10.277  0.6475  0.1878 -0.5013
  136SAPE   O2214716  -0.142   0.800  10.291 -0.1468 -0.5009  0.1028
  136SAPE   C2214717   0.071   0.750  10.202 -0.2476  0.3053 -0.1103
  136SAPE   H2R14718   0.108   0.820  10.124  1.5995 -1.7487 -1.1756
  136SAPE   H2S14719   0.151   0.718  10.273 -1.9181 -0.7055  1.4209
  136SAPE    C314720  -0.096   1.138  10.274 -0.3809  0.4809 -0.0315
  136SAPE    HX14721  -0.004   1.198  10.260  0.2201 -0.2671  0.5742
  136SAPE    HY14722  -0.172   1.207  10.316 -3.7493 -2.9084  0.0378
  136SAPE   O3114723  -0.133   1.079  10.151  0.4008  0.5366  0.2619
  136SAPE   C3114724  -0.240   1.137  10.084 -0.2679 -0.4383  0.1887
  136SAPE   O3214725  -0.291   1.247  10.108 -0.8214  0.1556  0.5281
  136SAPE   C3214726  -0.309   1.039   9.990 -0.5775  0.2130 -0.6921
  136SAPE   H2X14727  -0.411   1.084   9.986 -0.4505  0.6356  0.3794
  136SAPE   H2Y14728  -0.322   0.941  10.041 -0.3052 -0.6778 -2.2799
  136SAPE   C2314729   0.014   0.629  10.115  0.0754 -0.0998  0.1040
  136SAPE   H3R14730  -0.044   0.559  10.178  2.0175 -2.8859 -0.9762
  136SAPE   H3S14731   0.082   0.577  10.044  0.3346  0.7834 -0.3098
  136SAPE   C2414732  -0.096   0.677  10.016  0.0296  0.6280  0.2529
  136SAPE   H4R14733  -0.066   0.770   9.964 -0.8071 -0.0908 -1.6062
  136SAPE   H4S14734  -0.196   0.705  10.056 -0.6879 -0.6835 -0.5705
  136SAPE   C2514735  -0.122   0.564   9.923 -0.0836  0.4353  0.0014
  136SAPE   H5R14736  -0.205   0.501   9.958  0.3617  0.2808  0.8290
  136SAPE   C2614737  -0.065   0.539   9.807 -0.1967  1.0746 -0.3141
  136SAPE   H6R14738  -0.098   0.447   9.755 -1.1942  1.6383 -0.7140
  136SAPE   C2714739   0.032   0.624   9.744  0.6703  0.5387 -0.6713
  136SAPE   H7R14740   0.119   0.563   9.712  0.4338  0.1775 -0.6324
  136SAPE   H7S14741   0.067   0.708   9.809  1.2130 -0.2690  0.1063
  136SAPE   C2814742  -0.036   0.679   9.622 -0.0524 -0.9869  0.4654
  136SAPE   H8R14743  -0.138   0.716   9.638 -0.3579 -1.9065  0.7312
  136SAPE   C2914744  -0.002   0.642   9.495  1.1115 -0.1810 -0.0932
  136SAPE   H9R14745  -0.061   0.686   9.413 -0.5716  0.5988  1.4683
  136SAPE  C21014746   0.116   0.558   9.445 -0.1066 -0.0290 -0.0882
  136SAPE  H10R14747   0.205   0.562   9.511  0.3191 -1.0416 -0.5914
  136SAPE  H10S14748   0.145   0.602   9.347 -1.9250 -0.9648 -1.1074
  136SAPE  C21114749   0.067   0.422   9.430  0.3775  0.1829  0.2677
  136SAPE  H11R14750   0.024   0.371   9.517  0.3829  1.6758  1.1747
  136SAPE  C21214751   0.044   0.359   9.311 -0.2947  0.0288  0.2408
  136SAPE  H12R14752   0.012   0.253   9.308 -1.1196  0.2450  0.9378
  136SAPE  C21314753   0.059   0.430   9.172  0.0060  0.1932 -0.4936
  136SAPE  H13R14754   0.164   0.423   9.136 -0.0869  0.7669 -0.8901
  136SAPE  H13S14755   0.053   0.540   9.183 -0.7267  0.1767 -0.6672
  136SAPE  C21414756  -0.048   0.373   9.074  0.1342 -0.3768  0.1284
  136SAPE  H14R14757  -0.040   0.263   9.065 -1.8758 -0.5463 -0.0200
  136SAPE  C21514758  -0.144   0.441   9.005  0.3596 -0.9809 -0.3920
  136SAPE  H15R14759  -0.227   0.399   8.947 -0.0186  1.0679 -1.4047
  136SAPE  C21614760  -0.164   0.595   9.011  0.2176  0.1633  0.1233
  136SAPE  H16R14761  -0.163   0.622   9.119  1.9236  2.6567 -0.4342
  136SAPE  H16S14762  -0.265   0.618   8.972  1.1068 -0.3248 -2.6483
  136SAPE  C21714763  -0.070   0.688   8.934 -1.1136  0.1096 -0.1216
  136SAPE  H17R14764  -0.042   0.640   8.838  1.2609  1.1908 -0.0217
  136SAPE  H17S14765   0.021   0.680   8.998 -1.3470 -0.8392  0.1098
  136SAPE  C21814766  -0.121   0.830   8.918  0.5301  0.1867 -0.2713
  136SAPE  H18R14767  -0.219   0.837   8.866  0.1716  0.8857  0.4861
  136SAPE  H18S14768  -0.056   0.892   8.852  0.7075  0.9581  0.6033
  136SAPE  C21914769  -0.149   0.909   9.046  0.7209  0.7833  0.0595
  136SAPE  H19R14770  -0.221   0.860   9.115 -0.3370  0.0555 -1.4832
  136SAPE  H19S14771  -0.196   1.004   9.013  0.3790 -0.0149 -1.8753
  136SAPE  C22014772  -0.028   0.949   9.126 -0.5314  0.4832  0.5496
  136SAPE  H20R14773   0.022   0.857   9.163 -1.5874 -0.4944 -0.3905
  136SAPE  H20S14774  -0.048   1.023   9.207 -0.5012 -0.6122  1.5811
  136SAPE  H20T14775   0.037   0.990   9.046 -1.9739 -0.2943 -1.0772
  136SAPE   C3314776  -0.262   1.030   9.847  0.1873 -0.2455 -0.1206
  136SAPE   H3X14777  -0.168   0.972   9.837  0.5331  0.6077 -2.6710
  136SAPE   H3Y14778  -0.251   1.133   9.807 -0.9566  0.6843  1.8050
  136SAPE   C3414779  -0.363   0.960   9.751  0.5439 -0.1436 -0.3364
  136SAPE   H4X14780  -0.457   1.015   9.773  1.2796  0.2973  2.0719
  136SAPE   H4Y14781  -0.361   0.850   9.765  2.4639 -0.1492 -0.3689
  136SAPE   C3514782  -0.336   0.990   9.603  0.6824 -0.6657  0.3667
  136SAPE   H5X14783  -0.227   0.975   9.590  0.6850 -1.2439  1.0024
  136SAPE   H5Y14784  -0.347   1.100   9.595  2.2438 -0.2095  3.1703
  136SAPE   C3614785  -0.427   0.907   9.514  0.1746 -0.3743  0.6029
  136SAPE   H6X14786  -0.534   0.933   9.526  0.4665 -0.0492  3.1203
  136SAPE   H6Y14787  -0.419   0.804   9.555 -5.1358 -0.0978  3.1411
  136SAPE   C3714788  -0.404   0.901   9.363 -0.5645  0.1594  0.3757
  136SAPE   H7X14789  -0.356   0.805   9.335 -0.1200  0.9522 -1.7799
  136SAPE   H7Y14790  -0.333   0.983   9.338  1.5483 -1.8612 -0.4962
  136SAPE   C3814791  -0.537   0.909   9.290 -0.2647  0.0321 -0.9511
  136SAPE   H8X14792  -0.597   0.997   9.322 -1.8091 -2.5325  4.3945
  136SAPE   H8Y14793  -0.596   0.828   9.338  0.1331  1.0630  1.4237
  136SAPE   C3914794  -0.525   0.891   9.141 -0.5964 -0.2207 -0.3730
  136SAPE   H9X14795  -0.476   0.794   9.116 -2.1413 -1.2409  0.4246
  136SAPE   H9Y14796  -0.489   0.978   9.083  0.6678  0.1614  0.9296
  136SAPE  C31014797  -0.664   0.877   9.076 -0.6060 -0.4611  0.2417
  136SAPE  H10X14798  -0.714   0.973   9.055  2.2253  1.1715  0.4409
  136SAPE  H10Y14799  -0.733   0.811   9.134 -0.1648 -2.0947 -1.0274
  136SAPE  C31114800  -0.654   0.821   8.932 -0.4703 -0.0396  0.4875
  136SAPE  H11X14801  -0.636   0.711   8.935 -2.7352 -0.4843 -0.1391
  136SAPE  H11Y14802  -0.565   0.865   8.882 -1.2105 -1.0656 -1.8855
  136SAPE  C31214803  -0.779   0.835   8.840 -0.1061 -0.5473  0.8733
  136SAPE  H12X14804  -0.803   0.943   8.833 -0.1288 -0.6407 -1.0766
  136SAPE  H12Y14805  -0.871   0.787   8.881  1.4153 -0.7206  4.4438
  136SAPE  C31314806  -0.743   0.792   8.697  0.0481  0.9541 -0.2000
  136SAPE  H13X14807  -0.636   0.809   8.673  0.2517 -0.3078 -0.2683
  136SAPE  H13Y14808  -0.812   0.855   8.638 -1.6192 -0.2007  0.4426
  136SAPE  C31414809  -0.759   0.634   8.685  0.2809 -0.2437 -0.2574
  136SAPE  H14X14810  -0.820   0.594   8.769 -0.2879  1.3159  0.0872
  136SAPE  H14Y14811  -0.655   0.599   8.704  1.0441  1.4652 -1.0389
  136SAPE  C31514812  -0.820   0.600   8.552  0.1319  0.3787 -0.0606
  136SAPE  H15X14813  -0.767   0.655   8.472 -0.9765  1.7294  0.0944
  136SAPE  H15Y14814  -0.921   0.647   8.555  0.7153  1.6545  2.3580
  136SAPE  C31614815  -0.833   0.459   8.515  0.5931 -0.7764  0.2668
  136SAPE  H16X14816  -0.936   0.417   8.514  1.0022 -1.8996 -1.8798
  136SAPE  H16Y14817  -0.789   0.404   8.601 -1.6411  0.9269  2.6418
  136SAPE  C31714818  -0.764   0.412   8.387  0.2747 -0.7627  0.2195
  136SAPE  H17X14819  -0.664   0.459   8.396  0.4313 -1.0132 -0.2005
  136SAPE  H17Y14820  -0.816   0.468   8.307 -0.5973 -0.7383  0.7929
  136SAPE  C31814821  -0.750   0.261   8.367 -0.5834 -0.3104  0.2921
  136SAPE  H18X14822  -0.674   0.222   8.438 -1.5591 -0.6858  1.1572
  136SAPE  H18Y14823  -0.707   0.244   8.267  1.0236  2.4232  0.4135
  136SAPE  H18Z14824  -0.849   0.213   8.383  0.2452 -2.4780 -0.8105
  137SAPE     N14825   5.620   4.399  11.066  0.1168  0.6594  0.3180
  137SAPE   HN114826   5.625   4.489  11.120 -0.5158  0.6489  0.3959
  137SAPE   HN214827   5.706   4.372  11.015 -0.7150 -1.8882  0.1606
  137SAPE   HN314828   5.537   4.419  11.007 -1.7445 -2.8782  1.4732
  137SAPE   C1214829   5.578   4.287  11.154  0.3023 -0.1939  0.0310
  137SAPE  H12A14830   5.488   4.332  11.201 -1.2914 -2.1994 -0.9551
  137SAPE  H12B14831   5.656   4.276  11.232 -1.3687  0.9505  1.9767
  137SAPE   C1114832   5.570   4.160  11.066  0.3769 -0.3055 -0.7066
  137SAPE  H11A14833   5.499   4.166  10.981 -1.3083  0.3508  0.6897
  137SAPE  H11B14834   5.511   4.099  11.137 -0.4081  1.8222  0.5672
  137SAPE     P14835   5.736   4.054  10.903  0.3797  0.3443  0.4914
  137SAPE   O1314836   5.851   3.964  10.923  0.2427 -0.4045 -0.4636
  137SAPE   O1414837   5.615   3.995  10.831 -0.0192 -0.2268  1.0957
  137SAPE   O1214838   5.696   4.100  11.046 -0.1895  0.7869 -0.0907
  137SAPE   O1114839   5.790   4.184  10.838 -0.3794  0.2766 -0.0687
  137SAPE    C114840   5.736   4.258  10.725  0.6003  0.7056 -0.5269
  137SAPE    HA14841   5.635   4.219  10.702  0.3833  0.7139  0.3833
  137SAPE    HB14842   5.727   4.364  10.757  0.8330  0.9878 -1.3872
  137SAPE    C214843   5.817   4.250  10.597  0.2048 -0.7378  0.9981
  137SAPE    HS14844   5.839   4.142  10.580 -1.2808 -0.9047 -0.0750
  137SAPE   O2114845   5.936   4.321  10.617 -0.9317  0.4428 -0.3083
  137SAPE   C2114846   6.030   4.290  10.526  0.1524  0.1408  0.3079
  137SAPE   O2214847   6.024   4.204  10.441  0.5587 -0.5643 -0.3135
  137SAPE   C2214848   6.148   4.380  10.556 -0.2189  0.1228 -1.0394
  137SAPE   H2R14849   6.119   4.468  10.617  0.2628 -0.2455 -0.2505
  137SAPE   H2S14850   6.222   4.324  10.617 -2.8390 -2.2973  0.1802
  137SAPE    C314851   5.740   4.302  10.468  0.0907 -0.4283 -0.8706
  137SAPE    HX14852   5.656   4.235  10.443  0.2160 -0.8135 -0.2799
  137SAPE    HY14853   5.807   4.279  10.382 -1.5345 -0.3332 -2.2094
  137SAPE   O3114854   5.699   4.438  10.489  0.2972  0.2135 -0.1411
  137SAPE   C3114855   5.652   4.483  10.375 -0.1086  0.3173 -0.4833
  137SAPE   O3214856   5.655   4.419  10.271  0.1324 -0.4730 -0.0405
  137SAPE   C3214857   5.603   4.630  10.404 -0.8144 -0.7781 -0.2548
  137SAPE   H2X14858   5.686   4.704  10.403 -0.5733 -1.0136  0.7575
  137SAPE   H2Y14859   5.557   4.631  10.505  0.1994 -1.9201  0.2385
  137SAPE   C2314860   6.224   4.434  10.432  0.3373 -0.5370  0.3816
  137SAPE   H3R14861   6.256   4.349  10.367 -0.8118 -1.0760  0.5065
  137SAPE   H3S14862   6.317   4.490  10.458  0.3454  0.1788 -1.1165
  137SAPE   C2414863   6.141   4.538  10.348 -0.9400  0.6499 -0.0405
  137SAPE   H4R14864   6.110   4.620  10.417 -0.5402 -0.3737  1.3913
  137SAPE   H4S14865   6.044   4.491  10.318 -1.7284  0.8039  2.0762
  137SAPE   C2514866   6.225   4.587  10.230 -0.7500 -0.7217  0.4090
  137SAPE   H5R14867   6.279   4.682  10.243 -0.9355 -0.6287  0.5075
  137SAPE   C2614868   6.223   4.532  10.105  0.6417 -1.0486 -0.5259
  137SAPE   H6R14869   6.287   4.580  10.030 -0.2334 -0.9777 -1.2504
  137SAPE   C2714870   6.145   4.408  10.056  0.3347 -0.1348 -0.3769
  137SAPE   H7R14871   6.115   4.428   9.951  0.8674  0.6997 -0.3796
  137SAPE   H7S14872   6.059   4.386  10.122 -0.3502  1.5976 -0.6297
  137SAPE   C2814873   6.226   4.285  10.056 -0.8436  0.4196 -0.4959
  137SAPE   H8R14874   6.283   4.265  10.147 -0.9774  0.0878 -0.4837
  137SAPE   C2914875   6.222   4.196   9.950  0.3218  0.4394  0.4747
  137SAPE   H9R14876   6.286   4.107   9.963  2.0604  1.6272  0.3263
  137SAPE  C21014877   6.132   4.199   9.825 -0.1860  0.1349 -0.1832
  137SAPE  H10R14878   6.045   4.266   9.846  2.9040  4.5152 -0.0728
  137SAPE  H10S14879   6.082   4.101   9.813  1.3768 -0.7159  0.0602
  137SAPE  C21114880   6.206   4.249   9.702  0.7862 -0.2463 -0.6538
  137SAPE  H11R14881   6.303   4.206   9.671  0.7740  0.3204 -1.5119
  137SAPE  C21214882   6.150   4.319   9.603 -0.0563  0.2233 -0.0763
  137SAPE  H12R14883   6.227   4.335   9.526  0.7672 -2.0118  0.1938
  137SAPE  C21314884   6.019   4.382   9.583  1.0920  0.0479  0.4159
  137SAPE  H13R14885   6.036   4.480   9.534 -0.2828  0.6561  1.1044
  137SAPE  H13S14886   5.969   4.416   9.676  2.0864  1.0636  0.6007
  137SAPE  C21414887   5.918   4.298   9.509 -0.4367  0.1511  0.3741
  137SAPE  H14R14888   5.854   4.240   9.576 -0.2135  1.5217  1.8310
  137SAPE  C21514889   5.907   4.303   9.374 -0.2518  0.7966  0.1993
  137SAPE  H15R14890   5.849   4.223   9.325  2.7010 -2.6263  1.8948
  137SAPE  C21614891   5.992   4.383   9.275  0.9740  0.0280  0.5155
  137SAPE  H16R14892   6.066   4.456   9.315  0.4026  2.0459 -1.8443
  137SAPE  H16S14893   5.923   4.437   9.206 -0.4438 -1.1065  0.9826
  137SAPE  C21714894   6.072   4.283   9.201  0.3475  0.9252 -0.2169
  137SAPE  H17R14895   6.014   4.226   9.125  1.9371  0.1245 -0.8816
  137SAPE  H17S14896   6.115   4.215   9.277  0.1347  2.3956  1.2734
  137SAPE  C21814897   6.195   4.346   9.137 -0.4850  0.4416 -0.3833
  137SAPE  H18R14898   6.257   4.393   9.216 -0.4238  1.2501 -0.8997
  137SAPE  H18S14899   6.158   4.429   9.074  0.4684 -0.0866 -1.6934
  137SAPE  C21914900   6.287   4.248   9.075 -1.0961  0.7114  0.0032
  137SAPE  H19R14901   6.224   4.178   9.016 -2.6123  0.1225  2.1896
  137SAPE  H19S14902   6.346   4.194   9.153 -2.1778 -1.1241 -0.3761
  137SAPE  C22014903   6.394   4.314   8.982  0.3967 -0.3001 -0.2040
  137SAPE  H20R14904   6.335   4.327   8.889 -0.1300  2.0854  0.4034
  137SAPE  H20S14905   6.484   4.250   8.969  2.3963  2.1414  0.9186
  137SAPE  H20T14906   6.428   4.406   9.033 -2.3931  1.4476 -1.2772
  137SAPE   C3314907   5.499   4.688  10.310  0.6898  0.1384  0.1818
  137SAPE   H3X14908   5.406   4.627  10.310  1.6542 -1.5701 -2.8269
  137SAPE   H3Y14909   5.544   4.680  10.209 -2.5937  2.4889 -1.6531
  137SAPE   C3414910   5.475   4.838  10.333 -0.1925  0.8597  0.0412
  137SAPE   H4X14911   5.569   4.891  10.308  2.2783 -2.5167  1.4836
  137SAPE   H4Y14912   5.444   4.860  10.437  0.2166  0.3222  0.2755
  137SAPE   C3514913   5.362   4.889  10.245 -0.1749 -0.2534 -0.1945
  137SAPE   H5X14914   5.346   4.995  10.275  0.1243 -0.6023  1.3187
  137SAPE   H5Y14915   5.269   4.837  10.275  0.7404 -1.6915  0.2452
  137SAPE   C3614916   5.396   4.877  10.091 -0.2183  0.1809  0.1351
  137SAPE   H6X14917   5.414   4.769  10.070 -0.8378  0.0698  0.1579
  137SAPE   H6Y14918   5.492   4.933  10.081  0.7566 -1.2450  0.9667
  137SAPE   C3714919   5.291   4.932   9.994  0.0642  0.4327  0.5202
  137SAPE   H7X14920   5.243   5.027  10.026  1.0607  0.7833  1.0049
  137SAPE   H7Y14921   5.208   4.857   9.994 -0.0255  0.4740 -1.4477
  137SAPE   C3814922   5.332   4.938   9.842  0.3638  0.1365  0.4256
  137SAPE   H8X14923   5.387   4.843   9.827  2.4564  1.3883 -0.4034
  137SAPE   H8Y14924   5.409   5.015   9.818  2.2735 -2.3884 -2.2473
  137SAPE   C3914925   5.208   4.939   9.757 -0.5407  0.4568 -0.3029
  137SAPE   H9X14926   5.119   4.978   9.811 -0.8742 -1.8872  1.0051
  137SAPE   H9Y14927   5.186   4.830   9.750 -0.6252  0.3356  1.3166
  137SAPE  C31014928   5.232   4.997   9.621 -0.5970 -0.3869 -0.1676
  137SAPE  H10X14929   5.310   4.929   9.582  0.0798 -1.0713  2.2195
  137SAPE  H10Y14930   5.283   5.095   9.633  0.2097 -1.0067  1.8436
  137SAPE  C31114931   5.113   5.012   9.518 -0.2180  0.3357  0.4975
  137SAPE  H11X14932   5.074   4.908   9.524  4.6600 -1.7016  1.8719
  137SAPE  H11Y14933   5.163   5.039   9.423 -0.0670 -0.9112  0.1941
  137SAPE  C31214934   5.014   5.127   9.554 -0.2358 -0.2590  0.3013
  137SAPE  H12X14935   5.075   5.207   9.600  0.5304  0.8190 -2.3684
  137SAPE  H12Y14936   4.940   5.089   9.628 -1.3334  0.8314 -0.1906
  137SAPE  C31314937   4.935   5.183   9.438  0.1451 -0.2842  0.3501
  137SAPE  H13X14938   5.012   5.226   9.370 -0.6958 -1.5367 -1.4593
  137SAPE  H13Y14939   4.865   5.263   9.469  2.2380  2.1699 -0.8677
  137SAPE  C31414940   4.864   5.090   9.333 -0.2833 -0.1156 -0.1996
  137SAPE  H14X14941   4.770   5.052   9.379  0.2968 -0.3111  0.8340
  137SAPE  H14Y14942   4.935   5.006   9.317  1.5044  1.0780  1.1308
  137SAPE  C31514943   4.843   5.150   9.195 -0.6555 -0.1091 -0.3751
  137SAPE  H15X14944   4.822   5.060   9.134  0.4938 -1.5360  1.2285
  137SAPE  H15Y14945   4.934   5.205   9.162 -0.8585  1.1073  0.9842
  137SAPE  C31614946   4.724   5.247   9.192  0.6847  0.0160 -0.4468
  137SAPE  H16X14947   4.754   5.345   9.234  0.5968  0.2387 -0.9028
  137SAPE  H16Y14948   4.646   5.208   9.261  0.6863  1.9466  0.7100
  137SAPE  C31714949   4.658   5.274   9.050  0.2666 -0.1294 -0.1129
  137SAPE  H17X14950   4.575   5.348   9.042  0.8472  0.4581 -0.8901
  137SAPE  H17Y14951   4.619   5.175   9.018 -0.3849 -0.6525  2.1305
  137SAPE  C31814952   4.763   5.317   8.948 -0.2002 -0.5118 -0.3735
  137SAPE  H18X14953   4.794   5.421   8.975 -1.2037 -0.5211  0.9010
  137SAPE  H18Y14954   4.719   5.325   8.846  1.0391  0.3263 -0.8716
  137SAPE  H18Z14955   4.854   5.253   8.951  0.6777  0.5423 -2.2328
  138SAPE     N14956   2.424   5.628  10.756 -0.4301 -0.5922 -0.1861
  138SAPE   HN114957   2.373   5.650  10.844  0.0538 -0.2019  0.0060
  138SAPE   HN214958   2.467   5.717  10.723  1.0079 -1.1353  0.1073
  138SAPE   HN314959   2.359   5.586  10.687 -1.8490  1.5981 -0.2766
  138SAPE   C1214960   2.533   5.526  10.770  0.1771  0.8886  0.7581
  138SAPE  H12A14961   2.587   5.537  10.867  1.0457 -2.0917  0.7186
  138SAPE  H12B14962   2.602   5.531  10.683  0.4091 -2.4012  0.6257
  138SAPE   C1114963   2.479   5.378  10.761 -0.4687 -0.2658 -0.8360
  138SAPE  H11A14964   2.547   5.303  10.807 -0.9473  0.9663  2.0961
  138SAPE  H11B14965   2.487   5.365  10.651  0.5038  1.1066 -0.9467
  138SAPE     P14966   2.286   5.235  10.863 -0.4316 -0.0285  0.2417
  138SAPE   O1314967   2.387   5.132  10.905 -0.2659 -0.0182  0.4194
  138SAPE   O1414968   2.161   5.249  10.943 -0.6755 -0.9282  0.1552
  138SAPE   O1214969   2.361   5.377  10.840 -0.4839 -0.4198  0.0252
  138SAPE   O1114970   2.250   5.204  10.704  0.4352  0.6521  0.3873
  138SAPE    C114971   2.156   5.288  10.633  0.5570 -0.5354 -0.9820
  138SAPE    HA14972   2.130   5.383  10.683  2.2342  0.1145 -1.2836
  138SAPE    HB14973   2.204   5.309  10.535  3.4362 -1.4178  0.1203
  138SAPE    C214974   2.021   5.211  10.608 -0.6721 -0.5903 -0.0580
  138SAPE    HS14975   1.992   5.176  10.709  1.3875  0.9681  1.1405
  138SAPE   O2114976   2.053   5.098  10.520  0.2079  0.0501 -0.4595
  138SAPE   C2114977   1.973   4.991  10.546 -0.0970  0.2638  0.5806
  138SAPE   O2214978   1.880   4.993  10.626  0.2366  0.1363  0.0602
  138SAPE   C2214979   2.009   4.873  10.463 -0.5873  0.2533 -0.2517
  138SAPE   H2R14980   2.097   4.896  10.399 -0.8914  0.7901 -0.4896
  138SAPE   H2S14981   2.042   4.805  10.544 -0.7890  0.2280 -0.1910
  138SAPE    C314982   1.906   5.296  10.543  0.1803  0.1559  0.1078
  138SAPE    HX14983   1.867   5.373  10.613  2.1509  1.9801 -0.6955
  138SAPE    HY14984   1.817   5.235  10.516  1.8106 -1.0689 -3.0183
  138SAPE   O3114985   1.954   5.346  10.416 -0.0647 -0.1003 -0.0023
  138SAPE   C3114986   1.991   5.471  10.400  0.1814 -0.2018 -0.7078
  138SAPE   O3214987   1.992   5.552  10.488  0.0985 -0.6694 -0.0741
  138SAPE   C3214988   2.021   5.498  10.258  0.0138 -0.8054  0.2935
  138SAPE   H2X14989   2.021   5.403  10.201  2.5103 -0.7672  0.1123
  138SAPE   H2Y14990   2.124   5.538  10.254  0.2329 -1.2951  0.8843
  138SAPE   C2314991   1.882   4.813  10.393 -0.1788 -0.7798 -0.4050
  138SAPE   H3R14992   1.867   4.887  10.312  0.3431  2.0627  1.9263
  138SAPE   H3S14993   1.795   4.817  10.462  1.1621  0.8208  1.3168
  138SAPE   C2414994   1.916   4.671  10.338 -0.6283  0.1849  0.3847
  138SAPE   H4R14995   1.921   4.588  10.411  1.5616 -1.2321 -1.2474
  138SAPE   H4S14996   2.019   4.668  10.297 -1.1620 -1.3132 -0.9075
  138SAPE   C2514997   1.820   4.644  10.223 -0.1551 -0.0329  0.7036
  138SAPE   H5R14998   1.719   4.615  10.255  0.4735 -0.3686  2.4882
  138SAPE   C2614999   1.856   4.654  10.095  0.1047  0.0084 -0.2852
  138SAPE   H6R15000   1.776   4.632  10.022 -1.5558 -1.2490  1.8105
  138SAPE   C2715001   1.991   4.698  10.041 -0.5029 -0.1318  0.7142
  138SAPE   H7R15002   2.055   4.735  10.123 -2.0819  0.6857  1.6111
  138SAPE   H7S15003   1.973   4.790   9.981  2.2949  0.7571  1.1271
  138SAPE   C2815004   2.060   4.595   9.967 -0.3133  0.7680  0.0624
  138SAPE   H8R15005   2.114   4.534  10.041 -0.0689  1.8087  0.7525
  138SAPE   C2915006   2.059   4.568   9.836 -0.3750 -0.0466  0.3654
  138SAPE   H9R15007   2.130   4.490   9.805  1.0854  2.2703 -2.6892
  138SAPE  C21015008   1.985   4.634   9.732 -0.0514  0.2160  0.0412
  138SAPE  H10R15009   1.974   4.744   9.746 -0.9698  0.7447 -3.6217
  138SAPE  H10S15010   1.878   4.604   9.731 -0.1635  0.5835  0.6034
  138SAPE  C21115011   2.040   4.610   9.592 -0.0495  0.2085  0.3388
  138SAPE  H11R15012   2.136   4.658   9.566  0.8102 -2.9034 -3.0292
  138SAPE  C21215013   1.970   4.543   9.495  0.2979  0.1842 -0.1839
  138SAPE  H12R15014   2.006   4.537   9.392 -1.1127  0.1733 -0.7007
  138SAPE  C21315015   1.840   4.473   9.498 -0.4402 -0.0032 -0.2229
  138SAPE  H13R15016   1.784   4.487   9.593  1.3657  3.9737  0.4690
  138SAPE  H13S15017   1.869   4.366   9.497  0.7054  0.2925 -0.7767
  138SAPE  C21415018   1.733   4.510   9.404  0.4636  0.3080  0.3078
  138SAPE  H14R15019   1.665   4.586   9.445 -0.3328 -0.6855  0.8680
  138SAPE  C21515020   1.715   4.456   9.281  0.7785  0.8220 -0.1006
  138SAPE  H15R15021   1.629   4.479   9.217  0.0076 -0.9398  0.2524
  138SAPE  C21615022   1.801   4.344   9.221  0.4013 -0.0183 -0.3622
  138SAPE  H16R15023   1.739   4.252   9.212 -1.1349  1.1380 -2.3968
  138SAPE  H16S15024   1.893   4.325   9.281  1.3133  0.6600 -1.5071
  138SAPE  C21715025   1.836   4.390   9.079 -0.3315 -0.1445  0.0454
  138SAPE  H17R15026   1.751   4.366   9.011  0.9677 -2.1914 -0.9284
  138SAPE  H17S15027   1.921   4.330   9.042 -0.1558  0.0539  0.1278
  138SAPE  C21815028   1.887   4.535   9.063  0.4446 -0.3698  0.5467
  138SAPE  H18R15029   1.979   4.539   9.125 -0.6658 -1.4221  2.3521
  138SAPE  H18S15030   1.815   4.612   9.101 -0.3379 -1.0693  0.5042
  138SAPE  C21915031   1.910   4.567   8.915 -0.3557  0.0416  1.0357
  138SAPE  H19R15032   1.822   4.556   8.848  0.8934 -1.3148 -0.4722
  138SAPE  H19S15033   1.989   4.498   8.878 -1.0308  0.9752 -2.5535
  138SAPE  C22015034   1.958   4.709   8.895  0.4470 -0.0795  0.0291
  138SAPE  H20R15035   2.059   4.714   8.942  0.8696 -1.8285 -0.6074
  138SAPE  H20S15036   1.894   4.785   8.945 -0.4061 -1.0555  0.4538
  138SAPE  H20T15037   1.961   4.735   8.787  0.4500 -0.2900 -0.0223
  138SAPE   C3315038   1.934   5.609  10.194  0.7205 -0.3142  0.1730
  138SAPE   H3X15039   1.941   5.697  10.261 -0.9209  0.1300 -0.1725
  138SAPE   H3Y15040   1.826   5.585  10.208  0.1389  0.6656 -2.0579
  138SAPE   C3415041   1.953   5.630  10.045 -0.6735  0.1817 -0.0593
  138SAPE   H4X15042   2.061   5.655  10.040 -0.7596  0.7670  0.7749
  138SAPE   H4Y15043   1.885   5.716  10.028 -1.9129 -0.9154 -0.8129
  138SAPE   C3515044   1.897   5.520   9.954  0.7260 -0.8100  0.0044
  138SAPE   H5X15045   1.791   5.506   9.983  0.4987  1.0733  0.1952
  138SAPE   H5Y15046   1.955   5.425   9.955  1.6945 -0.3134 -2.0025
  138SAPE   C3615047   1.887   5.539   9.805 -0.1746  0.1950  0.3672
  138SAPE   H6X15048   1.843   5.640   9.795 -2.0724 -0.4953  1.2150
  138SAPE   H6Y15049   1.810   5.469   9.765 -1.7957  0.6153  2.4981
  138SAPE   C3715050   2.024   5.542   9.734 -0.0994 -0.2587  0.5732
  138SAPE   H7X15051   2.057   5.438   9.712 -2.0545 -0.6934 -0.5147
  138SAPE   H7Y15052   2.100   5.603   9.787 -1.9348  2.0428  0.6871
  138SAPE   C3815053   2.014   5.606   9.591  0.2741 -0.1540 -0.4680
  138SAPE   H8X15054   2.115   5.641   9.561  0.1529  1.6070  0.9774
  138SAPE   H8Y15055   1.948   5.695   9.604  1.1347  0.4233  0.0783
  138SAPE   C3915056   1.958   5.512   9.486  0.8366 -0.3609 -0.9408
  138SAPE   H9X15057   1.847   5.514   9.490  0.8493  1.4816 -0.8334
  138SAPE   H9Y15058   1.986   5.407   9.511  1.1774  0.2409  1.5463
  138SAPE  C31015059   2.002   5.552   9.339 -0.1637  0.2917  0.1049
  138SAPE  H10X15060   2.112   5.549   9.320 -0.0154  0.7875  0.8577
  138SAPE  H10Y15061   1.961   5.651   9.310  2.6372  2.0509  1.7558
  138SAPE  C31115062   1.953   5.445   9.247 -0.4136 -0.3264 -0.2785
  138SAPE  H11X15063   1.843   5.453   9.237 -0.5953 -0.4200  1.3635
  138SAPE  H11Y15064   1.957   5.343   9.290  0.6303 -0.1356  0.1201
  138SAPE  C31215065   2.010   5.460   9.106 -0.6614 -0.8022 -0.0350
  138SAPE  H12X15066   2.109   5.510   9.110 -1.1318  0.0874  1.8226
  138SAPE  H12Y15067   1.942   5.533   9.057  0.1442  0.0257  0.0669
  138SAPE  C31315068   2.016   5.325   9.033  0.1729 -0.1325  0.7163
  138SAPE  H13X15069   2.062   5.240   9.088 -0.8414 -3.2546 -2.8632
  138SAPE  H13Y15070   2.076   5.338   8.940 -1.3054 -0.4787 -0.3084
  138SAPE  C31415071   1.868   5.273   9.011 -0.0792  0.6175  1.1137
  138SAPE  H14X15072   1.812   5.357   8.966  2.6472  4.3892  4.0924
  138SAPE  H14Y15073   1.819   5.248   9.108 -1.0126 -1.6688  0.1316
  138SAPE  C31515074   1.856   5.144   8.928 -0.3787  0.8527  0.1981
  138SAPE  H15X15075   1.753   5.105   8.937  0.7408 -2.0483  1.5999
  138SAPE  H15Y15076   1.938   5.078   8.964  1.2702  1.4380 -2.2207
  138SAPE  C31615077   1.879   5.175   8.775  0.5513 -0.4361 -0.0660
  138SAPE  H16X15078   1.952   5.258   8.764  1.2197 -1.1311 -1.1146
  138SAPE  H16Y15079   1.786   5.192   8.717  2.0856  2.8676 -1.8613
  138SAPE  C31715080   1.956   5.065   8.702  0.5534  0.1239 -0.4877
  138SAPE  H17X15081   1.895   4.972   8.696 -0.1680  0.5333  0.4139
  138SAPE  H17Y15082   2.043   5.028   8.760  0.1301 -1.2909 -0.7044
  138SAPE  C31815083   1.998   5.104   8.559  0.2885  0.0330  0.5456
  138SAPE  H18X15084   1.916   5.153   8.502 -0.0378 -1.9737 -0.8261
  138SAPE  H18Y15085   2.025   5.010   8.506 -1.7692 -0.8669  0.9855
  138SAPE  H18Z15086   2.093   5.160   8.552  0.2421 -0.0858 -1.8801
  139SAPE     N15087   1.897   3.840  10.922  0.2817 -0.1936  0.6561
  139SAPE   HN115088   1.931   3.811  10.828  1.0005  1.7151  0.2792
  139SAPE   HN215089   1.872   3.755  10.976  0.1519  1.2406  2.9932
  139SAPE   HN315090   1.815   3.903  10.927 -0.2442 -0.8858  0.8744
  139SAPE   C1215091   2.024   3.892  10.980 -0.2602 -0.1438  0.0852
  139SAPE  H12A15092   2.093   3.805  10.975  1.0289  0.9329 -2.0646
  139SAPE  H12B15093   2.009   3.938  11.080  0.6380  0.3647 -0.0083
  139SAPE   C1115094   2.083   4.010  10.894  0.3645 -0.0903 -0.3916
  139SAPE  H11A15095   2.193   4.017  10.905  0.5326 -1.9975 -0.5412
  139SAPE  H11B15096   2.040   4.104  10.934 -2.6968 -1.6685  0.4045
  139SAPE     P15097   2.109   4.034  10.631 -0.0366 -0.0421 -0.0505
  139SAPE   O1315098   2.226   3.944  10.610  0.7023  0.2120  0.0836
  139SAPE   O1415099   2.011   4.046  10.521  0.3475  0.3549 -0.2143
  139SAPE   O1215100   2.037   3.984  10.759  0.0197 -0.2307 -0.3621
  139SAPE   O1115101   2.165   4.173  10.678  0.0134 -0.1782 -0.1032
  139SAPE    C115102   2.078   4.289  10.687 -0.3221 -0.5903  0.3900
  139SAPE    HA15103   1.974   4.258  10.709 -1.0073  0.2185 -1.5711
  139SAPE    HB15104   2.108   4.338  10.783  0.2439 -1.8595  0.8915
  139SAPE    C215105   2.078   4.378  10.554  0.9010 -0.6568  0.5107
  139SAPE    HS15106   2.015   4.467  10.577 -1.7094 -1.5776 -2.3085
  139SAPE   O2115107   2.035   4.318  10.436 -0.0736 -0.6030 -0.1282
  139SAPE   C2115108   1.902   4.293  10.429 -0.3904  0.3159  0.6310
  139SAPE   O2215109   1.822   4.321  10.512  0.3643  0.0280  0.4252
  139SAPE   C2215110   1.877   4.216  10.294 -0.7751 -0.7422  0.4801
  139SAPE   H2R15111   1.943   4.127  10.286 -2.8561 -2.3062  0.2340
  139SAPE   H2S15112   1.778   4.167  10.294 -1.0478 -0.3207 -1.7521
  139SAPE    C315113   2.219   4.418  10.525 -0.2533 -0.1110  0.1321
  139SAPE    HX15114   2.280   4.326  10.516  0.2463  0.1083  1.1485
  139SAPE    HY15115   2.259   4.458  10.621 -1.4049  1.2436  0.0716
  139SAPE   O3115116   2.237   4.519  10.421  0.2214 -0.2362 -0.4021
  139SAPE   C3115117   2.371   4.528  10.391  0.6178  0.0502  0.3650
  139SAPE   O3215118   2.455   4.454  10.439  0.0199 -0.5186 -0.4202
  139SAPE   C3215119   2.404   4.646  10.301  0.0975 -0.0813 -0.1103
  139SAPE   H2X15120   2.501   4.684  10.340 -0.9593  1.0563  1.5431
  139SAPE   H2Y15121   2.322   4.720  10.317 -0.5479 -1.0725  1.4211
  139SAPE   C2315122   1.878   4.305  10.162  0.9196  0.1060 -0.6209
  139SAPE   H3R15123   1.982   4.341  10.144  1.2362  0.0896  1.0560
  139SAPE   H3S15124   1.804   4.382  10.193  0.6834 -1.2101  2.4537
  139SAPE   C2415125   1.840   4.218  10.043  0.1955 -0.0476  0.5624
  139SAPE   H4R15126   1.744   4.167  10.067  0.3649 -0.1925  0.9356
  139SAPE   H4S15127   1.926   4.149  10.030  0.8883  0.9325 -0.2385
  139SAPE   C2515128   1.813   4.305   9.918  0.3630 -0.4414  1.0437
  139SAPE   H5R15129   1.840   4.411   9.920 -2.1212  0.2496  2.1390
  139SAPE   C2615130   1.734   4.269   9.811 -0.3198  0.2089  0.3628
  139SAPE   H6R15131   1.712   4.351   9.741 -0.1488 -0.4290 -0.4643
  139SAPE   C2715132   1.677   4.131   9.799 -0.2530  0.0355  0.6696
  139SAPE   H7R15133   1.707   4.081   9.894  0.8210  0.0825  0.3720
  139SAPE   H7S15134   1.744   4.078   9.727  0.6405 -1.7536  2.6870
  139SAPE   C2815135   1.533   4.123   9.753 -0.3653  0.0557 -0.0803
  139SAPE   H8R15136   1.468   4.092   9.836  0.5201 -1.4021  0.0979
  139SAPE   C2915137   1.480   4.126   9.628 -0.6804 -0.2778  0.1529
  139SAPE   H9R15138   1.372   4.112   9.615 -1.2254  2.8385  0.6687
  139SAPE  C21015139   1.559   4.155   9.501 -0.2083  0.0375 -0.1026
  139SAPE  H10R15140   1.639   4.226   9.532 -1.3948  1.0694  0.6570
  139SAPE  H10S15141   1.500   4.211   9.426  0.5134  0.4286 -0.3950
  139SAPE  C21115142   1.622   4.038   9.436  0.0090  1.4029  0.6688
  139SAPE  H11R15143   1.660   3.970   9.513  0.3564  0.3630 -0.3834
  139SAPE  C21215144   1.622   3.993   9.305 -0.3759 -0.3483  0.3889
  139SAPE  H12R15145   1.676   3.902   9.274 -1.5191 -0.7951 -0.3728
  139SAPE  C21315146   1.543   4.058   9.193 -0.2910  0.0120 -0.3859
  139SAPE  H13R15147   1.571   4.025   9.091  0.2855  0.3573 -0.3455
  139SAPE  H13S15148   1.568   4.167   9.196  1.6752 -0.4162  1.4357
  139SAPE  C21415149   1.395   4.029   9.211  0.6587 -0.4349 -0.6971
  139SAPE  H14R15150   1.357   4.009   9.312  0.5426 -1.0876 -0.8664
  139SAPE  C21515151   1.302   4.024   9.112  0.2262 -0.3034  0.4855
  139SAPE  H15R15152   1.198   3.999   9.137  0.2171 -0.4825  0.2714
  139SAPE  C21615153   1.330   4.030   8.964 -0.0455  0.3553 -0.1807
  139SAPE  H16R15154   1.257   3.975   8.901 -0.2977  1.9453 -1.3644
  139SAPE  H16S15155   1.435   4.000   8.945  0.2295 -0.3664  2.1919
  139SAPE  C21715156   1.324   4.175   8.904  0.1293 -0.3657 -0.1410
  139SAPE  H17R15157   1.390   4.246   8.958  0.0415  0.2499 -0.8284
  139SAPE  H17S15158   1.221   4.215   8.906  0.0809 -0.4941  2.0963
  139SAPE  C21815159   1.363   4.178   8.758  0.1176 -0.3189 -0.0248
  139SAPE  H18R15160   1.310   4.103   8.694 -1.3865  0.8390 -0.1899
  139SAPE  H18S15161   1.470   4.148   8.756 -0.0653 -1.0439  0.4042
  139SAPE  C21915162   1.355   4.316   8.686 -0.3808  0.2574 -0.1502
  139SAPE  H19R15163   1.258   4.369   8.700  0.4659  2.0484 -0.6731
  139SAPE  H19S15164   1.359   4.303   8.576 -1.7915  1.6693 -0.4131
  139SAPE  C22015165   1.457   4.413   8.740 -0.3818  0.4559 -0.4252
  139SAPE  H20R15166   1.466   4.504   8.676  1.1188  0.9598  0.4560
  139SAPE  H20S15167   1.556   4.364   8.732  0.0355  1.0718  0.7405
  139SAPE  H20T15168   1.434   4.444   8.844  1.7036 -1.1182  0.5710
  139SAPE   C3315169   2.408   4.602  10.145  0.5173 -0.5528  0.4926
  139SAPE   H3X15170   2.305   4.580  10.112  0.8003  0.4752 -1.2568
  139SAPE   H3Y15171   2.476   4.514  10.149  0.6146 -0.7187 -2.4618
  139SAPE   C3415172   2.456   4.720  10.064 -0.0541  0.7335  0.7879
  139SAPE   H4X15173   2.560   4.747  10.091  0.3489 -0.5360  0.5613
  139SAPE   H4Y15174   2.403   4.815  10.088  3.3583  3.0827 -0.1831
  139SAPE   C3515175   2.446   4.710   9.914 -0.3604 -0.3627 -0.1705
  139SAPE   H5X15176   2.476   4.808   9.871 -1.0152 -0.4900 -0.9406
  139SAPE   H5Y15177   2.346   4.684   9.874 -0.1934 -0.3309 -0.6113
  139SAPE   C3615178   2.548   4.620   9.835 -0.4701 -0.0768  0.2150
  139SAPE   H6X15179   2.513   4.515   9.839 -0.9736 -0.0686 -2.2936
  139SAPE   H6Y15180   2.649   4.623   9.880 -0.7220  1.0818  0.7285
  139SAPE   C3715181   2.557   4.662   9.681  0.0099  0.3762  0.2707
  139SAPE   H7X15182   2.652   4.615   9.647  0.8925  1.4924  1.1020
  139SAPE   H7Y15183   2.547   4.771   9.660 -1.1599  0.0201 -1.0956
  139SAPE   C3815184   2.448   4.594   9.594  0.2497 -1.1376  0.2756
  139SAPE   H8X15185   2.354   4.652   9.607  0.5666 -0.8624  1.4643
  139SAPE   H8Y15186   2.447   4.487   9.625  2.8965 -1.1969  0.3831
  139SAPE   C3915187   2.481   4.600   9.437  0.0770  0.2098 -0.1055
  139SAPE   H9X15188   2.579   4.556   9.408  0.0348  0.6873 -1.0042
  139SAPE   H9Y15189   2.465   4.703   9.399 -0.7441 -0.9473 -3.2104
  139SAPE  C31015190   2.377   4.507   9.362 -0.1268 -0.6231  0.5476
  139SAPE  H10X15191   2.278   4.544   9.394  0.4887  1.0825  0.5975
  139SAPE  H10Y15192   2.391   4.402   9.395 -1.5585 -1.7941 -2.2107
  139SAPE  C31115193   2.403   4.512   9.210 -0.4164  0.8255 -0.2941
  139SAPE  H11X15194   2.501   4.462   9.193 -0.5945  0.0501  0.9042
  139SAPE  H11Y15195   2.422   4.618   9.182 -1.0715  1.2110  0.6607
  139SAPE  C31215196   2.293   4.451   9.125 -0.0334 -0.1579  0.6877
  139SAPE  H12X15197   2.196   4.505   9.121 -0.6423 -1.2105  0.7590
  139SAPE  H12Y15198   2.281   4.346   9.160  0.2339 -0.4416 -0.0428
  139SAPE  C31315199   2.345   4.437   8.981  0.0418 -0.5850 -0.3653
  139SAPE  H13X15200   2.443   4.387   8.998  0.5495  1.1217  2.3339
  139SAPE  H13Y15201   2.344   4.541   8.941 -2.7674 -0.8010 -1.0854
  139SAPE  C31415202   2.268   4.361   8.869  0.6717 -0.4040 -0.0086
  139SAPE  H14X15203   2.196   4.430   8.821  0.2978 -1.1931 -0.6021
  139SAPE  H14Y15204   2.216   4.273   8.911 -0.0311  0.1995  0.3950
  139SAPE  C31515205   2.356   4.322   8.752 -0.0887  0.0138  0.3060
  139SAPE  H15X15206   2.296   4.277   8.671 -0.1614  2.1371 -0.8957
  139SAPE  H15Y15207   2.433   4.250   8.787 -0.7128 -1.2081 -0.7666
  139SAPE  C31615208   2.420   4.446   8.690  0.3856 -0.2356 -0.0628
  139SAPE  H16X15209   2.337   4.513   8.659  0.4992  0.2093  0.5618
  139SAPE  H16Y15210   2.473   4.511   8.763  0.1377 -1.1880  0.9994
  139SAPE  C31715211   2.525   4.405   8.578  0.2217 -0.0813 -0.0020
  139SAPE  H17X15212   2.494   4.320   8.514 -1.7797 -0.4051  1.3053
  139SAPE  H17Y15213   2.618   4.371   8.628  0.3608 -1.5873 -1.2320
  139SAPE  C31815214   2.571   4.528   8.500 -0.0451  0.8784  0.6226
  139SAPE  H18X15215   2.626   4.604   8.559  0.5103  0.6774  0.3748
  139SAPE  H18Y15216   2.483   4.579   8.455  0.0447  0.8159  0.3746
  139SAPE  H18Z15217   2.628   4.486   8.414 -2.2442 -0.2543 -0.3688
  140SAPE     N15218   5.231   0.879  10.838 -0.4458 -0.5089  0.5132
  140SAPE   HN115219   5.262   0.923  10.750 -0.7867 -2.0649 -0.4136
  140SAPE   HN215220   5.298   0.890  10.917 -0.1654 -2.3808  0.5714
  140SAPE   HN315221   5.225   0.776  10.827  2.5278 -0.6994  0.0078
  140SAPE   C1215222   5.098   0.943  10.861  0.0148  0.0412 -0.0743
  140SAPE  H12A15223   5.094   1.038  10.804  0.6385 -1.4381 -2.7505
  140SAPE  H12B15224   5.084   0.958  10.970  0.1565  2.1864 -0.3252
  140SAPE   C1115225   4.979   0.865  10.796  0.0115 -0.1371  0.3499
  140SAPE  H11A15226   4.988   0.878  10.686 -1.4605 -1.4431  0.0471
  140SAPE  H11B15227   4.880   0.902  10.829 -1.2778 -3.4876  0.6199
  140SAPE     P15228   4.867   0.627  10.819  0.4003  0.1550 -0.7304
  140SAPE   O1315229   4.893   0.512  10.907 -0.4208  0.5062 -0.1023
  140SAPE   O1415230   4.751   0.717  10.854 -0.2691  0.0485 -0.3432
  140SAPE   O1215231   4.991   0.725  10.818  0.6990 -0.1651 -0.3844
  140SAPE   O1115232   4.851   0.584  10.668  0.8787 -0.3704 -0.3553
  140SAPE    C115233   4.936   0.491  10.595 -0.1496 -0.6459  0.4730
  140SAPE    HA15234   4.968   0.406  10.659 -0.2624  0.5486  2.1631
  140SAPE    HB15235   4.878   0.443  10.512  1.2021 -3.4456  1.0207
  140SAPE    C215236   5.055   0.571  10.533 -0.3559  0.4512 -0.5350
  140SAPE    HS15237   5.115   0.614  10.616  0.5154  2.8240 -2.2773
  140SAPE   O2115238   4.998   0.673  10.451  0.1083  0.3296 -0.0313
  140SAPE   C2115239   5.077   0.768  10.404 -0.9830 -0.5184  0.1096
  140SAPE   O2215240   5.202   0.765  10.420  0.7128 -0.2922  0.2055
  140SAPE   C2215241   4.988   0.879  10.355  0.2439 -0.0786 -0.1123
  140SAPE   H2R15242   4.901   0.830  10.306 -0.2396  0.1978  0.4540
  140SAPE   H2S15243   4.962   0.929  10.451  4.0430  1.5994  0.2039
  140SAPE    C315244   5.154   0.474  10.469 -0.1670 -0.4225  0.0938
  140SAPE    HX15245   5.192   0.400  10.543  0.0942  0.1905  0.5828
  140SAPE    HY15246   5.240   0.533  10.432  1.4302 -3.0608 -0.7275
  140SAPE   O3115247   5.105   0.402  10.352  0.3004 -0.6319  0.7206
  140SAPE   C3115248   5.055   0.277  10.366  0.5183  0.6262  0.2924
  140SAPE   O3215249   5.055   0.215  10.474 -0.2293 -0.5449  0.4294
  140SAPE   C3215250   5.006   0.229  10.230 -0.0010  0.4143  0.0355
  140SAPE   H2X15251   5.040   0.304  10.154  1.8532 -1.9738 -1.6577
  140SAPE   H2Y15252   4.895   0.227  10.237  0.1342 -0.2357  3.9208
  140SAPE   C2315253   5.070   0.985  10.272 -0.0839 -0.4506  0.2268
  140SAPE   H3R15254   5.163   1.005  10.330 -0.7051  1.3108  0.6849
  140SAPE   H3S15255   5.003   1.072  10.255 -1.5139 -1.0235  2.4983
  140SAPE   C2415256   5.108   0.930  10.138  0.2341  0.6255  0.4661
  140SAPE   H4R15257   5.031   0.962  10.065 -1.1052 -2.4030  0.3853
  140SAPE   H4S15258   5.098   0.819  10.136  0.2485  0.6038  1.2863
  140SAPE   C2515259   5.243   0.974  10.097  0.2944 -0.2259  0.5770
  140SAPE   H5R15260   5.279   1.076  10.117 -0.1935 -0.4266  2.6536
  140SAPE   C2615261   5.326   0.893  10.034  0.0286  0.2437 -0.0787
  140SAPE   H6R15262   5.420   0.933   9.993  0.5200  0.2864  1.0543
  140SAPE   C2715263   5.319   0.748  10.011  0.0005 -0.1145  0.8294
  140SAPE   H7R15264   5.280   0.733   9.908 -0.4430  1.2823  0.7762
  140SAPE   H7S15265   5.253   0.694  10.082  1.0695 -1.2293  1.0171
  140SAPE   C2815266   5.453   0.677  10.007  0.3588 -0.0252  0.0363
  140SAPE   H8R15267   5.540   0.742  10.027  0.7980  0.6192 -3.4100
  140SAPE   C2915268   5.474   0.545   9.989 -0.1379 -0.1263  0.1100
  140SAPE   H9R15269   5.578   0.509   9.993 -0.8727 -2.7992 -1.6733
  140SAPE  C21015270   5.372   0.439   9.972 -0.3923  0.1236  0.3107
  140SAPE  H10R15271   5.394   0.372   9.886  1.2630 -1.2865  1.7564
  140SAPE  H10S15272   5.270   0.472   9.944 -0.7080  0.4120  1.7124
  140SAPE  C21115273   5.365   0.354  10.095  0.0824 -0.1653  0.5133
  140SAPE  H11R15274   5.335   0.400  10.190 -0.0602 -0.9260  0.8437
  140SAPE  C21215275   5.390   0.221  10.093  0.0251  0.0877 -0.4864
  140SAPE  H12R15276   5.394   0.174  10.192  3.5206  1.0629 -0.0209
  140SAPE  C21315277   5.425   0.139   9.970  0.4277  0.0816 -0.4120
  140SAPE  H13R15278   5.353   0.161   9.888  0.3225 -1.2938 -0.7128
  140SAPE  H13S15279   5.404   0.032   9.986 -0.2129  0.2635 -0.0225
  140SAPE  C21415280   5.565   0.149   9.911 -0.3496  0.4837 -0.8721
  140SAPE  H14R15281   5.634   0.212   9.970  1.6051 -2.1349 -0.1518
  140SAPE  C21515282   5.615   0.072   9.809 -0.0493  0.4914 -0.1510
  140SAPE  H15R15283   5.718   0.099   9.782 -0.3055  0.6070 -1.0554
  140SAPE  C21615284   5.541  -0.031   9.726 -0.5417 -0.2989 -0.1046
  140SAPE  H16R15285   5.450  -0.059   9.783  0.0162 -1.0230  0.4552
  140SAPE  H16S15286   5.598  -0.127   9.722 -1.8765 -1.0893 -0.9959
  140SAPE  C21715287   5.488   0.021   9.592 -0.2574  0.1893  0.4344
  140SAPE  H17R15288   5.425   0.111   9.606  0.0278  0.1511  2.1721
  140SAPE  H17S15289   5.423  -0.063   9.559  1.7388 -1.2722 -0.0132
  140SAPE  C21815290   5.598   0.067   9.488 -0.6096 -0.1501  0.1240
  140SAPE  H18R15291   5.660   0.147   9.535  2.7471 -2.5935  0.1787
  140SAPE  H18S15292   5.537   0.104   9.403  0.1994 -0.8144 -0.7521
  140SAPE  C21915293   5.688  -0.043   9.436 -0.3835 -0.4249 -0.3172
  140SAPE  H19R15294   5.638  -0.135   9.399  3.3985 -1.8879 -2.3052
  140SAPE  H19S15295   5.767  -0.075   9.507 -0.6013  1.4734  0.8602
  140SAPE  C22015296   5.746   0.014   9.307 -0.5796  0.3001  0.2366
  140SAPE  H20R15297   5.759   0.124   9.323 -0.5826  0.1219  1.5819
  140SAPE  H20S15298   5.662   0.009   9.235 -1.6177 -1.6893  1.5026
  140SAPE  H20T15299   5.840  -0.039   9.280 -1.2420  0.2268 -2.0857
  140SAPE   C3315300   5.051   0.086  10.197 -0.2230  1.1926  0.0252
  140SAPE   H3X15301   5.033   0.021  10.285 -0.2440  1.5770  0.3023
  140SAPE   H3Y15302   5.159   0.109  10.185  0.0419 -0.3245 -0.8649
  140SAPE   C3415303   4.985   0.041  10.068  0.6105 -0.1738  0.4985
  140SAPE   H4X15304   4.882   0.083  10.065  0.3347 -0.5647  2.9657
  140SAPE   H4Y15305   4.977  -0.070  10.063  0.4469 -0.1731  0.7485
  140SAPE   C3515306   5.070   0.079   9.950 -0.5702 -0.1369 -0.2802
  140SAPE   H5X15307   5.171   0.033   9.956  0.2297  1.5016 -0.3576
  140SAPE   H5Y15308   5.083   0.190   9.948 -0.9452 -0.0163  1.5726
  140SAPE   C3615309   5.019   0.035   9.813 -0.1993 -0.4780  0.2360
  140SAPE   H6X15310   4.912   0.064   9.817 -0.4676 -1.0935 -1.4302
  140SAPE   H6Y15311   5.028  -0.075   9.802 -0.2283 -0.6225  1.5444
  140SAPE   C3715312   5.089   0.111   9.697  0.0021  0.1248  0.5402
  140SAPE   H7X15313   5.190   0.070   9.676 -0.3147 -1.2119  1.4711
  140SAPE   H7Y15314   5.097   0.215   9.733 -0.6756  0.3329  0.1001
  140SAPE   C3815315   4.994   0.117   9.571 -0.5327 -0.4409  0.0169
  140SAPE   H8X15316   4.896   0.121   9.623 -0.8818 -2.0250 -0.4717
  140SAPE   H8Y15317   4.989   0.023   9.512  0.2847 -0.0816 -0.6409
  140SAPE   C3915318   5.012   0.226   9.465 -0.2731  0.4159 -0.0529
  140SAPE   H9X15319   5.001   0.332   9.499  2.3421  0.8445 -0.3045
  140SAPE   H9Y15320   4.925   0.208   9.400  0.3610 -1.9888 -0.3326
  140SAPE  C31015321   5.150   0.213   9.391 -0.2359  1.2036 -0.3885
  140SAPE  H10X15322   5.188   0.109   9.402 -0.4179  1.3890  3.3027
  140SAPE  H10Y15323   5.219   0.277   9.450  1.9279 -0.5354 -0.9299
  140SAPE  C31115324   5.156   0.232   9.237  0.4954 -0.5848 -0.3253
  140SAPE  H11X15325   5.104   0.326   9.210 -1.4271 -1.6195 -0.4113
  140SAPE  H11Y15326   5.085   0.154   9.200  0.2772 -0.4898 -0.1096
  140SAPE  C31215327   5.291   0.207   9.166  0.2297  0.0763 -0.0496
  140SAPE  H12X15328   5.312   0.098   9.177 -2.9264 -0.7961 -1.6026
  140SAPE  H12Y15329   5.369   0.263   9.223 -0.0710  0.2671  0.1793
  140SAPE  C31315330   5.292   0.267   9.023 -1.1433  1.0333 -0.2331
  140SAPE  H13X15331   5.392   0.251   8.978 -0.2388  2.0102  1.3247
  140SAPE  H13Y15332   5.288   0.377   9.038  1.6835  1.4851 -2.2351
  140SAPE  C31415333   5.195   0.207   8.925  0.6156 -0.2138 -0.0556
  140SAPE  H14X15334   5.096   0.248   8.956  0.1521 -1.1830 -0.2075
  140SAPE  H14Y15335   5.186   0.096   8.922 -0.9081 -0.0917 -1.4775
  140SAPE  C31515336   5.223   0.250   8.782 -0.0142 -0.3107  0.5498
  140SAPE  H15X15337   5.206   0.359   8.769 -1.6649 -0.7547 -1.7231
  140SAPE  H15Y15338   5.145   0.207   8.715 -1.4560  1.1783  1.2086
  140SAPE  C31615339   5.349   0.196   8.722 -0.8710  0.2593 -0.0319
  140SAPE  H16X15340   5.434   0.264   8.744  0.1020 -0.9652  0.0965
  140SAPE  H16Y15341   5.334   0.211   8.613  0.2468 -0.8694 -0.3712
  140SAPE  C31715342   5.387   0.051   8.752  0.1524 -0.0252  0.8989
  140SAPE  H17X15343   5.299  -0.012   8.726  1.2650 -0.8345 -1.1162
  140SAPE  H17Y15344   5.409   0.042   8.861  0.6131 -3.6304  0.6193
  140SAPE  C31815345   5.504   0.016   8.668 -0.3809 -0.4518  0.1528
  140SAPE  H18X15346   5.532  -0.090   8.686  2.9418  0.2003 -0.4445
  140SAPE  H18Y15347   5.596   0.074   8.690 -1.1022  0.8034 -0.0380
  140SAPE  H18Z15348   5.479   0.037   8.562  3.2707  1.4579 -0.4790
  141SAPE     N15349   4.602   1.934  10.816  0.2902 -0.0540  0.0068
  141SAPE   HN115350   4.543   1.996  10.756 -0.7306 -1.0511 -0.0662
  141SAPE   HN215351   4.546   1.856  10.856  1.4620 -1.1643 -0.4496
  141SAPE   HN315352   4.639   1.985  10.899  1.4018 -0.2116 -0.3789
  141SAPE   C1215353   4.709   1.872  10.724  0.6039  0.0704 -0.7820
  141SAPE  H12A15354   4.765   1.959  10.683  0.1755  0.4955 -0.4696
  141SAPE  H12B15355   4.659   1.807  10.648  0.6608  1.5510 -2.1580
  141SAPE   C1115356   4.788   1.772  10.797 -0.4432  0.3169  0.3321
  141SAPE  H11A15357   4.830   1.816  10.890 -0.8716  0.0241  0.6674
  141SAPE  H11B15358   4.873   1.743  10.731 -1.8599 -0.8259 -1.0859
  141SAPE     P15359   4.787   1.525  10.880  0.1742 -0.4738 -0.1187
  141SAPE   O1315360   4.926   1.557  10.896 -0.8883  0.5725  0.3184
  141SAPE   O1415361   4.708   1.498  11.001  0.2047 -0.4196  0.0398
  141SAPE   O1215362   4.710   1.651  10.816  0.6241  0.4191 -0.0024
  141SAPE   O1115363   4.771   1.406  10.769  0.0117  0.2124 -0.7020
  141SAPE    C115364   4.713   1.435  10.648  1.0650  0.1973  0.4651
  141SAPE    HA15365   4.667   1.344  10.605  1.3360  1.0273 -1.6895
  141SAPE    HB15366   4.629   1.507  10.656  1.4853  0.6514  0.8962
  141SAPE    C215367   4.812   1.474  10.539  0.2018  0.4865 -0.5729
  141SAPE    HS15368   4.860   1.569  10.570  2.9810 -0.7358 -0.8244
  141SAPE   O2115369   4.733   1.478  10.417 -0.2826  0.8418  0.1873
  141SAPE   C2115370   4.697   1.598  10.385  0.0963  0.3969 -0.3318
  141SAPE   O2215371   4.713   1.697  10.457 -0.0727  0.1303  0.7572
  141SAPE   C2215372   4.627   1.603  10.249  0.4716 -0.0131 -0.1573
  141SAPE   H2R15373   4.531   1.551  10.269 -0.2851  1.2768 -0.3158
  141SAPE   H2S15374   4.596   1.707  10.224 -0.7077  0.1131  1.6764
  141SAPE    C315375   4.914   1.368  10.522 -0.1727 -0.1319  0.7162
  141SAPE    HX15376   4.865   1.273  10.493  1.8416 -1.5151  1.5902
  141SAPE    HY15377   4.963   1.359  10.622 -0.9078  1.3392  1.2328
  141SAPE   O3115378   5.014   1.405  10.431  1.3811 -0.1949  0.0432
  141SAPE   C3115379   5.124   1.340  10.440 -0.2830  0.4045 -0.0133
  141SAPE   O3215380   5.151   1.253  10.524  0.3501 -0.0771 -0.0544
  141SAPE   C3215381   5.221   1.376  10.331 -0.1715  0.5508 -0.1406
  141SAPE   H2X15382   5.279   1.286  10.299 -0.6076  0.8445 -1.8747
  141SAPE   H2Y15383   5.286   1.447  10.387 -1.1132  0.5369  1.0158
  141SAPE   C2315384   4.693   1.525  10.138  0.0333  0.1581  0.3962
  141SAPE   H3R15385   4.723   1.425  10.176 -0.3616  0.5742  1.8685
  141SAPE   H3S15386   4.790   1.569  10.109 -0.9701  1.3403 -1.3307
  141SAPE   C2415387   4.593   1.507  10.017 -0.6342 -0.5952  0.2689
  141SAPE   H4R15388   4.522   1.435  10.063 -2.3453  1.1790  0.5489
  141SAPE   H4S15389   4.650   1.461   9.934  1.1358  2.1386 -0.1662
  141SAPE   C2515390   4.536   1.631   9.967  0.5912 -0.2659 -0.4132
  141SAPE   H5R15391   4.449   1.662  10.027 -1.1711 -2.2513 -1.7910
  141SAPE   C2615392   4.570   1.704   9.859  0.1498 -0.9666 -0.3053
  141SAPE   H6R15393   4.511   1.792   9.828  1.4367  0.5040  1.2460
  141SAPE   C2715394   4.688   1.669   9.772 -0.3296  0.1587 -0.3282
  141SAPE   H7R15395   4.649   1.704   9.674 -0.1614  2.6827  0.4326
  141SAPE   H7S15396   4.693   1.559   9.762 -1.2130 -0.0643  1.3956
  141SAPE   C2815397   4.834   1.717   9.800 -0.0890 -1.0733 -0.6226
  141SAPE   H8R15398   4.895   1.672   9.880  1.0164  0.7344 -0.3878
  141SAPE   C2915399   4.904   1.804   9.726 -0.6848 -0.6782  0.3609
  141SAPE   H9R15400   5.008   1.824   9.755 -0.4583  2.4876 -2.0571
  141SAPE  C21015401   4.865   1.878   9.602 -0.0666  0.3196 -0.6856
  141SAPE  H10R15402   4.912   1.978   9.595 -2.6331  1.5017 -3.4678
  141SAPE  H10S15403   4.755   1.895   9.608  0.0576  0.9622  0.0297
  141SAPE  C21115404   4.893   1.801   9.478  0.2651  0.1310  0.0934
  141SAPE  H11R15405   4.882   1.693   9.493  0.0346  0.2015  0.4241
  141SAPE  C21215406   4.916   1.843   9.354 -0.0405  0.3348  0.8032
  141SAPE  H12R15407   4.924   1.769   9.273  0.3888 -0.2433  1.3649
  141SAPE  C21315408   4.911   1.989   9.318 -0.0666 -0.1592  0.1555
  141SAPE  H13R15409   4.938   2.046   9.409  0.1008  0.4366 -0.2646
  141SAPE  H13S15410   4.802   2.004   9.300 -0.1402 -0.3236  0.4571
  141SAPE  C21415411   4.996   2.031   9.199  0.5741 -0.9441  0.8530
  141SAPE  H14R15412   5.106   2.028   9.200  0.5860 -0.6372  2.2644
  141SAPE  C21515413   4.947   2.066   9.076  0.5355  0.1839 -0.7719
  141SAPE  H15R15414   5.015   2.078   8.991 -2.6339  1.4516 -3.3655
  141SAPE  C21615415   4.797   2.068   9.037 -0.5852 -0.4472 -0.1106
  141SAPE  H16R15416   4.774   2.167   8.990 -0.4529  1.0163  2.6967
  141SAPE  H16S15417   4.733   2.065   9.128 -1.0685  2.2194 -0.2803
  141SAPE  C21715418   4.760   1.949   8.946  0.0516  0.1258  0.0223
  141SAPE  H17R15419   4.821   1.950   8.853  2.1689 -0.2759  1.3567
  141SAPE  H17S15420   4.659   1.967   8.902  0.1745  0.8644  0.0348
  141SAPE  C21815421   4.752   1.809   9.009 -0.5978 -0.0336 -0.9922
  141SAPE  H18R15422   4.703   1.814   9.109 -0.9030  1.1051 -1.1905
  141SAPE  H18S15423   4.856   1.777   9.030 -0.4844  0.0308 -1.4374
  141SAPE  C21915424   4.675   1.697   8.925 -1.1877 -0.3304  0.5701
  141SAPE  H19R15425   4.569   1.727   8.914 -1.5583 -1.6154  0.5545
  141SAPE  H19S15426   4.686   1.598   8.974  0.5813  0.8939  2.8717
  141SAPE  C22015427   4.748   1.676   8.788 -0.0067  0.5597 -0.5357
  141SAPE  H20R15428   4.743   1.776   8.740 -1.9132  0.5624 -0.4017
  141SAPE  H20S15429   4.700   1.607   8.715  1.6586 -0.1667 -0.9967
  141SAPE  H20T15430   4.857   1.652   8.797  0.0604  0.4739 -1.4961
  141SAPE   C3315431   5.155   1.438  10.208 -0.2925  0.1948 -0.2473
  141SAPE   H3X15432   5.228   1.482  10.136 -0.5247  0.4899 -0.3071
  141SAPE   H3Y15433   5.091   1.521  10.245  0.6085 -0.4152  2.9775
  141SAPE   C3415434   5.077   1.334  10.128 -0.4649 -0.3379 -0.0494
  141SAPE   H4X15435   4.982   1.314  10.182  0.3596  0.3305  1.7181
  141SAPE   H4Y15436   5.130   1.237  10.127  0.1555 -0.0598 -3.0898
  141SAPE   C3515437   5.054   1.379   9.983  0.3941  1.0069 -0.1460
  141SAPE   H5X15438   5.155   1.397   9.938  0.7482 -0.6715 -0.0714
  141SAPE   H5Y15439   4.999   1.475   9.993 -0.4830  0.4230  0.6621
  141SAPE   C3615440   4.975   1.269   9.903  0.2905 -0.1859 -0.6163
  141SAPE   H6X15441   4.883   1.238   9.958  1.1889  0.1690  1.1650
  141SAPE   H6Y15442   5.041   1.180   9.901  0.8333  0.1702  0.7751
  141SAPE   C3715443   4.946   1.324   9.766  0.5495  0.0811  0.2964
  141SAPE   H7X15444   5.012   1.409   9.740 -0.5374  0.8707  0.0325
  141SAPE   H7Y15445   4.842   1.359   9.750  0.8290  1.4155  1.2851
  141SAPE   C3815446   4.960   1.212   9.655  0.0935  0.0003 -0.4389
  141SAPE   H8X15447   4.924   1.122   9.710  3.6939 -0.4159  1.5667
  141SAPE   H8Y15448   5.068   1.198   9.632  0.2341  0.6074 -0.1684
  141SAPE   C3915449   4.896   1.244   9.523 -0.3202  0.5337  0.2190
  141SAPE   H9X15450   4.949   1.335   9.488  1.0557 -0.2729  0.1275
  141SAPE   H9Y15451   4.788   1.264   9.540 -0.1727  1.5126  0.0474
  141SAPE  C31015452   4.915   1.115   9.436 -0.5727  0.0464  0.0942
  141SAPE  H10X15453   4.873   1.031   9.494  2.2867  0.2860  2.7552
  141SAPE  H10Y15454   5.025   1.107   9.421 -0.5250  0.2352  0.3355
  141SAPE  C31115455   4.842   1.124   9.302 -0.3743 -0.3300 -0.0410
  141SAPE  H11X15456   4.823   1.229   9.273 -0.0880 -0.7330 -1.8177
  141SAPE  H11Y15457   4.738   1.087   9.317 -2.3419  3.2634 -3.2098
  141SAPE  C31215458   4.897   1.041   9.179 -0.1323 -0.2162 -0.0044
  141SAPE  H12X15459   4.890   0.937   9.218 -2.4893 -0.2784 -0.4195
  141SAPE  H12Y15460   5.000   1.056   9.140 -0.7828 -1.5304 -2.4787
  141SAPE  C31315461   4.797   1.049   9.067  0.8892  0.4884  0.1527
  141SAPE  H13X15462   4.700   1.005   9.097  1.4857 -1.5268 -0.6763
  141SAPE  H13Y15463   4.824   0.979   8.985 -2.2301  0.2605 -0.8089
  141SAPE  C31415464   4.783   1.194   9.005  0.1894  0.2004  0.0260
  141SAPE  H14X15465   4.874   1.201   8.942  0.8385 -1.1213  0.7682
  141SAPE  H14Y15466   4.782   1.274   9.082  1.2777  0.0334  0.2208
  141SAPE  C31515467   4.661   1.192   8.910  0.8779 -0.5441  0.1065
  141SAPE  H15X15468   4.565   1.189   8.966  0.2309 -1.1598 -1.0066
  141SAPE  H15Y15469   4.672   1.112   8.835  0.7948  1.2963 -1.9766
  141SAPE  C31615470   4.644   1.326   8.838  0.3538  0.2529 -0.8637
  141SAPE  H16X15471   4.735   1.366   8.789  0.1748  1.9946  0.1624
  141SAPE  H16Y15472   4.621   1.393   8.923  1.4084  0.2078 -0.5267
  141SAPE  C31715473   4.535   1.336   8.735  0.6369 -0.0335 -0.2907
  141SAPE  H17X15474   4.533   1.442   8.702 -0.9777  0.1773  0.3978
  141SAPE  H17Y15475   4.447   1.328   8.803  1.7306 -0.5320  1.1051
  141SAPE  C31815476   4.541   1.237   8.618 -0.0082 -0.3451 -0.3241
  141SAPE  H18X15477   4.636   1.257   8.565 -0.7531  0.7831 -1.2945
  141SAPE  H18Y15478   4.461   1.266   8.546  2.2654  0.2684 -2.7897
  141SAPE  H18Z15479   4.534   1.133   8.655 -3.4097  0.2254  1.0484
  142SAPE     N15480   5.402   4.838  11.500 -0.3863 -0.5222  0.3837
  142SAPE   HN115481   5.361   4.788  11.581  1.4939 -0.1557  1.6373
  142SAPE   HN215482   5.366   4.935  11.500  1.3439  0.1655  1.2082
  142SAPE   HN315483   5.358   4.791  11.418 -0.3179  0.4427 -0.2239
  142SAPE   C1215484   5.550   4.828  11.516 -0.2276  0.1621  0.4119
  142SAPE  H12A15485   5.567   4.720  11.538 -1.5003  0.3944  2.8812
  142SAPE  H12B15486   5.574   4.887  11.606  1.0545  0.6844 -0.2576
  142SAPE   C1115487   5.628   4.867  11.386 -0.2697 -0.3340  0.4153
  142SAPE  H11A15488   5.735   4.886  11.405  0.5217 -3.4240 -0.4392
  142SAPE  H11B15489   5.587   4.967  11.360 -0.0731  0.0786  1.6079
  142SAPE     P15490   5.562   4.795  11.141  0.0077  0.0566 -0.4144
  142SAPE   O1315491   5.556   4.661  11.072 -0.3091 -0.8766 -0.0260
  142SAPE   O1415492   5.446   4.885  11.140 -0.1321  0.0182 -0.4643
  142SAPE   O1215493   5.617   4.775  11.287 -0.3083 -0.5679  0.4198
  142SAPE   O1115494   5.675   4.880  11.074  0.2029  0.3826 -0.2758
  142SAPE    C115495   5.806   4.837  11.057 -0.2548  0.0602 -0.6654
  142SAPE    HA15496   5.839   4.770  11.139 -0.2531  0.6235 -0.2034
  142SAPE    HB15497   5.810   4.785  10.959 -0.5370  0.4984 -0.9123
  142SAPE    C215498   5.913   4.949  11.033 -0.4547 -0.8970 -0.7519
  142SAPE    HS15499   6.013   4.903  11.046 -0.2263 -0.5758 -1.3451
  142SAPE   O2115500   5.902   5.055  11.133 -0.1806  0.0888  0.3123
  142SAPE   C2115501   5.949   5.016  11.258 -0.2644  0.0459  0.0370
  142SAPE   O2215502   5.973   4.902  11.291  0.1508  0.0121  0.6915
  142SAPE   C2215503   5.915   5.123  11.351 -0.4655 -0.1604  0.9313
  142SAPE   H2R15504   5.933   5.216  11.293 -0.8445 -1.1197 -0.8243
  142SAPE   H2S15505   5.812   5.105  11.387 -1.5599  1.9814 -0.8399
  142SAPE    C315506   5.924   5.006  10.888 -0.0893 -0.5070  0.2768
  142SAPE    HX15507   5.965   4.930  10.817  1.2248  1.2016 -0.8720
  142SAPE    HY15508   6.000   5.085  10.902 -1.3178  0.4090  2.1848
  142SAPE   O3115509   5.800   5.068  10.856  0.1440 -0.1943 -0.4961
  142SAPE   C3115510   5.763   5.057  10.725  0.2205 -0.6371 -0.0273
  142SAPE   O3215511   5.813   4.979  10.649 -0.8720  0.3809 -0.5640
  142SAPE   C3215512   5.652   5.151  10.690  0.4666 -1.1971 -0.0391
  142SAPE   H2X15513   5.683   5.254  10.718 -0.3879 -0.4051 -1.8244
  142SAPE   H2Y15514   5.562   5.133  10.751 -1.2195  0.2851 -1.9450
  142SAPE   C2315515   6.018   5.120  11.465 -0.7242 -0.4743 -0.1787
  142SAPE   H3R15516   6.049   5.016  11.488 -2.9896 -1.4477 -1.2794
  142SAPE   H3S15517   5.976   5.178  11.551 -0.0765 -1.1729  0.6304
  142SAPE   C2415518   6.147   5.203  11.445 -1.1067 -0.2170  0.3431
  142SAPE   H4R15519   6.213   5.201  11.535  1.3719 -1.0652 -1.4094
  142SAPE   H4S15520   6.116   5.310  11.438 -1.1624 -0.3415 -1.9830
  142SAPE   C2515521   6.242   5.171  11.332 -0.5904  0.8166 -0.3896
  142SAPE   H5R15522   6.294   5.075  11.344 -0.9739  0.4976 -1.2175
  142SAPE   C2615523   6.252   5.240  11.220 -0.2351  0.3184 -0.3153
  142SAPE   H6R15524   6.308   5.201  11.135  0.7294 -0.4030  0.6280
  142SAPE   C2715525   6.177   5.368  11.180  0.3496 -0.3527  0.0130
  142SAPE   H7R15526   6.076   5.357  11.226  0.2294 -2.4028 -0.6550
  142SAPE   H7S15527   6.166   5.375  11.070  1.3919  0.4222 -0.0539
  142SAPE   C2815528   6.243   5.492  11.221  0.6894 -0.1320  0.2525
  142SAPE   H8R15529   6.351   5.487  11.240  1.1852  0.4736 -2.1235
  142SAPE   C2915530   6.175   5.595  11.272  0.7181 -0.5722  0.1518
  142SAPE   H9R15531   6.228   5.671  11.331 -0.0354  0.2384 -0.1937
  142SAPE  C21015532   6.025   5.609  11.279 -0.2391  0.6693  0.0803
  142SAPE  H10R15533   5.980   5.551  11.195  1.9129 -0.6575 -0.2415
  142SAPE  H10S15534   5.995   5.715  11.274  2.1646  1.3954 -0.1525
  142SAPE  C21115535   5.954   5.545  11.393 -0.4720  0.7429 -0.2860
  142SAPE  H11R15536   5.882   5.472  11.353 -0.6422  1.0852 -0.6171
  142SAPE  C21215537   5.956   5.572  11.526 -0.2182  0.5519 -0.0457
  142SAPE  H12R15538   5.895   5.506  11.589 -0.8764  2.5303  1.5087
  142SAPE  C21315539   6.035   5.690  11.594  0.4333  0.5514  0.3470
  142SAPE  H13R15540   6.062   5.757  11.509 -1.8784  1.0808 -0.0335
  142SAPE  H13S15541   6.134   5.661  11.636  0.1852  2.1230  2.0922
  142SAPE  C21415542   5.961   5.780  11.695 -0.6354 -0.4291  0.0934
  142SAPE  H14R15543   5.915   5.868  11.647 -1.9637 -2.2814 -2.2394
  142SAPE  C21515544   5.934   5.755  11.824  0.4187 -0.2209  0.2915
  142SAPE  H15R15545   5.875   5.822  11.888  1.6049  1.5158 -0.3427
  142SAPE  C21615546   5.982   5.625  11.895  0.5475  0.5322  0.3972
  142SAPE  H16R15547   6.026   5.559  11.818 -0.4522  0.2903  0.0204
  142SAPE  H16S15548   5.890   5.575  11.933  1.1405 -1.9844 -1.2598
  142SAPE  C21715549   6.096   5.654  11.993  0.1044  0.2181 -0.0935
  142SAPE  H17R15550   6.050   5.691  12.087  0.0530 -2.0412  0.8484
  142SAPE  H17S15551   6.162   5.733  11.953 -1.5456  1.2599 -0.8898
  142SAPE  C21815552   6.178   5.532  12.034  0.2613 -0.3630  0.0926
  142SAPE  H18R15553   6.260   5.577  12.095  1.7259 -1.9116 -0.6417
  142SAPE  H18S15554   6.217   5.477  11.946 -1.8369  0.0371 -1.1395
  142SAPE  C21915555   6.114   5.425  12.120  0.2690 -0.0181  0.3856
  142SAPE  H19R15556   6.037   5.367  12.065  0.1794  1.6551 -1.3261
  142SAPE  H19S15557   6.052   5.469  12.201 -0.1207  0.3163 -0.0936
  142SAPE  C22015558   6.215   5.332  12.177 -0.1575  0.2570  0.1241
  142SAPE  H20R15559   6.306   5.388  12.208  1.1476 -1.0926 -1.1416
  142SAPE  H20S15560   6.236   5.253  12.103 -2.1478  1.2671 -1.6451
  142SAPE  H20T15561   6.174   5.276  12.264  1.6950 -1.3554  0.0196
  142SAPE   C3315562   5.627   5.166  10.543  0.0829 -0.0582  0.3200
  142SAPE   H3X15563   5.601   5.065  10.504  0.1476  0.1688 -0.3236
  142SAPE   H3Y15564   5.720   5.192  10.488  1.5711 -2.7477  1.3593
  142SAPE   C3415565   5.521   5.273  10.508 -0.1636  0.4696 -0.1054
  142SAPE   H4X15566   5.560   5.362  10.561 -1.4023  0.7508  0.3709
  142SAPE   H4Y15567   5.427   5.246  10.560 -1.1114 -1.9624 -2.7826
  142SAPE   C3515568   5.486   5.276  10.354  0.0180 -0.2222  0.3781
  142SAPE   H5X15569   5.447   5.178  10.317 -1.6565  0.6417 -0.2442
  142SAPE   H5Y15570   5.577   5.310  10.301  1.0409 -1.3234  1.3618
  142SAPE   C3615571   5.362   5.379  10.338 -0.2392 -0.1506  0.0122
  142SAPE   H6X15572   5.402   5.469  10.389  1.3600 -0.1508 -1.1700
  142SAPE   H6Y15573   5.273   5.335  10.389 -1.5341  0.0226 -2.0007
  142SAPE   C3715574   5.318   5.406  10.188 -0.2301 -0.4707 -0.9689
  142SAPE   H7X15575   5.258   5.324  10.143  0.6001 -0.6441 -1.7964
  142SAPE   H7Y15576   5.413   5.406  10.129  0.6297  0.0452  0.3748
  142SAPE   C3815577   5.246   5.542  10.176  1.2168 -0.4252 -0.4357
  142SAPE   H8X15578   5.305   5.615  10.234 -0.0732 -0.1465  0.5710
  142SAPE   H8Y15579   5.149   5.540  10.231  1.8341  0.8425  0.7306
  142SAPE   C3915580   5.239   5.585  10.030 -0.0951 -0.6255  0.4636
  142SAPE   H9X15581   5.329   5.544   9.980 -0.0992 -1.1775  0.8922
  142SAPE   H9Y15582   5.248   5.696  10.035 -3.7665 -0.0764 -1.5548
  142SAPE  C31015583   5.116   5.533   9.966  0.3615 -0.4386 -0.0596
  142SAPE  H10X15584   5.026   5.584  10.008 -1.5233 -0.1708 -3.9639
  142SAPE  H10Y15585   5.109   5.423   9.971  0.9535 -0.4910 -0.3019
  142SAPE  C31115586   5.117   5.564   9.816  0.3640  0.2713  0.3199
  142SAPE  H11X15587   5.187   5.496   9.763 -0.1459  1.1918 -1.6325
  142SAPE  H11Y15588   5.147   5.671   9.808  0.8619  0.0729 -0.5171
  142SAPE  C31215589   4.981   5.548   9.747 -0.0420  0.0614  0.4759
  142SAPE  H12X15590   4.911   5.615   9.801 -1.3609 -1.1845  0.3765
  142SAPE  H12Y15591   4.936   5.447   9.756  0.5229 -0.2070  0.3489
  142SAPE  C31315592   4.993   5.578   9.591  0.6556 -0.3153  0.3963
  142SAPE  H13X15593   5.031   5.487   9.541  0.5792 -0.5188  0.7070
  142SAPE  H13Y15594   5.069   5.658   9.573  0.7008 -0.4137  0.1602
  142SAPE  C31415595   4.862   5.615   9.514  0.3105 -0.1535  0.3338
  142SAPE  H14X15596   4.838   5.724   9.520 -2.9729 -0.5468 -2.5732
  142SAPE  H14Y15597   4.773   5.566   9.559  0.6146 -1.7179 -0.7151
  142SAPE  C31515598   4.859   5.578   9.362  0.1237  0.0673  0.0170
  142SAPE  H15X15599   4.768   5.616   9.310  1.5135  0.1612 -2.4817
  142SAPE  H15Y15600   4.856   5.468   9.351  0.7479  0.0334  0.1508
  142SAPE  C31615601   4.972   5.637   9.269  0.6602  0.1923 -0.0136
  142SAPE  H16X15602   5.070   5.617   9.319  0.2031  2.1573  1.8100
  142SAPE  H16Y15603   4.969   5.747   9.262 -0.3751  0.3481  2.1900
  142SAPE  C31715604   4.968   5.591   9.126  0.3200  0.1952  0.4387
  142SAPE  H17X15605   4.877   5.645   9.092 -0.0874 -0.7712 -0.0722
  142SAPE  H17Y15606   4.945   5.482   9.119 -1.0112  0.4321  0.8784
  142SAPE  C31815607   5.097   5.612   9.049  1.2010 -0.1746  0.1702
  142SAPE  H18X15608   5.119   5.720   9.039  1.8150 -0.1319  1.7009
  142SAPE  H18Y15609   5.107   5.554   8.955  2.1071  1.8391 -1.0313
  142SAPE  H18Z15610   5.174   5.566   9.116  3.2769 -0.5822 -2.3343
  143SAPE     N15611   0.499   0.169  10.712  0.0713  0.5568 -0.4427
  143SAPE   HN115612   0.417   0.105  10.711  0.6131 -0.1604 -2.1966
  143SAPE   HN215613   0.581   0.104  10.709  0.1723  0.6140  0.5491
  143SAPE   HN315614   0.503   0.215  10.805  0.7077  0.2050 -0.2875
  143SAPE   C1215615   0.486   0.276  10.604 -0.4494 -0.1096 -0.0977
  143SAPE  H12A15616   0.470   0.213  10.514  0.3322  0.5943 -0.7476
  143SAPE  H12B15617   0.574   0.343  10.597  0.3549 -1.0799  0.4341
  143SAPE   C1115618   0.361   0.367  10.628 -0.0662 -0.2981  0.7377
  143SAPE  H11A15619   0.335   0.414  10.531 -0.8456 -2.0536  0.0508
  143SAPE  H11B15620   0.395   0.446  10.699  0.6789 -0.1476  0.2246
  143SAPE     P15621   0.143   0.355  10.775  0.2340 -0.1561 -0.4129
  143SAPE   O1315622   0.162   0.315  10.914 -0.1752 -0.2316  0.1564
  143SAPE   O1415623   0.139   0.498  10.748 -0.1251  0.9063  0.7142
  143SAPE   O1215624   0.249   0.291  10.686  0.3200  0.2511 -0.1525
  143SAPE   O1115625   0.009   0.286  10.721  0.1758 -0.2852 -0.1677
  143SAPE    C115626  -0.003   0.162  10.664 -0.2587 -0.2615 -0.5085
  143SAPE    HA15627   0.080   0.098  10.703  1.5450  0.8646 -2.2969
  143SAPE    HB15628  -0.104   0.119  10.677 -0.7111 -0.0237 -2.8308
  143SAPE    C215629   0.029   0.169  10.509  0.3006 -0.0368 -0.8182
  143SAPE    HS15630   0.086   0.264  10.501 -2.5698  1.8741 -0.0066
  143SAPE   O2115631  -0.101   0.164  10.440 -0.3096 -0.0530  0.7172
  143SAPE   C2115632  -0.088   0.233  10.320  0.0463 -0.3857 -0.3435
  143SAPE   O2215633  -0.001   0.313  10.293 -0.3019  0.9061 -0.1268
  143SAPE   C2215634  -0.197   0.181  10.228 -0.3552  0.1943 -0.3410
  143SAPE   H2R15635  -0.176   0.072  10.232 -0.3786  0.2159  0.3324
  143SAPE   H2S15636  -0.302   0.193  10.262 -0.8160 -0.5573 -1.4176
  143SAPE    C315637   0.117   0.045  10.474  0.3814 -0.3875  0.1283
  143SAPE    HX15638   0.061  -0.048  10.498 -0.3758  0.4952  1.9925
  143SAPE    HY15639   0.207   0.040  10.539  0.5570 -1.8289 -0.1962
  143SAPE   O3115640   0.158   0.033  10.343 -0.0424  0.3155  0.5069
  143SAPE   C3115641   0.231   0.126  10.289  0.3953 -1.2081 -0.0458
  143SAPE   O3215642   0.275   0.224  10.351  0.4801  0.5225  0.2142
  143SAPE   C3215643   0.238   0.100  10.137 -0.6162 -0.0440 -0.3787
  143SAPE   H2X15644   0.142   0.053  10.106  0.7193 -1.9037 -1.8941
  143SAPE   H2Y15645   0.320   0.028  10.117  0.3918  0.5401  1.4949
  143SAPE   C2315646  -0.183   0.228  10.081 -0.3741 -0.2511  0.3675
  143SAPE   H3R15647  -0.105   0.172  10.024 -2.2037 -0.9770 -1.5378
  143SAPE   H3S15648  -0.148   0.333  10.087 -0.4957 -0.2276  0.6788
  143SAPE   C2415649  -0.325   0.223   9.995 -0.5893 -0.1339  0.1000
  143SAPE   H4R15650  -0.291   0.273   9.902 -2.1215 -1.8418 -1.4580
  143SAPE   H4S15651  -0.409   0.282  10.039 -1.7293 -1.0478 -0.7756
  143SAPE   C2515652  -0.371   0.084   9.974 -0.3890  0.5537  0.2558
  143SAPE   H5R15653  -0.431   0.038  10.054  0.8447 -0.8013  0.4392
  143SAPE   C2615654  -0.362   0.016   9.852  0.8567 -0.3336  0.4457
  143SAPE   H6R15655  -0.403  -0.086   9.846  0.1284  0.0190 -0.9176
  143SAPE   C2715656  -0.296   0.062   9.726  0.0288 -0.9728  0.0985
  143SAPE   H7R15657  -0.249  -0.026   9.677  2.0747 -0.5929  1.2883
  143SAPE   H7S15658  -0.205   0.115   9.759  0.3263 -1.8554  0.7116
  143SAPE   C2815659  -0.392   0.129   9.638  0.0517 -0.8356 -1.2155
  143SAPE   H8R15660  -0.476   0.180   9.687  2.1359  0.8540  0.8452
  143SAPE   C2915661  -0.376   0.140   9.506  0.0625  0.0670  0.7008
  143SAPE   H9R15662  -0.450   0.188   9.441  0.4354 -0.5354 -0.1880
  143SAPE  C21015663  -0.254   0.080   9.434  0.1799 -0.1094 -0.3505
  143SAPE  H10R15664  -0.169   0.060   9.503 -2.0135  0.5524  2.7738
  143SAPE  H10S15665  -0.221   0.164   9.369 -1.5894  0.4838 -0.5262
  143SAPE  C21115666  -0.302  -0.038   9.352 -0.5316 -0.7435  0.4110
  143SAPE  H11R15667  -0.334  -0.127   9.409  2.3666 -2.4877 -0.4825
  143SAPE  C21215668  -0.315  -0.045   9.217 -0.4435 -0.0617  0.0810
  143SAPE  H12R15669  -0.360  -0.137   9.176 -3.4016  1.8829 -1.4276
  143SAPE  C21315670  -0.280   0.050   9.101  0.0006  0.1567  0.6020
  143SAPE  H13R15671  -0.174   0.045   9.068 -0.0046  0.1186  0.5910
  143SAPE  H13S15672  -0.288   0.155   9.137  1.0025  0.2490  0.5787
  143SAPE  C21415673  -0.372   0.040   8.986  0.0321 -0.5277  0.2750
  143SAPE  H14R15674  -0.477   0.065   9.007  0.7436  2.8176  0.4274
  143SAPE  C21515675  -0.335   0.007   8.857  0.1978  0.4083 -0.3775
  143SAPE  H15R15676  -0.424   0.011   8.793 -1.5150  0.8045  1.9093
  143SAPE  C21615677  -0.197  -0.029   8.801 -0.2028 -0.0157  0.2564
  143SAPE  H16R15678  -0.187  -0.137   8.776 -0.9529 -0.3802  1.4368
  143SAPE  H16S15679  -0.115  -0.011   8.874  1.5302 -0.3447 -1.5300
  143SAPE  C21715680  -0.157   0.069   8.682 -0.0916  0.4966  0.5016
  143SAPE  H17R15681  -0.224   0.065   8.593  0.4503  3.0358 -0.1078
  143SAPE  H17S15682  -0.059   0.023   8.659 -0.4278 -0.8126  1.5791
  143SAPE  C21815683  -0.144   0.218   8.706  0.4903  0.5740  0.1553
  143SAPE  H18R15684  -0.074   0.242   8.789 -0.2030 -1.5094  1.4278
  143SAPE  H18S15685  -0.236   0.274   8.733  0.2736  1.7401 -2.7238
  143SAPE  C21915686  -0.083   0.286   8.578  0.5484  0.2579 -0.3208
  143SAPE  H19R15687  -0.164   0.276   8.503 -0.9540  1.2972  1.0926
  143SAPE  H19S15688   0.000   0.221   8.544  0.8337  0.2274  0.4173
  143SAPE  C22015689  -0.057   0.436   8.589 -0.2033 -0.3596  0.2411
  143SAPE  H20R15690   0.027   0.465   8.656 -0.8488  0.9683  0.5206
  143SAPE  H20S15691  -0.147   0.478   8.639  0.8867  3.9276 -0.9460
  143SAPE  H20T15692  -0.042   0.482   8.489  1.2787 -1.6522 -0.1650
  143SAPE   C3315693   0.263   0.235  10.062 -0.6133  0.4154  0.0824
  143SAPE   H3X15694   0.364   0.261  10.101 -1.2111  0.5432  1.6217
  143SAPE   H3Y15695   0.188   0.311  10.094 -0.2948  0.7757 -0.0199
  143SAPE   C3415696   0.264   0.225   9.906  1.0769  0.0380 -0.2621
  143SAPE   H4X15697   0.326   0.138   9.875 -1.4228 -0.9681 -2.9033
  143SAPE   H4Y15698   0.297   0.327   9.876 -0.4883  1.8549  3.5737
  143SAPE   C3515699   0.123   0.201   9.859  0.1923  0.0845 -0.7447
  143SAPE   H5X15700   0.061   0.286   9.896 -1.1434 -0.8275 -0.8181
  143SAPE   H5Y15701   0.082   0.109   9.905 -2.4514  1.5304 -0.0099
  143SAPE   C3615702   0.106   0.185   9.708 -0.3307  0.4774  0.3066
  143SAPE   H6X15703   0.150   0.277   9.666 -1.8526  0.9710 -0.2623
  143SAPE   H6Y15704  -0.003   0.182   9.684 -0.9399  1.3756  2.7041
  143SAPE   C3715705   0.170   0.065   9.643 -0.2806 -0.1138 -0.4179
  143SAPE   H7X15706   0.132  -0.021   9.702  0.3622  0.9904  1.7270
  143SAPE   H7Y15707   0.279   0.082   9.660 -0.5273  1.3595 -0.2014
  143SAPE   C3815708   0.142   0.053   9.495  0.0263  0.7082  0.4991
  143SAPE   H8X15709   0.212   0.121   9.440  2.2521 -0.9316  1.1370
  143SAPE   H8Y15710   0.035   0.080   9.488 -1.3318 -3.2957  2.7553
  143SAPE   C3915711   0.162  -0.092   9.437  0.6534 -0.7073 -0.1780
  143SAPE   H9X15712   0.084  -0.163   9.473  0.2512 -0.6670 -0.9602
  143SAPE   H9Y15713   0.250  -0.142   9.483 -1.7295 -2.5905  2.7468
  143SAPE  C31015714   0.153  -0.099   9.282 -0.1308  0.7204 -0.2507
  143SAPE  H10X15715   0.225  -0.023   9.245  1.6174 -0.2033  1.0833
  143SAPE  H10Y15716   0.058  -0.054   9.246  0.1947 -0.1116 -2.2494
  143SAPE  C31115717   0.177  -0.242   9.228  0.0806 -0.2698 -0.0661
  143SAPE  H11X15718   0.098  -0.308   9.269  1.7702 -2.3394  0.0458
  143SAPE  H11Y15719   0.277  -0.280   9.258 -1.0426 -3.2133  0.2742
  143SAPE  C31215720   0.175  -0.232   9.075 -0.5408  0.3559 -0.3573
  143SAPE  H12X15721   0.254  -0.158   9.051  1.5051 -1.0198  1.6407
  143SAPE  H12Y15722   0.077  -0.197   9.038  0.0476  0.2694 -2.1122
  143SAPE  C31315723   0.220  -0.365   9.010 -0.4702 -0.9087 -0.1877
  143SAPE  H13X15724   0.154  -0.446   9.048 -0.7982 -0.7125 -0.3324
  143SAPE  H13Y15725   0.327  -0.380   9.035 -0.9967 -1.8224  1.7306
  143SAPE  C31415726   0.220  -0.355   8.855 -0.1470  0.7937  0.0508
  143SAPE  H14X15727   0.304  -0.286   8.830 -0.0515  0.0574 -1.8317
  143SAPE  H14Y15728   0.125  -0.300   8.834  0.3505  1.2436 -1.1166
  143SAPE  C31515729   0.224  -0.483   8.774  0.4476 -0.0896 -0.3038
  143SAPE  H15X15730   0.160  -0.562   8.820  1.3300 -0.8720 -0.3784
  143SAPE  H15Y15731   0.327  -0.525   8.779  1.2039  1.8182  1.8716
  143SAPE  C31615732   0.177  -0.479   8.628 -0.2192 -1.2023  0.0465
  143SAPE  H16X15733   0.073  -0.440   8.632  0.2647  0.5333 -2.2752
  143SAPE  H16Y15734   0.186  -0.582   8.587  1.1719 -0.8748 -0.5130
  143SAPE  C31715735   0.271  -0.377   8.551 -0.2847 -0.6292  0.0034
  143SAPE  H17X15736   0.243  -0.275   8.584 -0.0525 -1.2003  2.1337
  143SAPE  H17Y15737   0.242  -0.402   8.447 -0.9697 -1.4663  0.3843
  143SAPE  C31815738   0.425  -0.389   8.545 -0.5162  0.1238  0.4701
  143SAPE  H18X15739   0.476  -0.327   8.468 -1.9717 -1.6843 -2.1365
  143SAPE  H18Y15740   0.465  -0.493   8.533  2.4313  1.1836  0.3118
  143SAPE  H18Z15741   0.466  -0.351   8.641 -0.5427  1.1700  0.0784
  144SAPE     N15742   4.104   5.598  11.165 -0.2243 -0.7714 -0.2485
  144SAPE   HN115743   4.062   5.583  11.259  1.7556  1.2226  1.0658
  144SAPE   HN215744   4.161   5.685  11.166 -0.6363 -0.4463  2.3207
  144SAPE   HN315745   4.026   5.615  11.098  1.4986 -1.8569 -2.6800
  144SAPE   C1215746   4.189   5.478  11.135  0.3229  0.0252  0.4312
  144SAPE  H12A15747   4.280   5.473  11.199  0.8488 -3.0445 -0.3737
  144SAPE  H12B15748   4.207   5.472  11.025 -2.4024  0.9773 -0.1411
  144SAPE   C1115749   4.112   5.350  11.159  0.0980 -0.2602 -0.1699
  144SAPE  H11A15750   4.101   5.344  11.270 -1.6871 -1.7107 -0.3661
  144SAPE  H11B15751   4.175   5.265  11.124  0.8495  0.1841  0.0893
  144SAPE     P15752   3.936   5.235  11.016  0.0393  0.3013  0.3407
  144SAPE   O1315753   3.913   5.119  11.104 -0.2770 -0.9713  0.2990
  144SAPE   O1415754   3.828   5.270  10.924 -0.8069 -0.2074 -0.0766
  144SAPE   O1215755   3.978   5.352  11.108 -0.2356  0.2850 -0.4051
  144SAPE   O1115756   4.065   5.211  10.932  0.1235 -0.0041 -0.3044
  144SAPE    C115757   4.127   5.306  10.851 -0.4175  0.2854  1.0059
  144SAPE    HA15758   4.092   5.410  10.866 -0.7941  0.9359 -3.2439
  144SAPE    HB15759   4.235   5.305  10.874 -0.3625  0.6469  0.7673
  144SAPE    C215760   4.106   5.277  10.696  1.0489 -0.3139  0.2718
  144SAPE    HS15761   4.177   5.347  10.646  1.8028  0.3138  2.1203
  144SAPE   O2115762   3.963   5.298  10.661  0.0769 -0.4430  0.2584
  144SAPE   C2115763   3.921   5.422  10.646  0.2591  0.0435 -0.4794
  144SAPE   O2215764   3.979   5.522  10.695  1.1893  0.6670  0.5751
  144SAPE   C2215765   3.780   5.423  10.590 -0.6034  0.2425  0.0491
  144SAPE   H2R15766   3.730   5.338  10.642 -0.3559  0.0602 -0.0106
  144SAPE   H2S15767   3.744   5.526  10.610 -4.4617 -0.8656 -0.1930
  144SAPE    C315768   4.135   5.134  10.649 -0.9916 -0.5049 -0.0022
  144SAPE    HX15769   4.076   5.074  10.722  2.1566 -2.3192  1.2805
  144SAPE    HY15770   4.242   5.113  10.672 -0.6575  2.3481  1.4046
  144SAPE   O3115771   4.095   5.100  10.514 -0.3330  0.1498 -0.0388
  144SAPE   C3115772   4.037   4.986  10.493  0.2876 -0.3020 -0.6964
  144SAPE   O3215773   3.997   4.911  10.577 -0.0319  0.2821  0.0017
  144SAPE   C3215774   4.037   4.953  10.346  0.3320 -0.1591  0.1372
  144SAPE   H2X15775   4.045   4.844  10.326 -2.5044 -0.7357  1.7240
  144SAPE   H2Y15776   4.123   5.009  10.302  0.8375 -0.8991  0.1598
  144SAPE   C2315777   3.773   5.406  10.434 -0.1626  0.1463 -0.2761
  144SAPE   H3R15778   3.854   5.339  10.397 -0.3668  0.2935 -1.0045
  144SAPE   H3S15779   3.798   5.490  10.367 -0.9164 -0.9540 -1.9938
  144SAPE   C2415780   3.644   5.332  10.387 -0.2882 -0.1289 -0.6136
  144SAPE   H4R15781   3.558   5.383  10.437  1.9706  1.7199  1.6920
  144SAPE   H4S15782   3.655   5.226  10.419  0.0592 -0.5413 -2.0193
  144SAPE   C2515783   3.626   5.324  10.238  0.0612  0.2865  0.9392
  144SAPE   H5R15784   3.665   5.232  10.193 -1.6451 -0.6594  1.2732
  144SAPE   C2615785   3.575   5.418  10.154 -0.3995  0.1243 -0.0590
  144SAPE   H6R15786   3.585   5.394  10.047 -1.0184 -1.0292  0.1231
  144SAPE   C2715787   3.545   5.560  10.191 -0.5528 -0.3644  0.1117
  144SAPE   H7R15788   3.591   5.587  10.288 -1.9800 -0.2065  0.7754
  144SAPE   H7S15789   3.438   5.570  10.222 -0.7590  0.9070 -0.9285
  144SAPE   C2815790   3.571   5.658  10.080  0.0352 -0.0936 -0.1809
  144SAPE   H8R15791   3.671   5.702  10.087 -0.0433  0.2673 -1.1966
  144SAPE   C2915792   3.494   5.684   9.974 -0.2321  0.2900 -0.1165
  144SAPE   H9R15793   3.519   5.765   9.905  1.4917 -1.4486 -1.6369
  144SAPE  C21015794   3.364   5.608   9.943  0.0803  0.0540 -0.0773
  144SAPE  H10R15795   3.271   5.665   9.966 -0.7932 -0.9633 -0.9436
  144SAPE  H10S15796   3.350   5.512   9.998  2.4341 -1.5311 -2.0065
  144SAPE  C21115797   3.357   5.561   9.796  0.8080  0.0483 -0.3299
  144SAPE  H11R15798   3.429   5.478   9.794 -0.5780 -1.1781 -1.5858
  144SAPE  C21215799   3.296   5.606   9.686  0.7247  0.0189  0.3897
  144SAPE  H12R15800   3.322   5.565   9.587  0.1051  2.1162 -0.7146
  144SAPE  C21315801   3.206   5.726   9.680 -0.4086 -1.2483 -0.4929
  144SAPE  H13R15802   3.130   5.727   9.761 -1.3137 -0.6810 -1.3199
  144SAPE  H13S15803   3.142   5.716   9.590 -0.1393  1.3651 -1.0386
  144SAPE  C21415804   3.277   5.861   9.683 -0.2357  0.6981  0.2305
  144SAPE  H14R15805   3.285   5.909   9.781  1.7627 -1.4734  1.2224
  144SAPE  C21515806   3.332   5.937   9.588 -0.1397  0.3047 -0.2066
  144SAPE  H15R15807   3.374   6.030   9.628  1.3872 -1.7879  3.5807
  144SAPE  C21615808   3.337   5.897   9.439  0.1184  0.1342  0.0188
  144SAPE  H16R15809   3.273   5.966   9.381 -0.2023 -0.0384  0.1650
  144SAPE  H16S15810   3.296   5.799   9.406 -0.5245  0.0434  1.0367
  144SAPE  C21715811   3.480   5.922   9.391 -0.0005  0.5167  0.2262
  144SAPE  H17R15812   3.553   5.861   9.447  0.7349 -1.6272 -2.8125
  144SAPE  H17S15813   3.501   6.030   9.406 -0.9762  0.7059  0.3305
  144SAPE  C21815814   3.497   5.887   9.240 -0.7289 -0.1517 -0.4456
  144SAPE  H18R15815   3.602   5.921   9.228 -1.6458  3.1485 -0.0837
  144SAPE  H18S15816   3.434   5.950   9.174 -1.8292 -1.8273 -1.0651
  144SAPE  C21915817   3.481   5.736   9.201  0.5362 -0.3412 -0.5905
  144SAPE  H19R15818   3.376   5.701   9.215  0.7677 -0.7051  0.3131
  144SAPE  H19S15819   3.537   5.676   9.275 -0.4114  0.5360  0.9083
  144SAPE  C22015820   3.526   5.687   9.059 -0.3426 -0.8281 -0.1808
  144SAPE  H20R15821   3.510   5.582   9.028 -0.9669 -0.7191 -0.2433
  144SAPE  H20S15822   3.628   5.725   9.037 -0.0361 -1.6905 -0.2631
  144SAPE  H20T15823   3.456   5.736   8.988  0.7248  2.7059  0.9517
  144SAPE   C3315824   3.897   4.984  10.284  0.2311  0.1666 -0.3842
  144SAPE   H3X15825   3.881   5.093  10.296 -1.5787  0.3440 -3.2713
  144SAPE   H3Y15826   3.824   4.916  10.334  0.6531 -0.5615 -0.7396
  144SAPE   C3415827   3.893   4.943  10.134  0.0794  0.1489 -0.4175
  144SAPE   H4X15828   3.926   4.838  10.118  0.1392  0.2519 -0.9876
  144SAPE   H4Y15829   3.972   5.010  10.094  1.6334  0.4296  2.7793
  144SAPE   C3515830   3.761   4.955  10.061  0.6153 -0.5984  0.0381
  144SAPE   H5X15831   3.742   5.064  10.045  1.1787 -0.5659 -0.4201
  144SAPE   H5Y15832   3.682   4.910  10.125 -1.4382 -0.9003 -2.5255
  144SAPE   C3615833   3.756   4.879   9.936 -0.6334  0.0912  0.6621
  144SAPE   H6X15834   3.650   4.851   9.920 -1.2401  2.2873  0.4352
  144SAPE   H6Y15835   3.812   4.783   9.940 -1.5714 -0.6489 -2.1391
  144SAPE   C3715836   3.812   4.965   9.824 -0.2595 -0.1855 -0.3617
  144SAPE   H7X15837   3.915   5.003   9.842 -0.4313  0.0088  0.2548
  144SAPE   H7Y15838   3.747   5.055   9.825  0.9466  0.7413  1.6794
  144SAPE   C3815839   3.806   4.903   9.678 -0.1259  0.0048 -0.5157
  144SAPE   H8X15840   3.707   4.924   9.632 -0.5930  2.2621  1.3404
  144SAPE   H8Y15841   3.813   4.792   9.683 -0.0639  0.0498  0.7414
  144SAPE   C3915842   3.917   4.961   9.588 -0.0591  0.0953  0.1707
  144SAPE   H9X15843   4.017   4.964   9.636 -0.1882  1.0956  0.4012
  144SAPE   H9Y15844   3.883   5.065   9.566  0.0697  0.1465  0.2169
  144SAPE  C31015845   3.938   4.880   9.455 -0.2873  0.4211 -0.0725
  144SAPE  H10X15846   3.975   4.777   9.477 -1.2364  0.3006  1.0097
  144SAPE  H10Y15847   4.014   4.928   9.390 -1.4260  1.1850 -0.8775
  144SAPE  C31115848   3.812   4.879   9.359 -0.8565 -0.7431  0.4205
  144SAPE  H11X15849   3.741   4.960   9.387  1.1704  1.9887 -1.6985
  144SAPE  H11Y15850   3.763   4.780   9.364  1.1519 -1.8637 -0.7856
  144SAPE  C31215851   3.849   4.904   9.205 -0.4164  0.1361  0.0922
  144SAPE  H12X15852   3.902   4.817   9.161 -1.3689 -0.1127 -0.5982
  144SAPE  H12Y15853   3.909   4.997   9.195 -0.8008  0.7902  3.0020
  144SAPE  C31315854   3.726   4.917   9.115  0.0128  0.4637 -0.1162
  144SAPE  H13X15855   3.676   5.016   9.105 -0.1484  0.3263 -0.7347
  144SAPE  H13Y15856   3.647   4.858   9.166  0.6890 -0.6284 -0.3040
  144SAPE  C31415857   3.750   4.881   8.968 -0.6950  0.0427  0.5195
  144SAPE  H14X15858   3.800   4.782   8.966  1.9257  1.2507  1.2142
  144SAPE  H14Y15859   3.842   4.931   8.932  1.3601 -4.8780 -1.9974
  144SAPE  C31515860   3.632   4.911   8.880 -0.3541 -0.0924 -0.4171
  144SAPE  H15X15861   3.612   5.020   8.877 -1.6602 -0.3254 -0.9812
  144SAPE  H15Y15862   3.541   4.859   8.917  0.2858 -1.3127 -0.5048
  144SAPE  C31615863   3.665   4.866   8.739 -0.6738  0.2446 -0.1950
  144SAPE  H16X15864   3.704   4.763   8.749  2.2106  1.3986  2.0759
  144SAPE  H16Y15865   3.747   4.929   8.697  0.9805 -1.8769 -0.2952
  144SAPE  C31715866   3.554   4.874   8.634  0.6368 -0.3626 -0.8325
  144SAPE  H17X15867   3.493   4.964   8.655 -0.3413 -1.5177  1.8660
  144SAPE  H17Y15868   3.479   4.794   8.657  1.4926 -1.5601 -2.0852
  144SAPE  C31815869   3.589   4.855   8.485 -0.1802 -0.2186 -0.0954
  144SAPE  H18X15870   3.498   4.843   8.421 -1.0106  1.4024  0.7268
  144SAPE  H18Y15871   3.647   4.761   8.473 -1.6798 -1.1553 -0.3830
  144SAPE  H18Z15872   3.651   4.936   8.443 -1.8523  1.3886  0.4271
  145SAPE     N15873   0.120   5.993  11.193 -0.0202 -0.7846 -0.2049
  145SAPE   HN115874   0.042   6.047  11.236 -0.7646  0.6143 -3.1020
  145SAPE   HN215875   0.094   5.897  11.162 -1.0174 -0.5245 -0.2301
  145SAPE   HN315876   0.205   5.981  11.252  0.0697 -2.4669 -0.6281
  145SAPE   C1215877   0.165   6.066  11.067 -0.2174  0.3164 -0.4100
  145SAPE  H12A15878   0.079   6.100  11.007  0.6215  2.5924 -0.4443
  145SAPE  H12B15879   0.238   6.013  11.001  0.4419 -0.6301  1.0280
  145SAPE   C1115880   0.238   6.199  11.091 -0.9798 -0.5923 -0.2784
  145SAPE  H11A15881   0.262   6.239  10.990  0.5645  1.1954  0.7469
  145SAPE  H11B15882   0.331   6.180  11.148 -1.7341  0.0481  1.2008
  145SAPE     P15883   0.222   6.415  11.237 -0.3823  0.3526  0.1949
  145SAPE   O1315884   0.119   6.513  11.289  0.2549  0.3345  0.4530
  145SAPE   O1415885   0.316   6.353  11.330  0.0246 -0.0747 -0.3190
  145SAPE   O1215886   0.143   6.292  11.160  0.0090  0.3434 -0.4358
  145SAPE   O1115887   0.306   6.484  11.120  0.2457 -0.8183  0.3394
  145SAPE    C115888   0.240   6.585  11.041  0.7142 -0.2151  0.0526
  145SAPE    HA15889   0.130   6.570  11.037  0.4956  0.7885  1.6557
  145SAPE    HB15890   0.260   6.684  11.087  0.9297 -0.5077  0.5916
  145SAPE    C215891   0.285   6.591  10.889  0.8497 -0.1808 -0.0486
  145SAPE    HS15892   0.248   6.689  10.850  1.0452 -0.4179 -0.8499
  145SAPE   O2115893   0.236   6.471  10.824  0.0289 -0.4159 -0.6591
  145SAPE   C2115894   0.108   6.477  10.793  0.0820 -0.2421 -0.1446
  145SAPE   O2215895   0.037   6.576  10.813 -0.7969  0.5854  0.0594
  145SAPE   C2215896   0.066   6.342  10.743  0.4444  0.6395  0.3850
  145SAPE   H2R15897   0.077   6.338  10.632  0.3267  2.5141  0.2703
  145SAPE   H2S15898   0.124   6.262  10.793 -0.5261 -0.4887 -0.2426
  145SAPE    C315899   0.434   6.602  10.889 -0.3425 -0.3842 -0.0565
  145SAPE    HX15900   0.481   6.524  10.953 -0.8853 -1.8754 -1.4276
  145SAPE    HY15901   0.452   6.706  10.924 -2.3793  0.1019 -0.3215
  145SAPE   O3115902   0.503   6.586  10.763  0.2870 -0.5970 -0.5111
  145SAPE   C3115903   0.458   6.671  10.662 -0.3507 -0.2359 -0.5409
  145SAPE   O3215904   0.381   6.764  10.678  0.0652 -0.4916 -0.2746
  145SAPE   C3215905   0.496   6.609  10.526 -0.7422  0.0715 -0.7576
  145SAPE   H2X15906   0.562   6.523  10.549  0.3035  1.3063  1.1386
  145SAPE   H2Y15907   0.567   6.681  10.480 -0.1227 -0.1640 -0.1871
  145SAPE   C2315908  -0.085   6.314  10.786  0.0766  0.4540 -0.2114
  145SAPE   H3R15909  -0.158   6.392  10.757 -0.5114  0.8030  2.0212
  145SAPE   H3S15910  -0.097   6.324  10.896 -0.4281  0.2239 -0.2419
  145SAPE   C2415911  -0.143   6.179  10.741  0.2052  0.2477  0.2589
  145SAPE   H4R15912  -0.093   6.095  10.793 -1.3820 -2.1513 -1.8437
  145SAPE   H4S15913  -0.113   6.161  10.635  0.5925  0.4417  0.3349
  145SAPE   C2515914  -0.290   6.173  10.766  0.2359 -0.0035  0.3274
  145SAPE   H5R15915  -0.317   6.174  10.872  2.7653  0.2799  1.0299
  145SAPE   C2615916  -0.392   6.194  10.671  0.6111 -0.3019 -0.3909
  145SAPE   H6R15917  -0.498   6.199  10.699  0.5468 -0.1211 -0.6577
  145SAPE   C2715918  -0.365   6.209  10.524 -0.2998 -0.0211  0.2639
  145SAPE   H7R15919  -0.273   6.270  10.511  1.1557 -2.0928  0.4086
  145SAPE   H7S15920  -0.454   6.265  10.488 -0.8863 -0.8252  0.4538
  145SAPE   C2815921  -0.332   6.075  10.458 -0.2428 -0.3543 -0.0087
  145SAPE   H8R15922  -0.309   5.990  10.525 -2.5104 -0.6372  0.4919
  145SAPE   C2915923  -0.327   6.055  10.328 -0.5956  0.1864  0.0135
  145SAPE   H9R15924  -0.286   5.963  10.284  1.7844  1.0179  0.3578
  145SAPE  C21015925  -0.359   6.160  10.226 -0.3130 -0.1976  0.1925
  145SAPE  H10R15926  -0.276   6.234  10.220 -1.6973  1.4388  0.5078
  145SAPE  H10S15927  -0.447   6.224  10.249  0.0812  0.4215 -0.0065
  145SAPE  C21115928  -0.384   6.105  10.086 -0.2889  0.1141 -0.0333
  145SAPE  H11R15929  -0.347   6.001  10.086  5.1554  1.7017  1.8693
  145SAPE  C21215930  -0.437   6.164   9.974  0.6512  0.0162 -0.2927
  145SAPE  H12R15931  -0.422   6.115   9.876  2.2682  1.3252 -0.7463
  145SAPE  C21315932  -0.486   6.302   9.957 -0.2986 -0.3386  0.0356
  145SAPE  H13R15933  -0.462   6.338   9.855 -0.0713  1.7392  0.7499
  145SAPE  H13S15934  -0.428   6.368  10.026  1.2109 -2.0859  0.5309
  145SAPE  C21415935  -0.630   6.310   9.992  0.2862  0.4870  0.8062
  145SAPE  H14R15936  -0.654   6.295  10.098 -2.5162 -1.0513  0.0460
  145SAPE  C21515937  -0.728   6.341   9.907 -0.3340  0.3544 -0.0533
  145SAPE  H15R15938  -0.836   6.341   9.930 -0.5973 -1.4696 -1.0452
  145SAPE  C21615939  -0.716   6.371   9.755 -0.3683  0.9348 -0.2617
  145SAPE  H16R15940  -0.623   6.427   9.732  0.1108  0.1268 -0.3308
  145SAPE  H16S15941  -0.791   6.450   9.730  0.3008  0.8342 -2.7864
  145SAPE  C21715942  -0.732   6.254   9.653  0.0200 -0.2291 -0.2651
  145SAPE  H17R15943  -0.740   6.318   9.563 -0.0169  1.5602  0.9540
  145SAPE  H17S15944  -0.817   6.184   9.667 -0.9255  0.9674  0.2021
  145SAPE  C21815945  -0.611   6.159   9.645 -0.2336  0.1378  0.3362
  145SAPE  H18R15946  -0.622   6.093   9.733 -1.3126 -0.6804 -0.3918
  145SAPE  H18S15947  -0.520   6.221   9.658 -1.4840  2.1649 -0.0315
  145SAPE  C21915948  -0.614   6.063   9.522  0.3110 -0.4373 -0.0531
  145SAPE  H19R15949  -0.699   5.993   9.527  1.0137 -1.2963  0.1632
  145SAPE  H19S15950  -0.514   6.014   9.524  0.3269 -0.4781  2.9971
  145SAPE  C22015951  -0.624   6.143   9.386 -0.3906 -0.1056 -1.0334
  145SAPE  H20R15952  -0.576   6.241   9.408 -1.1206  0.3423 -1.4026
  145SAPE  H20S15953  -0.732   6.163   9.371 -0.8826 -1.4164  0.4265
  145SAPE  H20T15954  -0.568   6.089   9.307  1.0796  0.8539 -0.6993
  145SAPE   C3315955   0.372   6.611  10.437 -0.4086  1.0224 -0.1995
  145SAPE   H3X15956   0.334   6.714  10.420  1.6356  1.4781 -2.4648
  145SAPE   H3Y15957   0.284   6.563  10.485 -1.3516  2.9898  0.1400
  145SAPE   C3415958   0.391   6.546  10.301 -1.0306 -0.5002 -0.1575
  145SAPE   H4X15959   0.413   6.437  10.308 -0.2300 -0.4453 -1.5140
  145SAPE   H4Y15960   0.487   6.584  10.261 -1.6932  0.7896 -0.5563
  145SAPE   C3515961   0.282   6.570  10.197  0.5135  0.0344  0.5566
  145SAPE   H5X15962   0.289   6.678  10.174  2.1866  0.1855  1.5750
  145SAPE   H5Y15963   0.187   6.561  10.253 -0.2112  0.5269 -0.5760
  145SAPE   C3615964   0.277   6.471  10.079 -0.3433 -0.6940 -0.4557
  145SAPE   H6X15965   0.179   6.486  10.030 -0.2181  1.6611 -0.0905
  145SAPE   H6Y15966   0.283   6.370  10.125  0.4801 -0.2429  0.4801
  145SAPE   C3715967   0.394   6.485   9.969  0.2361  0.3171 -0.6131
  145SAPE   H7X15968   0.500   6.486  10.001 -0.0696  0.1488  0.4566
  145SAPE   H7Y15969   0.374   6.588   9.932  0.3989 -0.0765 -1.8430
  145SAPE   C3815970   0.368   6.384   9.854  0.4412 -0.1787  1.0410
  145SAPE   H8X15971   0.259   6.393   9.836  0.5034  1.6116  1.4149
  145SAPE   H8Y15972   0.398   6.279   9.874  1.0579 -0.6793 -2.0237
  145SAPE   C3915973   0.443   6.432   9.730  0.9526  0.5536 -0.8657
  145SAPE   H9X15974   0.551   6.444   9.752  0.9214  0.1937 -0.5123
  145SAPE   H9Y15975   0.406   6.529   9.688  0.4888  1.3770  1.3044
  145SAPE  C31015976   0.442   6.329   9.612 -0.0493 -0.5076  0.2030
  145SAPE  H10X15977   0.336   6.301   9.591 -0.0012 -0.0766 -0.6776
  145SAPE  H10Y15978   0.490   6.232   9.635 -1.6602 -1.5369 -0.5470
  145SAPE  C31115979   0.518   6.377   9.486  0.6664 -0.3637  0.4400
  145SAPE  H11X15980   0.625   6.397   9.508  1.2625 -2.9332  0.1911
  145SAPE  H11Y15981   0.467   6.473   9.465 -1.2057 -1.6636 -1.3276
  145SAPE  C31215982   0.496   6.300   9.358  0.2363 -0.5146  0.2172
  145SAPE  H12X15983   0.386   6.290   9.345  0.1679  0.7644 -0.3909
  145SAPE  H12Y15984   0.542   6.199   9.357  0.9211 -0.2061 -1.0292
  145SAPE  C31315985   0.566   6.381   9.248  0.5633 -0.2730 -0.3402
  145SAPE  H13X15986   0.666   6.383   9.295  0.0265 -1.4209  0.9010
  145SAPE  H13Y15987   0.519   6.482   9.236 -1.0901 -0.5583  2.7314
  145SAPE  C31415988   0.579   6.314   9.112 -0.2451 -0.0378  0.1169
  145SAPE  H14X15989   0.490   6.273   9.060  3.2916 -4.5594 -3.1855
  145SAPE  H14Y15990   0.650   6.230   9.129 -1.1503 -0.8536 -0.0230
  145SAPE  C31515991   0.633   6.411   9.005  0.1435  0.4302 -0.8078
  145SAPE  H15X15992   0.735   6.435   9.040  0.5749 -0.6738 -1.2884
  145SAPE  H15Y15993   0.576   6.506   9.019 -1.6378 -0.8884  1.8306
  145SAPE  C31615994   0.630   6.362   8.862 -0.0719  0.4088  1.3633
  145SAPE  H16X15995   0.674   6.442   8.800 -3.2821  1.8726  0.7648
  145SAPE  H16Y15996   0.522   6.364   8.833  0.2009 -0.5962  0.2017
  145SAPE  C31715997   0.685   6.222   8.841 -0.5814 -0.4255 -0.5756
  145SAPE  H17X15998   0.644   6.148   8.913  2.9144 -2.0012  0.0140
  145SAPE  H17Y15999   0.793   6.230   8.865 -0.6203 -0.1757 -0.4815
  145SAPE  C31816000   0.668   6.182   8.695 -0.1906  0.5357 -0.1838
  145SAPE  H18X16001   0.727   6.254   8.635  0.4747  0.3421  0.2286
  145SAPE  H18Y16002   0.561   6.183   8.664 -1.0218  0.5696  2.4677
  145SAPE  H18Z16003   0.707   6.080   8.674  2.6736  1.4433  0.3109
  146SAPE     N16004   5.026   4.750  10.940 -0.1917 -0.2946 -0.2298
  146SAPE   HN116005   4.931   4.785  10.918 -0.5184 -0.3198  1.0478
  146SAPE   HN216006   5.015   4.652  10.973 -1.9955 -0.6223 -1.6412
  146SAPE   HN316007   5.072   4.813  11.009  2.9893  0.7410 -3.0477
  146SAPE   C1216008   5.100   4.735  10.811  0.1891 -0.6519  0.3114
  146SAPE  H12A16009   5.123   4.837  10.774  1.1412 -0.5711  1.0904
  146SAPE  H12B16010   5.026   4.685  10.745  0.1427  0.1427 -0.2534
  146SAPE   C1116011   5.220   4.650  10.818 -0.2997 -0.5935 -0.2720
  146SAPE  H11A16012   5.287   4.690  10.897 -2.1854 -0.6734  1.4265
  146SAPE  H11B16013   5.257   4.644  10.713 -0.2545  1.3638 -0.4177
  146SAPE     P16014   5.274   4.395  10.848 -0.2639 -0.0910  0.0968
  146SAPE   O1316015   5.421   4.411  10.876 -0.4320  0.4165  0.0793
  146SAPE   O1416016   5.200   4.286  10.919 -0.8942  0.3027 -0.4532
  146SAPE   O1216017   5.183   4.526  10.869  0.3230  0.0854 -0.4022
  146SAPE   O1116018   5.255   4.371  10.696  0.0201 -0.3410  0.0289
  146SAPE    C116019   5.123   4.379  10.647 -0.1705 -0.2117 -0.0827
  146SAPE    HA16020   5.060   4.290  10.669  0.6737 -0.8777 -0.2740
  146SAPE    HB16021   5.062   4.467  10.677 -0.1806 -0.6237  1.1882
  146SAPE    C216022   5.123   4.375  10.488  0.1932  0.6361  0.5003
  146SAPE    HS16023   5.174   4.472  10.467  1.2029  0.5364  2.2933
  146SAPE   O2116024   4.992   4.361  10.424  0.1095  0.2984 -0.1746
  146SAPE   C2116025   4.944   4.467  10.382  0.3914 -0.0510 -0.0264
  146SAPE   O2216026   4.983   4.582  10.395 -0.5182 -0.1688 -0.2674
  146SAPE   C2216027   4.816   4.427  10.307  0.2282  0.0353  0.2341
  146SAPE   H2R16028   4.839   4.334  10.250  0.0704 -0.0986  0.3858
  146SAPE   H2S16029   4.741   4.400  10.385  1.5541 -1.1140  1.1547
  146SAPE    C316030   5.191   4.249  10.430  0.1281 -0.2659 -0.1354
  146SAPE    HX16031   5.121   4.165  10.448 -2.8309  2.2151  1.0415
  146SAPE    HY16032   5.283   4.236  10.490 -0.2126  0.3990  0.5576
  146SAPE   O3116033   5.217   4.275  10.291  0.3012 -0.4089 -0.2414
  146SAPE   C3116034   5.337   4.227  10.248  0.2242  0.3433 -0.1959
  146SAPE   O3216035   5.409   4.145  10.307  0.3941 -0.2416 -0.3177
  146SAPE   C3216036   5.355   4.296  10.113 -0.1207 -0.1578 -0.0157
  146SAPE   H2X16037   5.408   4.214  10.061  0.5132 -1.2864  2.2510
  146SAPE   H2Y16038   5.422   4.383  10.132 -0.5288  0.0044  0.7546
  146SAPE   C2316039   4.761   4.547  10.221 -0.0553 -0.1894 -0.1683
  146SAPE   H3R16040   4.747   4.644  10.272  1.3900 -0.4127  0.6952
  146SAPE   H3S16041   4.656   4.527  10.189  0.5430 -0.1721 -2.2796
  146SAPE   C2416042   4.837   4.548  10.083 -0.1648  0.0980 -1.1047
  146SAPE   H4R16043   4.841   4.442  10.048  0.6407 -0.3586  0.3121
  146SAPE   H4S16044   4.943   4.576  10.102 -0.2693  0.2900 -0.8177
  146SAPE   C2516045   4.775   4.649   9.985 -0.1043  0.0294 -0.3319
  146SAPE   H5R16046   4.802   4.752  10.016 -3.7858  1.4854 -1.3582
  146SAPE   C2616047   4.701   4.623   9.872  0.0781  0.4445  0.0089
  146SAPE   H6R16048   4.665   4.712   9.817 -1.0182 -0.4280 -0.7199
  146SAPE   C2716049   4.666   4.486   9.817 -0.2248  0.0472 -0.3626
  146SAPE   H7R16050   4.565   4.453   9.848  0.1209 -0.8616 -0.1592
  146SAPE   H7S16051   4.729   4.403   9.857  1.5947  1.7591  0.4968
  146SAPE   C2816052   4.672   4.480   9.670  0.2902  0.4550 -0.0120
  146SAPE   H8R16053   4.757   4.416   9.641  0.3575 -0.1900  1.5164
  146SAPE   C2916054   4.585   4.534   9.579 -0.2151 -0.4084 -0.7090
  146SAPE   H9R16055   4.606   4.516   9.473 -1.0080 -1.1891 -0.7470
  146SAPE  C21016056   4.458   4.611   9.611 -0.0071 -0.8838  0.1123
  146SAPE  H10R16057   4.467   4.718   9.581  2.0743 -0.5600  1.6979
  146SAPE  H10S16058   4.443   4.619   9.721 -0.4991 -2.6924  0.2135
  146SAPE  C21116059   4.341   4.546   9.554  0.4244 -0.1297  0.2972
  146SAPE  H11R16060   4.308   4.453   9.604  2.3968 -1.7825 -1.2971
  146SAPE  C21216061   4.266   4.582   9.447  0.2360  0.1265  0.5279
  146SAPE  H12R16062   4.175   4.522   9.433  0.9262 -0.6643 -0.8011
  146SAPE  C21316063   4.277   4.692   9.347 -0.0261 -0.3595 -0.7981
  146SAPE  H13R16064   4.275   4.793   9.392 -1.8804 -0.6722 -0.1109
  146SAPE  H13S16065   4.191   4.724   9.285  0.1879  3.7697  0.6853
  146SAPE  C21416066   4.398   4.672   9.266 -0.1759  0.6522  0.6561
  146SAPE  H14R16067   4.483   4.618   9.309  2.0917  2.4256 -1.2732
  146SAPE  C21516068   4.420   4.729   9.143 -0.2149 -0.4291  0.7562
  146SAPE  H15R16069   4.518   4.725   9.093 -0.2153  1.7816  0.5078
  146SAPE  C21616070   4.319   4.812   9.066  0.1681  0.0968  0.0879
  146SAPE  H16R16071   4.313   4.920   9.090 -0.1029 -0.3490  2.1887
  146SAPE  H16S16072   4.220   4.770   9.093  0.5118 -0.9866 -0.2971
  146SAPE  C21716073   4.343   4.781   8.916 -0.5508 -0.6223  0.1483
  146SAPE  H17R16074   4.358   4.675   8.888 -0.3766  0.2515 -3.5711
  146SAPE  H17S16075   4.431   4.838   8.879  0.6372 -2.2090  0.4284
  146SAPE  C21816076   4.213   4.825   8.838 -0.2219 -0.2864  0.3437
  146SAPE  H18R16077   4.175   4.923   8.875 -0.8692  0.6841 -2.5710
  146SAPE  H18S16078   4.126   4.756   8.848 -0.3217 -0.2032  0.0756
  146SAPE  C21916079   4.255   4.839   8.694 -0.2130  0.1196 -0.0948
  146SAPE  H19R16080   4.275   4.740   8.649 -0.0290  0.0596  0.1168
  146SAPE  H19S16081   4.345   4.904   8.687 -2.0765  2.7526 -1.2229
  146SAPE  C22016082   4.151   4.905   8.605 -0.8270 -0.5607  0.0243
  146SAPE  H20R16083   4.140   5.009   8.643  1.4183  0.1390 -1.0561
  146SAPE  H20S16084   4.053   4.854   8.598  0.8654 -4.6896  2.8032
  146SAPE  H20T16085   4.185   4.912   8.499  0.2437  0.6745  0.4197
  146SAPE   C3316086   5.229   4.339  10.038  0.8361  0.0356  0.5613
  146SAPE   H3X16087   5.187   4.438  10.066  0.0611  0.8899 -3.0145
  146SAPE   H3Y16088   5.153   4.259  10.052  0.5573 -0.0106 -1.0288
  146SAPE   C3416089   5.258   4.356   9.890 -0.0731  0.0413  0.4918
  146SAPE   H4X16090   5.289   4.262   9.841  0.0377  1.7731 -3.0920
  146SAPE   H4Y16091   5.341   4.430   9.890 -0.4172  0.4358  0.8314
  146SAPE   C3516092   5.142   4.428   9.814 -0.1640  0.1782  0.7024
  146SAPE   H5X16093   5.124   4.529   9.858 -0.7467  1.3233 -1.9814
  146SAPE   H5Y16094   5.059   4.356   9.826  0.5517 -0.7565  0.1450
  146SAPE   C3616095   5.164   4.437   9.667 -0.3331 -0.0337 -0.1063
  146SAPE   H6X16096   5.134   4.334   9.637 -0.2500 -0.4092  1.0258
  146SAPE   H6Y16097   5.272   4.455   9.647 -0.1839 -0.0192  0.6624
  146SAPE   C3716098   5.073   4.536   9.594 -0.4575 -0.2286 -0.5405
  146SAPE   H7X16099   5.106   4.636   9.629  1.1553 -0.7100 -0.5908
  146SAPE   H7Y16100   4.971   4.526   9.637  0.7055  0.0730  2.5093
  146SAPE   C3816101   5.077   4.515   9.442 -0.2962  0.1354  0.0001
  146SAPE   H8X16102   5.050   4.410   9.419 -1.9838  0.2792  1.1420
  146SAPE   H8Y16103   5.185   4.522   9.418 -0.2390 -2.1502 -0.6945
  146SAPE   C3916104   4.995   4.618   9.362  1.1768  0.6213 -0.1858
  146SAPE   H9X16105   5.063   4.661   9.285  2.0594  1.4512  1.0121
  146SAPE   H9Y16106   4.960   4.710   9.414  1.1130  0.5945 -0.1802
  146SAPE  C31016107   4.877   4.551   9.287  0.1277 -0.6838  0.2032
  146SAPE  H10X16108   4.804   4.511   9.361 -0.4068  1.5159  0.9329
  146SAPE  H10Y16109   4.931   4.473   9.229  0.9474 -1.2069  1.6356
  146SAPE  C31116110   4.798   4.645   9.189 -0.6029  0.1866  0.3650
  146SAPE  H11X16111   4.780   4.745   9.232  1.4057  2.4853 -3.5748
  146SAPE  H11Y16112   4.700   4.597   9.169  0.3176 -1.3570 -0.6325
  146SAPE  C31216113   4.881   4.666   9.061 -0.0884 -0.1191 -0.0381
  146SAPE  H12X16114   4.894   4.570   9.006  2.1317  0.8745 -1.3893
  146SAPE  H12Y16115   4.980   4.711   9.081  0.5389 -0.9200 -1.2100
  146SAPE  C31316116   4.809   4.747   8.945 -0.0502 -0.1323  0.9693
  146SAPE  H13X16117   4.753   4.834   8.986  0.8127 -0.0742  2.0649
  146SAPE  H13Y16118   4.741   4.680   8.888  0.5116  1.5343 -1.7832
  146SAPE  C31416119   4.898   4.805   8.834 -0.1514 -0.8794  0.4714
  146SAPE  H14X16120   4.960   4.727   8.784  0.4435  2.0002 -3.8197
  146SAPE  H14Y16121   4.962   4.890   8.867  0.0815 -0.9814  0.2829
  146SAPE  C31516122   4.815   4.872   8.716 -0.3907  0.0204 -0.6188
  146SAPE  H15X16123   4.758   4.955   8.765 -0.4898 -1.3085  1.6652
  146SAPE  H15Y16124   4.741   4.797   8.682  2.5829 -3.5423  0.1146
  146SAPE  C31616125   4.908   4.910   8.603 -0.3693  0.1883 -0.2186
  146SAPE  H16X16126   4.906   4.825   8.532 -2.0347  0.4489 -0.5330
  146SAPE  H16Y16127   5.011   4.926   8.641 -0.1164  0.4378 -0.9839
  146SAPE  C31716128   4.874   5.051   8.552  0.1321  0.2401  0.4803
  146SAPE  H17X16129   4.870   5.120   8.639 -2.2865  0.6920  0.0777
  146SAPE  H17Y16130   4.770   5.044   8.511 -0.5244 -0.8537  2.2143
  146SAPE  C31816131   4.974   5.099   8.447 -0.2027 -0.0344 -0.0902
  146SAPE  H18X16132   5.079   5.116   8.479 -0.2383 -0.3920  0.2219
  146SAPE  H18Y16133   4.941   5.202   8.418  3.5922  0.6200 -2.9614
  146SAPE  H18Z16134   4.989   5.036   8.357  1.9715 -0.7420  0.7092
  147SAPE     N16135   3.796   1.578   6.142 -1.1977 -0.1821  0.1822
  147SAPE   HN116136   3.868   1.540   6.077  0.8224  0.6803  1.8049
  147SAPE   HN216137   3.709   1.599   6.090 -1.6581 -0.1243  0.9648
  147SAPE   HN316138   3.826   1.671   6.178 -1.0197 -0.6037  1.1405
  147SAPE   C1216139   3.738   1.493   6.248 -0.9732 -0.2757 -0.3429
  147SAPE  H12A16140   3.823   1.434   6.291  0.5170  1.2818 -1.0334
  147SAPE  H12B16141   3.686   1.413   6.192  0.4129 -1.5321  0.0827
  147SAPE   C1116142   3.643   1.563   6.327  0.0366 -0.4488  0.2508
  147SAPE  H11A16143   3.702   1.616   6.405 -0.1683 -0.6978  0.5791
  147SAPE  H11B16144   3.575   1.499   6.388 -2.4117 -0.1547 -2.0006
  147SAPE     P16145   3.555   1.802   6.265 -0.0690  0.0964  0.1188
  147SAPE   O1316146   3.696   1.852   6.267  0.8287 -0.1454  0.1500
  147SAPE   O1416147   3.453   1.865   6.175 -0.9916  0.2668  0.4571
  147SAPE   O1216148   3.558   1.639   6.239 -0.3484 -0.4914 -0.2167
  147SAPE   O1116149   3.490   1.807   6.411  0.1675  0.3300  0.2146
  147SAPE    C116150   3.351   1.790   6.429  0.0235  0.0070  0.0521
  147SAPE    HA16151   3.299   1.882   6.394  2.4628  0.6991 -2.0296
  147SAPE    HB16152   3.314   1.713   6.358 -1.6206  1.6257 -0.9380
  147SAPE    C216153   3.315   1.735   6.572  0.0784  0.2158 -0.0388
  147SAPE    HS16154   3.208   1.707   6.574 -0.5101  2.2792  0.2490
  147SAPE   O2116155   3.336   1.839   6.666 -0.4187  0.1245  0.5641
  147SAPE   C2116156   3.240   1.928   6.676 -0.4629 -0.0732  0.7280
  147SAPE   O2216157   3.133   1.918   6.617 -0.4980  0.6985  0.1786
  147SAPE   C2216158   3.265   2.026   6.784  0.4637 -0.1383 -0.9825
  147SAPE   H2R16159   3.369   2.033   6.823  0.3235 -3.0279  0.1876
  147SAPE   H2S16160   3.255   2.130   6.746  1.2068  1.3976  2.5782
  147SAPE    C316161   3.387   1.604   6.610 -0.0876  0.4696 -0.4392
  147SAPE    HX16162   3.492   1.639   6.621  0.5279 -1.6829  1.2762
  147SAPE    HY16163   3.386   1.531   6.526  1.3606  1.3325 -1.2513
  147SAPE   O3116164   3.336   1.553   6.740 -0.1510 -0.5728  0.0731
  147SAPE   C3116165   3.365   1.431   6.764 -0.0034  0.8344 -0.1170
  147SAPE   O3216166   3.430   1.349   6.692  0.3726  0.2154 -0.2668
  147SAPE   C3216167   3.318   1.399   6.906  0.5509  0.2106 -0.2302
  147SAPE   H2X16168   3.362   1.303   6.939  0.0850  0.7091  1.9549
  147SAPE   H2Y16169   3.209   1.380   6.896  0.2950  2.3011 -2.2844
  147SAPE   C2316170   3.154   2.027   6.897  0.6376 -0.7390  0.3355
  147SAPE   H3R16171   3.051   2.044   6.859  0.8447 -1.1898 -0.4600
  147SAPE   H3S16172   3.176   2.111   6.966  2.4300 -0.4676 -0.5185
  147SAPE   C2416173   3.152   1.898   6.981 -0.1169  0.0987  0.0540
  147SAPE   H4R16174   3.154   1.812   6.911 -1.1450  0.1419 -0.0387
  147SAPE   H4S16175   3.056   1.896   7.036 -0.7839 -1.7118 -1.1153
  147SAPE   C2516176   3.268   1.898   7.079  0.5757  0.4333  0.0108
  147SAPE   H5R16177   3.362   1.865   7.033 -1.1396 -0.9034 -2.8251
  147SAPE   C2616178   3.263   1.933   7.210  0.2440 -0.1563 -0.0230
  147SAPE   H6R16179   3.353   1.919   7.272  0.7820 -2.8153 -1.2515
  147SAPE   C2716180   3.147   1.985   7.289  0.2250  0.1144 -0.4093
  147SAPE   H7R16181   3.051   1.987   7.234 -0.1741 -0.0906  0.2628
  147SAPE   H7S16182   3.171   2.091   7.311  0.2209 -0.4127  2.6514
  147SAPE   C2816183   3.131   1.892   7.412  0.1889 -0.2724  0.0733
  147SAPE   H8R16184   3.063   1.808   7.391 -2.5502  0.7947  3.6045
  147SAPE   C2916185   3.163   1.910   7.542 -0.2201  0.3787 -0.5798
  147SAPE   H9R16186   3.133   1.840   7.621  1.0058 -0.6967 -1.0334
  147SAPE  C21016187   3.239   2.034   7.578 -0.7407 -0.3954  0.5433
  147SAPE  H10R16188   3.171   2.122   7.572 -0.1138  0.0649  0.0316
  147SAPE  H10S16189   3.317   2.054   7.502  0.2685 -1.2820  1.2977
  147SAPE  C21116190   3.311   2.028   7.711  0.2986 -0.2530  0.0007
  147SAPE  H11R16191   3.420   2.017   7.713  0.5132  1.5408  1.3322
  147SAPE  C21216192   3.251   2.027   7.830  0.4688 -0.4504  0.5802
  147SAPE  H12R16193   3.315   2.022   7.920  2.2335 -0.9765 -0.6629
  147SAPE  C21316194   3.102   2.035   7.847  0.4225 -0.6048  0.6740
  147SAPE  H13R16195   3.057   2.061   7.750 -1.0721 -0.9850  1.2374
  147SAPE  H13S16196   3.080   2.129   7.902 -1.8625 -1.5107  1.4224
  147SAPE  C21416197   3.047   1.912   7.907 -0.2425  0.0351  0.2406
  147SAPE  H14R16198   3.017   1.837   7.832 -3.0268  0.6062  0.6505
  147SAPE  C21516199   3.028   1.884   8.033  1.0036  0.6194 -0.3728
  147SAPE  H15R16200   2.986   1.786   8.062  0.7713  0.6943 -0.4522
  147SAPE  C21616201   3.049   1.960   8.154 -0.5748 -0.1082 -0.1556
  147SAPE  H16R16202   2.972   1.950   8.234 -1.6728  1.5563 -0.9397
  147SAPE  H16S16203   3.042   2.067   8.128 -0.9266 -0.1161 -0.0980
  147SAPE  C21716204   3.184   1.942   8.217 -0.3935 -0.7724 -0.1970
  147SAPE  H17R16205   3.262   1.961   8.141 -0.6871  0.0938 -0.2953
  147SAPE  H17S16206   3.192   1.834   8.245 -1.9817 -0.6999  0.6787
  147SAPE  C21816207   3.212   2.027   8.345  0.1591  0.1311 -0.4261
  147SAPE  H18R16208   3.131   1.992   8.412  1.2569  0.3059  1.0349
  147SAPE  H18S16209   3.190   2.132   8.315 -0.0425 -0.4841 -2.6195
  147SAPE  C21916210   3.349   2.007   8.398 -0.3396 -0.0701 -0.6153
  147SAPE  H19R16211   3.415   2.049   8.319 -1.1966 -0.1729 -1.4047
  147SAPE  H19S16212   3.365   1.898   8.413 -1.8210 -0.2876 -0.3989
  147SAPE  C22016213   3.365   2.080   8.535 -0.3679  0.9238 -0.1258
  147SAPE  H20R16214   3.444   2.035   8.598 -1.0283  0.6320  0.5191
  147SAPE  H20S16215   3.266   2.078   8.586 -1.4146 -2.8663 -1.9058
  147SAPE  H20T16216   3.386   2.189   8.524  0.6638  1.1488  3.1203
  147SAPE   C3316217   3.358   1.507   7.006  0.1770 -0.5828 -0.3899
  147SAPE   H3X16218   3.319   1.608   6.983  1.3073  0.5501  2.3007
  147SAPE   H3Y16219   3.469   1.499   7.004  0.3520  1.4322 -1.3974
  147SAPE   C3416220   3.309   1.455   7.153 -0.4495  0.5465 -0.0402
  147SAPE   H4X16221   3.358   1.531   7.216 -1.0821  2.5117 -1.8142
  147SAPE   H4Y16222   3.349   1.355   7.183 -3.9920 -0.7183  1.0650
  147SAPE   C3516223   3.155   1.446   7.171 -0.4162  0.0512  0.1448
  147SAPE   H5X16224   3.115   1.373   7.098  0.1111  0.3495 -0.4563
  147SAPE   H5Y16225   3.130   1.553   7.154  0.1781  0.0128 -1.0482
  147SAPE   C3616226   3.096   1.409   7.311 -1.1015  0.0119  0.4528
  147SAPE   H6X16227   3.115   1.300   7.324  0.2607  0.2678  0.7899
  147SAPE   H6Y16228   2.986   1.422   7.310 -0.9185  2.9999 -3.0055
  147SAPE   C3716229   3.161   1.477   7.427 -1.7651  1.5495  0.3107
  147SAPE   H7X16230   3.127   1.583   7.431 -0.5420  1.9259  1.2839
  147SAPE   H7Y16231   3.271   1.484   7.424 -1.6871  0.2253 -0.9677
  147SAPE   C3816232   3.119   1.413   7.557  0.5547 -0.2598 -1.0447
  147SAPE   H8X16233   3.150   1.307   7.549 -0.0907 -0.3743 -2.3343
  147SAPE   H8Y16234   3.008   1.414   7.563  0.5778  1.0193 -0.4066
  147SAPE   C3916235   3.173   1.477   7.685  0.4564 -0.0370  0.0288
  147SAPE   H9X16236   3.122   1.575   7.698  0.2875  0.0809 -1.4099
  147SAPE   H9Y16237   3.276   1.507   7.659 -0.1686  1.4124 -0.8766
  147SAPE  C31016238   3.158   1.396   7.816 -0.4832 -0.2182  0.1855
  147SAPE  H10X16239   3.211   1.299   7.799  0.6853  0.5405 -0.7156
  147SAPE  H10Y16240   3.050   1.384   7.838 -0.4045  0.6693  1.1082
  147SAPE  C31116241   3.225   1.477   7.922 -0.1113 -0.1883 -0.1368
  147SAPE  H11X16242   3.189   1.582   7.933  0.6154 -0.0885  1.6579
  147SAPE  H11Y16243   3.333   1.485   7.898  0.7803 -1.4616  2.9825
  147SAPE  C31216244   3.227   1.408   8.058  0.6622  0.1397 -0.0446
  147SAPE  H12X16245   3.328   1.367   8.083  1.0853  2.0150  1.5698
  147SAPE  H12Y16246   3.154   1.325   8.062  1.0145 -0.1763 -0.0545
  147SAPE  C31316247   3.186   1.513   8.162  0.9591 -0.3507 -0.4661
  147SAPE  H13X16248   3.089   1.563   8.141  0.1969 -1.6444 -0.1527
  147SAPE  H13Y16249   3.255   1.599   8.173  1.1561 -0.6113  0.4611
  147SAPE  C31416250   3.163   1.462   8.307 -0.0921 -0.2233 -0.2322
  147SAPE  H14X16251   3.252   1.412   8.350 -0.3077  0.1490  0.6649
  147SAPE  H14Y16252   3.071   1.400   8.302 -0.0880 -0.3142  0.6972
  147SAPE  C31516253   3.137   1.581   8.393 -0.2755 -0.3442  0.0763
  147SAPE  H15X16254   3.212   1.662   8.388 -0.3778 -0.3067 -1.1052
  147SAPE  H15Y16255   3.159   1.555   8.499  0.2366  3.7183  1.1400
  147SAPE  C31616256   2.994   1.643   8.394  0.4460  0.2424 -0.5135
  147SAPE  H16X16257   2.976   1.690   8.295  0.1250  0.4345 -0.3641
  147SAPE  H16Y16258   2.984   1.724   8.469 -3.8954 -2.4917  2.4004
  147SAPE  C31716259   2.884   1.535   8.419  0.4188  0.0558 -0.0216
  147SAPE  H17X16260   2.905   1.479   8.513  0.5988 -1.4672 -0.9371
  147SAPE  H17Y16261   2.872   1.451   8.347  0.4303 -0.5142  0.6305
  147SAPE  C31816262   2.748   1.604   8.423 -0.4832  0.0913 -0.0111
  147SAPE  H18X16263   2.717   1.627   8.319  1.9788  0.6530 -0.7040
  147SAPE  H18Y16264   2.753   1.689   8.495  2.4610 -0.8025  1.0131
  147SAPE  H18Z16265   2.683   1.531   8.475  1.9529 -0.6563  2.2307
  148SAPE     N16266   1.967   1.596   6.315  0.3906  0.2934 -0.4856
  148SAPE   HN116267   1.874   1.605   6.269  0.6065  0.6948 -0.8547
  148SAPE   HN216268   2.009   1.689   6.295  1.1857 -0.0213 -0.3024
  148SAPE   HN316269   2.027   1.523   6.272 -0.3209 -0.3577 -0.3818
  148SAPE   C1216270   1.936   1.574   6.462  0.1493  0.6488 -0.0770
  148SAPE  H12A16271   1.879   1.479   6.473 -1.1099  1.2930 -0.7248
  148SAPE  H12B16272   1.880   1.661   6.503  1.6117  2.0213 -0.8859
  148SAPE   C1116273   2.075   1.562   6.542  0.4217 -0.1009  0.1445
  148SAPE  H11A16274   2.034   1.541   6.643 -0.9310  1.4474 -0.0403
  148SAPE  H11B16275   2.124   1.659   6.565 -3.7059  1.9029  1.4989
  148SAPE     P16276   2.171   1.323   6.535 -0.2988 -0.0718 -0.2018
  148SAPE   O1316277   2.063   1.240   6.486 -0.1613 -0.3060 -0.7245
  148SAPE   O1416278   2.304   1.270   6.501 -0.4787 -1.1723 -0.0774
  148SAPE   O1216279   2.166   1.469   6.491  0.6418 -0.3101 -0.0964
  148SAPE   O1116280   2.157   1.343   6.692 -0.4226  0.0451  0.2799
  148SAPE    C116281   2.261   1.323   6.785  0.3397  0.4178 -0.0815
  148SAPE    HA16282   2.353   1.383   6.768 -0.4209  2.0129  1.2445
  148SAPE    HB16283   2.219   1.355   6.883  1.8179 -0.4450  0.8846
  148SAPE    C216284   2.310   1.179   6.807 -0.1113  0.0624 -0.2406
  148SAPE    HS16285   2.341   1.140   6.708  0.9697  0.2148  0.0291
  148SAPE   O2116286   2.198   1.107   6.870  0.7065 -0.6892  0.3108
  148SAPE   C2116287   2.195   0.978   6.858  0.2567  0.1821  0.5112
  148SAPE   O2216288   2.275   0.903   6.801 -0.1974  0.2193 -0.1611
  148SAPE   C2216289   2.058   0.941   6.923  0.6790 -0.2416  0.1105
  148SAPE   H2R16290   2.004   1.035   6.951 -1.2323 -1.3440  0.3206
  148SAPE   H2S16291   1.987   0.902   6.847  0.4727  0.6335 -0.1544
  148SAPE    C316292   2.437   1.158   6.890  0.4966  0.0228 -0.5487
  148SAPE    HX16293   2.524   1.197   6.833  0.0163  2.5055  0.2876
  148SAPE    HY16294   2.455   1.049   6.904 -0.6462 -0.2927 -1.3543
  148SAPE   O3116295   2.425   1.228   7.018 -0.1033  0.0290  0.1117
  148SAPE   C3116296   2.387   1.153   7.124 -0.0696 -0.4903 -0.6421
  148SAPE   O3216297   2.389   1.032   7.125  0.2685 -0.2214 -0.0245
  148SAPE   C3216298   2.338   1.244   7.235  0.0761  0.0714  0.5121
  148SAPE   H2X16299   2.230   1.228   7.260  0.2747 -1.3064  0.5535
  148SAPE   H2Y16300   2.373   1.347   7.216  2.7507 -0.5449  1.6884
  148SAPE   C2316301   2.075   0.862   7.053 -0.2342 -0.0997  0.1279
  148SAPE   H3R16302   2.159   0.903   7.112 -0.1855  0.0566 -0.0498
  148SAPE   H3S16303   2.116   0.761   7.032  2.3975  0.4634  1.9944
  148SAPE   C2416304   1.948   0.848   7.136 -0.0700  0.4673  0.2320
  148SAPE   H4R16305   1.986   0.777   7.212 -1.3002 -0.3207  0.1388
  148SAPE   H4S16306   1.868   0.792   7.083  0.5955 -0.3056  0.0203
  148SAPE   C2516307   1.892   0.974   7.201 -0.4947 -0.0726  0.2814
  148SAPE   H5R16308   1.849   1.059   7.145 -0.1912  0.1331  0.3631
  148SAPE   C2616309   1.873   0.984   7.336  0.1300  0.1095 -0.5549
  148SAPE   H6R16310   1.835   1.078   7.377  1.1125  0.1347  0.3688
  148SAPE   C2716311   1.908   0.880   7.441  0.1254 -0.8412  0.6034
  148SAPE   H7R16312   1.912   0.782   7.391 -1.4255 -0.0988 -1.0684
  148SAPE   H7S16313   1.820   0.873   7.509 -1.3869  1.3538 -0.9815
  148SAPE   C2816314   2.040   0.905   7.507  0.1776 -0.1354  0.4331
  148SAPE   H8R16315   2.121   0.878   7.438  0.2585 -2.9359  1.4958
  148SAPE   C2916316   2.070   0.954   7.629 -0.1471  0.2609  0.2732
  148SAPE   H9R16317   2.176   0.953   7.657 -0.5540 -1.9935  2.0232
  148SAPE  C21016318   1.950   0.992   7.723  0.1419 -0.6260  0.5782
  148SAPE  H10R16319   1.864   1.025   7.661 -0.2660 -0.3962  1.2594
  148SAPE  H10S16320   1.980   1.091   7.763  0.5569 -0.2362 -0.6261
  148SAPE  C21116321   1.903   0.896   7.834  0.8126 -0.9404  0.3514
  148SAPE  H11R16322   1.832   0.817   7.802 -0.5162  0.5291 -0.5174
  148SAPE  C21216323   1.918   0.904   7.966  0.1893 -0.7904 -0.2666
  148SAPE  H12R16324   1.870   0.838   8.039  0.0597  1.2597  1.6283
  148SAPE  C21316325   1.994   1.014   8.040  0.5489  0.4078 -0.5570
  148SAPE  H13R16326   1.942   1.028   8.137  1.6878 -0.1613  0.1586
  148SAPE  H13S16327   1.987   1.115   7.993  0.4203  0.7278  0.1329
  148SAPE  C21416328   2.136   0.982   8.050 -0.1458  0.3324 -0.5537
  148SAPE  H14R16329   2.201   1.010   7.966  1.6125 -0.5161  0.4664
  148SAPE  C21516330   2.181   0.909   8.149 -0.7553 -0.2437  0.2076
  148SAPE  H15R16331   2.289   0.886   8.154 -0.5937 -0.8800 -3.4136
  148SAPE  C21616332   2.102   0.868   8.268  0.2962  0.6781  0.1116
  148SAPE  H16R16333   2.149   0.778   8.314  0.6582  1.0643  0.4993
  148SAPE  H16S16334   1.997   0.837   8.246  0.4430  1.5116 -1.9876
  148SAPE  C21716335   2.081   0.964   8.386  0.4360 -0.7149 -0.5977
  148SAPE  H17R16336   2.042   1.062   8.350  1.4299 -0.2030 -0.2948
  148SAPE  H17S16337   2.174   0.998   8.435 -0.2645 -2.0290  1.7674
  148SAPE  C21816338   1.978   0.910   8.485 -0.0409  0.6303 -0.1632
  148SAPE  H18R16339   1.894   0.878   8.420  0.6810 -2.3841  0.2105
  148SAPE  H18S16340   1.936   0.995   8.542 -0.4225  1.9728 -2.3155
  148SAPE  C21916341   2.036   0.799   8.582  0.8696 -0.1134 -0.0955
  148SAPE  H19R16342   2.086   0.716   8.527 -0.6702 -1.3031  0.2257
  148SAPE  H19S16343   1.947   0.746   8.623  0.2184 -0.0881 -1.4311
  148SAPE  C22016344   2.136   0.859   8.689  0.3966  0.3243  0.7044
  148SAPE  H20R16345   2.167   0.787   8.767  0.6471  1.5108  1.7350
  148SAPE  H20S16346   2.086   0.944   8.742 -0.4802  1.0091 -1.1234
  148SAPE  H20T16347   2.222   0.893   8.627 -0.0655  1.2639  0.5529
  148SAPE   C3316348   2.409   1.191   7.365  0.2833 -0.2121  0.3885
  148SAPE   H3X16349   2.519   1.179   7.355  0.4555  2.1024 -1.0394
  148SAPE   H3Y16350   2.356   1.095   7.385 -1.4964  0.0491 -2.5815
  148SAPE   C3416351   2.375   1.287   7.484 -0.7768  0.0433  0.9940
  148SAPE   H4X16352   2.265   1.294   7.474 -0.5503  1.1934 -1.4136
  148SAPE   H4Y16353   2.429   1.381   7.458  2.5158 -1.8241  0.4195
  148SAPE   C3516354   2.415   1.234   7.627  0.2558 -0.0849  0.0552
  148SAPE   H5X16355   2.525   1.241   7.636  0.2160 -0.0260  0.5702
  148SAPE   H5Y16356   2.377   1.131   7.643 -1.9770  0.9839  2.4012
  148SAPE   C3616357   2.346   1.311   7.744 -0.6743 -0.5292 -0.1264
  148SAPE   H6X16358   2.237   1.291   7.739 -1.3899  2.9250 -0.8887
  148SAPE   H6Y16359   2.355   1.413   7.702 -1.4961 -1.2376 -2.1551
  148SAPE   C3716360   2.390   1.278   7.885 -0.1200 -0.3551 -0.1598
  148SAPE   H7X16361   2.499   1.291   7.896 -0.1076 -2.4957  4.6447
  148SAPE   H7Y16362   2.365   1.173   7.909 -0.6216 -1.0503 -3.2167
  148SAPE   C3816363   2.329   1.384   7.984  0.4227 -0.4646 -0.2166
  148SAPE   H8X16364   2.219   1.378   7.972 -0.0062  2.2616  1.5184
  148SAPE   H8Y16365   2.373   1.481   7.952  0.1956 -1.4357 -3.9338
  148SAPE   C3916366   2.361   1.364   8.129 -0.6191 -0.5260  0.0183
  148SAPE   H9X16367   2.451   1.410   8.175 -0.8309 -0.6899  0.6004
  148SAPE   H9Y16368   2.391   1.260   8.154 -0.4530 -0.3929  0.3835
  148SAPE  C31016369   2.241   1.398   8.229  0.1360  0.2456  0.2490
  148SAPE  H10X16370   2.153   1.339   8.198 -0.0768  0.0062  1.2732
  148SAPE  H10Y16371   2.216   1.505   8.208  0.4928  0.2104 -0.3951
  148SAPE  C31116372   2.272   1.378   8.374 -0.2098  0.9813  0.4501
  148SAPE  H11X16373   2.354   1.449   8.397  0.1791  1.3701 -1.9103
  148SAPE  H11Y16374   2.301   1.275   8.401 -0.0726  1.0165  0.4387
  148SAPE  C31216375   2.148   1.396   8.462 -0.5836 -0.5213 -0.2892
  148SAPE  H12X16376   2.171   1.350   8.561 -0.1004  0.6904  0.1860
  148SAPE  H12Y16377   2.056   1.357   8.415 -1.0962  2.2391 -1.7976
  148SAPE  C31316378   2.128   1.550   8.478  0.9999  0.1994  0.1104
  148SAPE  H13X16379   2.061   1.585   8.397 -0.4390 -2.5722 -0.0210
  148SAPE  H13Y16380   2.220   1.612   8.471  1.4816 -0.0787  2.8149
  148SAPE  C31416381   2.071   1.598   8.614  0.1073 -0.0437  0.2647
  148SAPE  H14X16382   2.114   1.531   8.692 -0.5826 -0.6907  0.1068
  148SAPE  H14Y16383   1.961   1.581   8.608  0.2543 -1.2354  0.6609
  148SAPE  C31516384   2.107   1.748   8.641  1.1043  0.3874  0.4532
  148SAPE  H15X16385   2.218   1.752   8.652  1.1781 -1.0531  0.3740
  148SAPE  H15Y16386   2.053   1.770   8.735 -0.8563 -0.6374 -0.3840
  148SAPE  C31616387   2.067   1.849   8.530  0.4810  0.4628 -0.1936
  148SAPE  H16X16388   1.957   1.855   8.517  0.5402  0.3397 -0.7838
  148SAPE  H16Y16389   2.109   1.807   8.436 -3.0325 -2.1843 -0.7903
  148SAPE  C31716390   2.120   1.987   8.536  0.5037 -0.0563  0.1950
  148SAPE  H17X16391   2.229   1.969   8.537  0.2020 -2.1257 -0.2201
  148SAPE  H17Y16392   2.087   2.045   8.626 -0.7599 -1.1103  0.4509
  148SAPE  C31816393   2.089   2.078   8.416  0.3197  0.3578  0.3970
  148SAPE  H18X16394   2.120   2.183   8.431  1.0268  0.3416 -0.8755
  148SAPE  H18Y16395   1.980   2.086   8.397  0.6053  0.0135 -1.5726
  148SAPE  H18Z16396   2.143   2.034   8.329  2.7402 -0.0225  1.9833
  149SAPE     N16397   1.538   0.781   6.545  0.6723  0.6139  0.3438
  149SAPE   HN116398   1.597   0.744   6.468 -0.7438 -3.0212  0.7985
  149SAPE   HN216399   1.523   0.881   6.519 -1.3946 -0.3438 -2.6926
  149SAPE   HN316400   1.599   0.781   6.629  1.4088 -0.4392 -0.1705
  149SAPE   C1216401   1.399   0.714   6.572 -0.6504  0.4307 -0.1145
  149SAPE  H12A16402   1.349   0.720   6.473 -0.0623 -1.8696 -0.6072
  149SAPE  H12B16403   1.341   0.764   6.653  1.3057  1.6324  0.6006
  149SAPE   C1116404   1.408   0.565   6.605 -0.1478  0.6170 -0.6561
  149SAPE  H11A16405   1.309   0.528   6.639 -0.5469 -0.0348 -2.4275
  149SAPE  H11B16406   1.469   0.544   6.696 -1.7741  2.2246  0.8879
  149SAPE     P16407   1.462   0.335   6.501  0.2932 -0.3244  0.1050
  149SAPE   O1316408   1.375   0.288   6.399 -0.3422  0.2461 -0.4830
  149SAPE   O1416409   1.607   0.303   6.495 -0.4907 -0.2243 -0.4936
  149SAPE   O1216410   1.460   0.493   6.489 -0.0373  0.4149 -0.0217
  149SAPE   O1116411   1.398   0.306   6.645  0.3022  0.3294 -0.1188
  149SAPE    C116412   1.261   0.250   6.657 -0.4791  0.0507  0.9864
  149SAPE    HA16413   1.190   0.336   6.650 -1.3179 -0.7655 -2.9809
  149SAPE    HB16414   1.235   0.173   6.582 -1.2600  0.6955  0.5759
  149SAPE    C216415   1.237   0.186   6.800 -0.3441  0.0821  1.2181
  149SAPE    HS16416   1.130   0.201   6.826 -0.5263  1.5708 -0.2087
  149SAPE   O2116417   1.316   0.251   6.903 -0.4629  0.1174  0.4965
  149SAPE   C2116418   1.293   0.390   6.917 -0.2234 -0.3248 -0.1295
  149SAPE   O2216419   1.213   0.457   6.853 -0.6937  0.0790  0.1066
  149SAPE   C2216420   1.381   0.444   7.029 -0.0669  0.5594 -0.1877
  149SAPE   H2R16421   1.481   0.458   6.982  1.7560 -1.2492  2.8364
  149SAPE   H2S16422   1.339   0.544   7.056  1.8987  1.1758  0.7445
  149SAPE    C316423   1.264   0.036   6.794 -0.0826 -0.2018  0.6341
  149SAPE    HX16424   1.364   0.015   6.752  0.3993 -0.0118  1.6631
  149SAPE    HY16425   1.190  -0.006   6.723  2.2588 -1.6179 -1.0959
  149SAPE   O3116426   1.249  -0.028   6.925 -0.0725 -0.5326  1.1286
  149SAPE   C3116427   1.353  -0.044   7.005 -0.2323 -0.2600  0.0050
  149SAPE   O3216428   1.462   0.011   6.989 -0.2926  0.4716  0.8431
  149SAPE   C3216429   1.310  -0.137   7.116  0.0841  0.2840 -0.3613
  149SAPE   H2X16430   1.291  -0.231   7.059  3.1506 -1.3872  1.1078
  149SAPE   H2Y16431   1.223  -0.092   7.168 -0.7520 -0.8398 -0.7547
  149SAPE   C2316432   1.407   0.355   7.151 -1.2433  0.7094 -0.3406
  149SAPE   H3R16433   1.391   0.252   7.114 -2.7278  1.4583 -1.8890
  149SAPE   H3S16434   1.327   0.374   7.226 -1.0935  0.4496 -0.1077
  149SAPE   C2416435   1.553   0.360   7.216  0.3755  0.2530 -0.4329
  149SAPE   H4R16436   1.638   0.336   7.149  0.2719 -0.6426 -0.2500
  149SAPE   H4S16437   1.559   0.290   7.302 -1.4353  0.2471 -0.2705
  149SAPE   C2516438   1.597   0.499   7.259  0.6813 -0.2205  0.2261
  149SAPE   H5R16439   1.619   0.575   7.182 -1.1195  1.3040  1.1148
  149SAPE   C2616440   1.612   0.548   7.384 -0.0935 -0.0814 -0.0840
  149SAPE   H6R16441   1.634   0.655   7.393 -1.6922  0.4655 -1.8900
  149SAPE   C2716442   1.591   0.466   7.509  0.3345  0.5453 -0.8577
  149SAPE   H7R16443   1.565   0.360   7.492  0.0888  0.2061  1.2627
  149SAPE   H7S16444   1.505   0.509   7.566  0.3238  0.1195 -0.5492
  149SAPE   C2816445   1.709   0.474   7.611 -0.3992  0.6090 -0.3108
  149SAPE   H8R16446   1.809   0.456   7.568 -0.7401 -2.2337 -0.1156
  149SAPE   C2916447   1.700   0.462   7.742  0.3792 -0.4986  0.5080
  149SAPE   H9R16448   1.790   0.468   7.806  0.1222 -0.6503  0.8904
  149SAPE  C21016449   1.579   0.457   7.826  0.0395  0.0097  0.0701
  149SAPE  H10R16450   1.485   0.428   7.775 -0.5725  0.1543  1.0893
  149SAPE  H10S16451   1.572   0.564   7.854  0.8215  0.2760 -0.6896
  149SAPE  C21116452   1.601   0.367   7.950  1.0760 -0.5587 -0.4609
  149SAPE  H11R16453   1.611   0.261   7.923  1.7615 -1.2323  2.1768
  149SAPE  C21216454   1.631   0.404   8.076  0.0078  0.2801 -0.1156
  149SAPE  H12R16455   1.647   0.326   8.152 -0.0541 -1.6237 -1.9610
  149SAPE  C21316456   1.657   0.546   8.116 -0.2188 -0.4124 -0.1655
  149SAPE  H13R16457   1.571   0.566   8.184  0.0253 -2.5615  0.8934
  149SAPE  H13S16458   1.654   0.623   8.037  0.7070 -1.4292 -1.2274
  149SAPE  C21416459   1.795   0.560   8.182  0.2826 -0.4423 -0.0934
  149SAPE  H14R16460   1.883   0.574   8.118 -0.8171  0.0587 -1.5539
  149SAPE  C21516461   1.806   0.585   8.314 -0.0034  0.4866  0.6710
  149SAPE  H15R16462   1.907   0.587   8.358  0.3845 -0.9622 -0.0620
  149SAPE  C21616463   1.701   0.599   8.427 -0.3379 -0.3630  0.6305
  149SAPE  H16R16464   1.599   0.630   8.396 -0.5480 -0.5494  1.1340
  149SAPE  H16S16465   1.725   0.692   8.481 -0.0817 -2.0267  3.5687
  149SAPE  C21716466   1.692   0.465   8.504  0.1598 -0.6917 -0.2069
  149SAPE  H17R16467   1.789   0.468   8.558  0.8294 -2.8074 -1.1916
  149SAPE  H17S16468   1.698   0.375   8.439 -3.9018 -0.5939 -1.0358
  149SAPE  C21816469   1.576   0.459   8.613 -0.4073 -0.3258 -0.2720
  149SAPE  H18R16470   1.615   0.381   8.681  4.6056  1.0426 -1.1662
  149SAPE  H18S16471   1.478   0.431   8.568  0.1876 -0.5967 -1.4603
  149SAPE  C21916472   1.548   0.585   8.698  0.3746  0.6026  0.0638
  149SAPE  H19R16473   1.467   0.558   8.769  1.0266 -1.4965  0.0839
  149SAPE  H19S16474   1.505   0.659   8.627 -5.4588 -1.7393  0.6107
  149SAPE  C22016475   1.670   0.636   8.771 -0.5466  0.0403  0.0226
  149SAPE  H20R16476   1.705   0.546   8.825 -0.1411  0.1143 -0.1094
  149SAPE  H20S16477   1.630   0.709   8.844  1.3214  1.2702 -0.0974
  149SAPE  H20T16478   1.749   0.680   8.706  0.8129  0.9798  2.2095
  149SAPE   C3316479   1.412  -0.163   7.228  0.3289 -0.2194 -0.3722
  149SAPE   H3X16480   1.452  -0.069   7.270  2.2411 -1.2206  0.1566
  149SAPE   H3Y16481   1.494  -0.224   7.184  1.4121  1.5332 -0.8467
  149SAPE   C3416482   1.353  -0.243   7.350 -0.4509 -0.0524  0.1761
  149SAPE   H4X16483   1.315  -0.338   7.306  0.8026 -1.0257  1.1189
  149SAPE   H4Y16484   1.277  -0.179   7.399 -0.0477  0.2853  0.3644
  149SAPE   C3516485   1.466  -0.281   7.452  0.0271 -0.3637 -0.1407
  149SAPE   H5X16486   1.520  -0.186   7.470 -1.1145  0.8997 -2.7550
  149SAPE   H5Y16487   1.532  -0.352   7.397  0.7239 -0.0498  0.2804
  149SAPE   C3616488   1.397  -0.344   7.576  0.1494  0.3048 -0.1671
  149SAPE   H6X16489   1.317  -0.408   7.534 -0.0119  0.8525 -0.7095
  149SAPE   H6Y16490   1.341  -0.269   7.636  1.0449  0.5089  0.4276
  149SAPE   C3716491   1.490  -0.431   7.666  0.2962  0.5533 -0.4520
  149SAPE   H7X16492   1.563  -0.483   7.600  0.6504  0.4507  0.0104
  149SAPE   H7Y16493   1.422  -0.504   7.714  2.4073 -0.9475  0.4210
  149SAPE   C3816494   1.565  -0.349   7.764 -0.0303 -0.0277 -0.7151
  149SAPE   H8X16495   1.501  -0.294   7.835 -0.8394 -2.0222  0.1817
  149SAPE   H8Y16496   1.634  -0.278   7.713  1.3221 -0.5168  0.3531
  149SAPE   C3916497   1.658  -0.448   7.836  0.5166  0.7026 -0.7560
  149SAPE   H9X16498   1.718  -0.505   7.763  1.3158 -0.0597  0.4581
  149SAPE   H9Y16499   1.606  -0.514   7.909 -0.1900  2.2849  0.2160
  149SAPE  C31016500   1.766  -0.378   7.912  0.8723 -0.0062  0.5018
  149SAPE  H10X16501   1.735  -0.316   7.999 -0.5364 -0.9578  0.7091
  149SAPE  H10Y16502   1.826  -0.319   7.841  1.0630 -1.6825 -0.7864
  149SAPE  C31116503   1.876  -0.481   7.962 -0.0474  0.3873 -0.1887
  149SAPE  H11X16504   1.899  -0.549   7.877 -0.4295  0.3854 -0.2949
  149SAPE  H11Y16505   1.815  -0.541   8.033  0.1156  0.2369 -0.1748
  149SAPE  C31216506   1.994  -0.413   8.027 -0.3253 -0.7651 -0.0278
  149SAPE  H12X16507   1.957  -0.335   8.097 -0.3450  0.6559 -1.5451
  149SAPE  H12Y16508   2.058  -0.369   7.947 -1.2180  0.5581 -0.0407
  149SAPE  C31316509   2.082  -0.514   8.101 -0.8554  0.3039  0.9197
  149SAPE  H13X16510   2.106  -0.592   8.025  2.7716 -0.1400  2.3221
  149SAPE  H13Y16511   2.009  -0.557   8.173 -3.5772  2.7945 -0.1446
  149SAPE  C31416512   2.216  -0.452   8.151 -0.3126 -0.5800  0.3428
  149SAPE  H14X16513   2.200  -0.342   8.150  0.5737 -0.4377  0.8305
  149SAPE  H14Y16514   2.296  -0.477   8.078 -1.0931 -1.9729 -0.0585
  149SAPE  C31516515   2.261  -0.504   8.289 -0.1134  0.0844  0.3617
  149SAPE  H15X16516   2.270  -0.614   8.278  0.2579  0.1804 -0.3574
  149SAPE  H15Y16517   2.181  -0.497   8.366 -0.4089 -1.9685  0.2984
  149SAPE  C31616518   2.391  -0.435   8.329 -0.7186 -0.6165  0.0581
  149SAPE  H16X16519   2.370  -0.326   8.326 -1.0599 -0.6170  1.5062
  149SAPE  H16Y16520   2.468  -0.446   8.249 -1.0778  2.9334 -0.9638
  149SAPE  C31716521   2.422  -0.468   8.473 -0.5874 -0.1947 -0.8064
  149SAPE  H17X16522   2.461  -0.571   8.484 -1.4974 -0.6133 -1.4455
  149SAPE  H17Y16523   2.331  -0.462   8.537  0.0457  2.0211  0.0167
  149SAPE  C31816524   2.530  -0.374   8.543  0.2762  0.4607 -0.6843
  149SAPE  H18X16525   2.524  -0.387   8.653 -2.6368  0.3474 -0.7886
  149SAPE  H18Y16526   2.517  -0.270   8.506  0.9828 -0.0783 -2.5644
  149SAPE  H18Z16527   2.620  -0.414   8.492 -1.7483  0.5143 -4.6873
  150SAPE     N16528   1.721   2.122   5.998  0.7576 -0.1206  0.6152
  150SAPE   HN116529   1.634   2.179   5.995 -0.6308 -2.1340  0.3136
  150SAPE   HN216530   1.799   2.167   5.946 -0.5364  2.7410  0.9527
  150SAPE   HN316531   1.703   2.029   5.955 -0.6725 -0.3834  1.6993
  150SAPE   C1216532   1.757   2.116   6.147 -0.5017 -0.0042  0.2543
  150SAPE  H12A16533   1.843   2.045   6.146 -0.6295 -0.1616 -0.2539
  150SAPE  H12B16534   1.674   2.066   6.201 -1.2558 -1.0809 -1.7627
  150SAPE   C1116535   1.789   2.255   6.206 -0.5874 -0.2405 -0.3310
  150SAPE  H11A16536   1.830   2.242   6.309  0.9307 -0.5214 -0.9448
  150SAPE  H11B16537   1.692   2.309   6.210 -1.1447 -1.2506  0.1271
  150SAPE     P16538   1.882   2.491   6.116  0.0753 -0.2716  0.4795
  150SAPE   O1316539   2.004   2.527   6.037  0.6059 -0.4565 -0.1007
  150SAPE   O1416540   1.758   2.542   6.056  0.5166  0.0616  0.2027
  150SAPE   O1216541   1.891   2.331   6.136  0.2746  0.4903 -0.0768
  150SAPE   O1116542   1.889   2.528   6.273  0.3927 -0.3152 -0.0600
  150SAPE    C116543   1.997   2.488   6.351 -0.4639  0.5835 -0.1784
  150SAPE    HA16544   1.985   2.381   6.378 -0.1263  0.2267 -1.3526
  150SAPE    HB16545   2.089   2.481   6.288 -1.5763  0.8329 -1.8918
  150SAPE    C216546   2.019   2.579   6.469  0.0518 -0.3340 -0.9435
  150SAPE    HS16547   2.100   2.535   6.531  1.2119  0.5590 -1.7831
  150SAPE   O2116548   1.908   2.582   6.562  0.2098  0.3027  0.1924
  150SAPE   C2116549   1.885   2.473   6.627  0.4721  0.2751 -0.1272
  150SAPE   O2216550   1.954   2.370   6.625  0.1730 -0.2163  0.5624
  150SAPE   C2216551   1.764   2.499   6.720  0.4324 -0.5875 -0.0456
  150SAPE   H2R16552   1.775   2.584   6.790 -2.8518  0.4977 -0.6879
  150SAPE   H2S16553   1.675   2.516   6.656  0.8555 -2.8823 -1.3637
  150SAPE    C316554   2.047   2.716   6.420 -0.4812 -0.4042  0.0051
  150SAPE    HX16555   1.958   2.754   6.364  0.9958  1.7576 -1.0436
  150SAPE    HY16556   2.133   2.713   6.351  1.5086  0.7798  2.2913
  150SAPE   O3116557   2.072   2.803   6.529  0.8259 -0.6249 -0.4668
  150SAPE   C3116558   2.196   2.803   6.580  0.0564  0.0364  0.2799
  150SAPE   O3216559   2.284   2.726   6.553  0.2115  0.0158 -0.8732
  150SAPE   C3216560   2.209   2.917   6.680  0.1617 -0.1389  0.3354
  150SAPE   H2X16561   2.107   2.922   6.724  0.2680 -1.4415  0.7823
  150SAPE   H2Y16562   2.218   3.014   6.626 -3.0333  0.8247  1.3218
  150SAPE   C2316563   1.726   2.365   6.783  0.0421 -0.7960  0.0149
  150SAPE   H3R16564   1.810   2.341   6.851 -0.5377 -0.0179  1.0420
  150SAPE   H3S16565   1.714   2.290   6.701  1.5602 -0.4642 -0.5402
  150SAPE   C2416566   1.592   2.373   6.853 -0.3135  0.2828  0.3382
  150SAPE   H4R16567   1.516   2.394   6.774  1.2748  2.1044 -0.8099
  150SAPE   H4S16568   1.593   2.460   6.922 -0.9589 -0.0572  0.7793
  150SAPE   C2516569   1.579   2.245   6.925 -0.6097 -0.3962 -0.7527
  150SAPE   H5R16570   1.578   2.156   6.860 -1.1688  0.6194 -2.1606
  150SAPE   C2616571   1.579   2.227   7.060 -1.0452  0.3432 -0.1691
  150SAPE   H6R16572   1.571   2.121   7.090 -1.3773  0.0378 -1.2777
  150SAPE   C2716573   1.588   2.331   7.170  0.0125  0.0570  0.6209
  150SAPE   H7R16574   1.629   2.428   7.136 -2.6259  0.6739 -1.0726
  150SAPE   H7S16575   1.672   2.295   7.233  0.6159 -0.9594 -0.7242
  150SAPE   C2816576   1.460   2.348   7.247  0.0096 -0.1502 -0.3839
  150SAPE   H8R16577   1.365   2.345   7.192  0.1287 -0.2758 -0.5871
  150SAPE   C2916578   1.457   2.360   7.380  0.0747  0.2381 -0.9062
  150SAPE   H9R16579   1.359   2.362   7.430  1.2460 -0.9908  1.6675
  150SAPE  C21016580   1.565   2.353   7.483 -0.3451  0.2927  1.0309
  150SAPE  H10R16581   1.648   2.287   7.453 -1.0291 -1.4659  2.7885
  150SAPE  H10S16582   1.527   2.322   7.583  1.1584 -0.9598  1.2508
  150SAPE  C21116583   1.635   2.488   7.492 -0.0776 -0.1428  0.0332
  150SAPE  H11R16584   1.661   2.520   7.390 -2.0944  0.2362 -0.4007
  150SAPE  C21216585   1.655   2.568   7.602 -0.8265  0.4364  0.6167
  150SAPE  H12R16586   1.736   2.643   7.590  0.6665 -1.0113  1.2265
  150SAPE  C21316587   1.610   2.539   7.747 -0.9788  0.2356 -0.0553
  150SAPE  H13R16588   1.501   2.555   7.760 -1.1582  0.3604 -1.5620
  150SAPE  H13S16589   1.652   2.612   7.819  0.4964  0.0721 -0.7173
  150SAPE  C21416590   1.646   2.398   7.791  0.2236 -0.3674  0.3776
  150SAPE  H14R16591   1.727   2.339   7.743 -1.6985 -2.3042 -0.6836
  150SAPE  C21516592   1.584   2.338   7.890 -0.2809 -0.4957  0.1590
  150SAPE  H15R16593   1.610   2.235   7.921 -0.4734 -0.5817  0.0329
  150SAPE  C21616594   1.466   2.388   7.970 -1.0216 -0.2924 -0.7237
  150SAPE  H16R16595   1.480   2.497   7.979 -2.2686 -0.2980  4.4613
  150SAPE  H16S16596   1.482   2.361   8.077  2.0876 -1.3787 -1.3426
  150SAPE  C21716597   1.314   2.359   7.935 -0.0391 -0.5631 -0.3016
  150SAPE  H17R16598   1.303   2.270   7.868 -0.9718 -0.7261  0.0452
  150SAPE  H17S16599   1.295   2.443   7.865  0.7540 -1.2551 -1.3978
  150SAPE  C21816600   1.217   2.368   8.047 -0.4203  0.0050 -0.5560
  150SAPE  H18R16601   1.244   2.464   8.096 -2.3683  0.1407  0.3646
  150SAPE  H18S16602   1.245   2.290   8.122 -0.2933  0.2896 -0.3043
  150SAPE  C21916603   1.062   2.353   8.028  0.4705  0.2298 -0.4311
  150SAPE  H19R16604   1.014   2.392   8.121  0.3467 -2.3224  0.6745
  150SAPE  H19S16605   1.030   2.247   8.019  0.3031  0.1370  0.9225
  150SAPE  C22016606   1.016   2.418   7.902 -0.2487 -0.3263  0.3819
  150SAPE  H20R16607   1.043   2.367   7.807 -0.8126 -1.3061  0.7315
  150SAPE  H20S16608   1.059   2.518   7.882 -0.3597 -0.5748 -1.2337
  150SAPE  H20T16609   0.905   2.417   7.895 -0.2472 -0.7211  0.3591
  150SAPE   C3316610   2.324   2.895   6.788  0.9358 -0.1988  0.1070
  150SAPE   H3X16611   2.415   2.848   6.744  0.8511  0.4653 -0.7893
  150SAPE   H3Y16612   2.287   2.819   6.860  2.8396 -0.4878  0.8364
  150SAPE   C3416613   2.342   3.012   6.882  0.1801 -0.2905 -0.3262
  150SAPE   H4X16614   2.237   3.020   6.919 -0.5250 -0.2772 -2.2126
  150SAPE   H4Y16615   2.371   3.103   6.825  0.8333  0.7397  1.5355
  150SAPE   C3516616   2.439   2.996   6.996 -0.7559  0.3041  0.3125
  150SAPE   H5X16617   2.483   3.092   7.029  1.2743 -0.1423 -0.9052
  150SAPE   H5Y16618   2.513   2.919   6.965 -1.3223  0.6395 -2.1087
  150SAPE   C3616619   2.375   2.932   7.125 -0.4832  0.5632  0.1931
  150SAPE   H6X16620   2.378   2.821   7.123 -1.3595  0.5369 -0.9672
  150SAPE   H6Y16621   2.267   2.959   7.121 -0.3289  1.2178  0.4014
  150SAPE   C3716622   2.437   2.969   7.257  0.6222 -0.2880 -0.2169
  150SAPE   H7X16623   2.424   3.077   7.279  0.1685 -0.2760 -0.5288
  150SAPE   H7Y16624   2.546   2.949   7.259  1.3473  3.0073  3.1886
  150SAPE   C3816625   2.367   2.903   7.377  0.5746  0.6537  0.2551
  150SAPE   H8X16626   2.359   2.798   7.342  0.3942  1.1572 -1.3100
  150SAPE   H8Y16627   2.262   2.939   7.390 -0.2232 -1.2725 -0.4135
  150SAPE   C3916628   2.440   2.920   7.510  0.0291 -0.3865  0.2770
  150SAPE   H9X16629   2.484   3.022   7.498  0.6916 -0.8983 -2.3002
  150SAPE   H9Y16630   2.523   2.846   7.517  0.5683  0.1900  0.1599
  150SAPE  C31016631   2.345   2.897   7.626  0.1361 -0.6193  0.0576
  150SAPE  H10X16632   2.296   2.797   7.624  1.0229 -1.1280  1.7368
  150SAPE  H10Y16633   2.265   2.974   7.617 -1.6259 -2.2308  1.1590
  150SAPE  C31116634   2.413   2.907   7.763 -0.5273 -0.3184  0.5046
  150SAPE  H11X16635   2.467   3.003   7.744 -3.6497  1.5101  0.1136
  150SAPE  H11Y16636   2.492   2.831   7.775  0.3837  0.7086  1.1099
  150SAPE  C31216637   2.326   2.910   7.882  0.0298  0.4177 -0.0900
  150SAPE  H12X16638   2.296   2.805   7.903 -1.0987  0.3899 -1.6709
  150SAPE  H12Y16639   2.235   2.966   7.851  2.2094  2.5250 -3.2905
  150SAPE  C31316640   2.396   2.983   7.996  0.4000 -0.3588  0.0440
  150SAPE  H13X16641   2.431   3.080   7.955 -1.6189 -0.4739 -2.0947
  150SAPE  H13Y16642   2.484   2.921   8.022  1.8119  1.2747 -0.6691
  150SAPE  C31416643   2.320   3.016   8.127  0.5016 -0.2451 -0.4518
  150SAPE  H14X16644   2.307   2.916   8.175  1.9745 -0.3632 -0.2572
  150SAPE  H14Y16645   2.217   3.056   8.114  1.4543  3.1027  1.2816
  150SAPE  C31516646   2.404   3.105   8.225 -0.6376 -0.3459  0.0302
  150SAPE  H15X16647   2.444   3.199   8.182 -2.5764  1.8793  2.7338
  150SAPE  H15Y16648   2.498   3.051   8.248  0.4222  2.3330  2.5817
  150SAPE  C31616649   2.324   3.130   8.355  0.0131 -0.2684  0.1761
  150SAPE  H16X16650   2.302   3.033   8.404 -1.6318  0.5969  1.2440
  150SAPE  H16Y16651   2.234   3.188   8.325  0.3966 -0.1796 -0.8322
  150SAPE  C31716652   2.400   3.220   8.454 -0.4114  0.2209 -0.0948
  150SAPE  H17X16653   2.477   3.284   8.405 -2.3751  3.2016  0.4306
  150SAPE  H17Y16654   2.439   3.155   8.535 -2.6432  1.3906  2.0758
  150SAPE  C31816655   2.299   3.320   8.521 -0.1664  0.4914  0.0449
  150SAPE  H18X16656   2.211   3.261   8.554 -1.2497  0.7717 -2.2000
  150SAPE  H18Y16657   2.263   3.399   8.453 -2.2535  0.7510  1.3765
  150SAPE  H18Z16658   2.348   3.363   8.611 -0.5995 -0.4936  0.7729
  151SAPE     N16659   1.832   5.689   6.109 -0.3157  0.0285 -0.9096
  151SAPE   HN116660   1.906   5.618   6.128 -0.6643 -0.2603 -0.6150
  151SAPE   HN216661   1.774   5.699   6.195 -0.9125  2.5949 -1.5237
  151SAPE   HN316662   1.772   5.664   6.028 -0.4312 -0.2533 -0.7407
  151SAPE   C1216663   1.901   5.817   6.093 -0.3450 -0.6018  0.2662
  151SAPE  H12A16664   1.824   5.897   6.105 -1.4463 -1.2320 -1.9274
  151SAPE  H12B16665   1.963   5.814   6.001  1.5236  1.2685  1.3857
  151SAPE   C1116666   2.007   5.821   6.210  0.6943 -0.8480 -0.1910
  151SAPE  H11A16667   1.958   5.836   6.308 -3.0860 -3.2879 -1.4860
  151SAPE  H11B16668   2.077   5.902   6.182  2.5591 -2.6611 -1.1169
  151SAPE     P16669   2.235   5.694   6.246  0.2583 -0.3124 -0.2864
  151SAPE   O1316670   2.291   5.578   6.170 -0.0351  0.3765 -0.5201
  151SAPE   O1416671   2.299   5.829   6.222  0.1184 -0.1109 -0.2374
  151SAPE   O1216672   2.081   5.699   6.221 -0.2457 -0.8565 -0.0370
  151SAPE   O1116673   2.246   5.667   6.403  0.3980 -0.6337  0.3129
  151SAPE    C116674   2.248   5.773   6.508  1.0418 -0.4882 -0.5764
  151SAPE    HA16675   2.167   5.843   6.479  1.2200 -0.4332 -0.9426
  151SAPE    HB16676   2.221   5.725   6.604 -0.6248 -0.6702 -1.1033
  151SAPE    C216677   2.383   5.845   6.532 -0.1109  1.0597  0.3107
  151SAPE    HS16678   2.405   5.895   6.435 -2.3065 -2.0439 -2.0312
  151SAPE   O2116679   2.485   5.754   6.573  0.4548  0.1177  0.1441
  151SAPE   C2116680   2.605   5.775   6.528 -0.9092 -0.2001  0.4640
  151SAPE   O2216681   2.645   5.862   6.456 -0.5963  0.3264 -0.3829
  151SAPE   C2216682   2.693   5.658   6.577 -0.2480 -0.2522 -0.2215
  151SAPE   H2R16683   2.766   5.708   6.645 -1.0199 -2.1442  2.1417
  151SAPE   H2S16684   2.642   5.586   6.644 -2.0827 -0.3256 -1.6226
  151SAPE    C316685   2.367   5.952   6.645  0.7779 -0.1476  0.1051
  151SAPE    HX16686   2.303   6.026   6.593 -0.4243  0.6058  2.5214
  151SAPE    HY16687   2.463   6.005   6.665 -0.1133  1.3408  0.5916
  151SAPE   O3116688   2.296   5.909   6.765  0.1713  0.3497  0.0706
  151SAPE   C3116689   2.369   5.893   6.868 -0.2071  0.1573 -0.7765
  151SAPE   O3216690   2.487   5.922   6.882 -0.3122 -0.2240 -0.3508
  151SAPE   C3216691   2.276   5.868   6.988 -0.2905 -0.3208  1.2555
  151SAPE   H2X16692   2.230   5.774   6.952  0.5228  0.1637 -1.3137
  151SAPE   H2Y16693   2.195   5.944   6.995  1.4479  1.9794 -1.3118
  151SAPE   C2316694   2.767   5.579   6.467  0.4817  1.0195 -1.0430
  151SAPE   H3R16695   2.720   5.607   6.371  1.7272  1.3377 -1.5807
  151SAPE   H3S16696   2.756   5.469   6.483  1.3055  0.9863 -0.6245
  151SAPE   C2416697   2.911   5.617   6.446 -0.5865  0.3909  0.4499
  151SAPE   H4R16698   2.925   5.712   6.389  3.1568 -0.1156  0.3200
  151SAPE   H4S16699   2.943   5.535   6.378 -1.8117 -1.4706  2.0076
  151SAPE   C2516700   2.991   5.595   6.569 -1.2413 -0.5945  0.1391
  151SAPE   H5R16701   3.014   5.493   6.601 -0.3067 -0.6152 -0.5805
  151SAPE   C2616702   3.049   5.694   6.639  0.5624  0.5954 -0.0287
  151SAPE   H6R16703   3.087   5.667   6.738 -1.1453  0.4326  0.6231
  151SAPE   C2716704   3.043   5.834   6.596 -0.3346  0.0338  0.3283
  151SAPE   H7R16705   2.939   5.868   6.581  1.0373  3.2329 -4.0195
  151SAPE   H7S16706   3.081   5.846   6.492 -0.2797  0.2625  0.3743
  151SAPE   C2816707   3.123   5.931   6.676  0.5698  0.5138 -0.1713
  151SAPE   H8R16708   3.170   5.901   6.771 -3.4145  2.2166  2.6219
  151SAPE   C2916709   3.144   6.057   6.650 -0.0768  0.7333 -0.1287
  151SAPE   H9R16710   3.186   6.128   6.723 -0.6790  2.7795 -1.6598
  151SAPE  C21016711   3.091   6.119   6.523 -0.3485  0.3318 -0.1333
  151SAPE  H10R16712   3.002   6.067   6.482  0.1442 -1.5058  0.9792
  151SAPE  H10S16713   3.163   6.116   6.438  0.9113  2.7212  0.7634
  151SAPE  C21116714   3.056   6.263   6.538  0.2525  0.0015  0.1905
  151SAPE  H11R16715   3.139   6.334   6.530  0.3033 -0.2517 -2.2672
  151SAPE  C21216716   2.932   6.320   6.553 -0.0190  0.3195  0.1759
  151SAPE  H12R16717   2.931   6.426   6.582  3.1498  0.7366 -0.8079
  151SAPE  C21316718   2.806   6.239   6.552  0.2585 -0.8512  0.2321
  151SAPE  H13R16719   2.803   6.172   6.464  0.5331 -1.4196  0.6511
  151SAPE  H13S16720   2.721   6.309   6.536 -0.1285 -1.5608 -0.9234
  151SAPE  C21416721   2.775   6.154   6.680 -0.6070  0.1889 -0.2038
  151SAPE  H14R16722   2.811   6.050   6.678 -0.8059  0.1249 -0.7019
  151SAPE  C21516723   2.697   6.189   6.783 -0.0863  0.7085  0.1262
  151SAPE  H15R16724   2.686   6.103   6.850  3.6005  0.6741  0.8901
  151SAPE  C21616725   2.623   6.317   6.811  0.0238  0.3290  0.5098
  151SAPE  H16R16726   2.542   6.317   6.735  0.7829 -1.5344 -0.3666
  151SAPE  H16S16727   2.686   6.408   6.809  0.5252  0.1883  4.0395
  151SAPE  C21716728   2.568   6.308   6.960 -0.1760 -0.1572  1.0027
  151SAPE  H17R16729   2.495   6.225   6.959 -1.9421  1.3591  0.3336
  151SAPE  H17S16730   2.518   6.407   6.972  1.1249  0.9678 -1.9928
  151SAPE  C21816731   2.682   6.301   7.062 -0.1722  0.1111  0.6057
  151SAPE  H18R16732   2.766   6.369   7.036  2.8737 -3.3115  0.5847
  151SAPE  H18S16733   2.724   6.199   7.073  0.2837  0.4888  2.9988
  151SAPE  C21916734   2.622   6.358   7.197 -0.2028 -0.3849 -0.1591
  151SAPE  H19R16735   2.553   6.282   7.239  0.5162 -1.2180 -0.4665
  151SAPE  H19S16736   2.567   6.452   7.175  0.9174  0.5087  0.7407
  151SAPE  C22016737   2.729   6.394   7.301 -0.9436 -0.0013  0.6461
  151SAPE  H20R16738   2.695   6.453   7.388  1.9504  2.0975  0.4782
  151SAPE  H20S16739   2.780   6.299   7.330 -0.5142 -0.6970 -2.0401
  151SAPE  H20T16740   2.799   6.459   7.245  1.1306 -1.7152  1.0992
  151SAPE   C3316741   2.355   5.858   7.120  0.4663  0.3734 -0.2405
  151SAPE   H3X16742   2.419   5.944   7.150  2.0933 -0.8143 -0.1598
  151SAPE   H3Y16743   2.420   5.767   7.124  1.8801  1.3761  0.5633
  151SAPE   C3416744   2.261   5.830   7.241 -0.4280  0.3984 -0.0669
  151SAPE   H4X16745   2.331   5.785   7.315  0.8248 -0.7814 -1.8950
  151SAPE   H4Y16746   2.185   5.753   7.213 -0.9613  1.3341 -1.2592
  151SAPE   C3516747   2.199   5.955   7.301 -0.0502 -0.4457  0.0114
  151SAPE   H5X16748   2.164   6.016   7.215 -0.4897 -0.0068  0.4905
  151SAPE   H5Y16749   2.278   6.019   7.346 -0.2543 -0.6840  0.7222
  151SAPE   C3616750   2.087   5.929   7.413 -0.5587  0.4568 -0.3117
  151SAPE   H6X16751   2.002   5.866   7.379  0.0549 -0.1722 -0.7248
  151SAPE   H6Y16752   2.027   6.021   7.428 -0.7654  0.3050 -0.1931
  151SAPE   C3716753   2.132   5.861   7.541  0.5898  0.4664  0.5088
  151SAPE   H7X16754   2.202   5.778   7.519  0.9487  0.8407  0.2123
  151SAPE   H7Y16755   2.049   5.803   7.587  1.3505 -2.4306 -1.5167
  151SAPE   C3816756   2.188   5.948   7.653  0.3675  0.3400  0.4760
  151SAPE   H8X16757   2.104   5.987   7.715 -0.1965  2.4545 -1.4949
  151SAPE   H8Y16758   2.256   6.027   7.615  1.9954 -1.5156 -0.6371
  151SAPE   C3916759   2.280   5.867   7.752 -0.0988 -0.5469 -0.4294
  151SAPE   H9X16760   2.364   5.832   7.689  0.7975  1.8806 -0.7052
  151SAPE   H9Y16761   2.219   5.792   7.806 -1.2611  2.6481  3.2106
  151SAPE  C31016762   2.334   5.966   7.858  0.0988 -0.6481 -0.6494
  151SAPE  H10X16763   2.249   6.007   7.917  0.0678  0.5495 -1.4772
  151SAPE  H10Y16764   2.387   6.050   7.808 -0.7747  0.2136 -0.1799
  151SAPE  C31116765   2.441   5.892   7.947 -0.5792 -0.2419  0.2492
  151SAPE  H11X16766   2.414   5.784   7.947 -1.6791  0.0235 -0.3241
  151SAPE  H11Y16767   2.428   5.939   8.047 -1.0471  1.0271 -0.3848
  151SAPE  C31216768   2.582   5.915   7.890 -0.1517  0.0783  0.7607
  151SAPE  H12X16769   2.592   6.025   7.881 -0.3091  0.0641  0.4062
  151SAPE  H12Y16770   2.599   5.868   7.791 -0.7612  0.5447  0.4265
  151SAPE  C31316771   2.702   5.868   7.973  0.1609  0.0858  0.4322
  151SAPE  H13X16772   2.801   5.865   7.922  0.1661  2.6748  0.1621
  151SAPE  H13Y16773   2.682   5.759   7.980  2.5707 -0.4288  0.0149
  151SAPE  C31416774   2.699   5.931   8.110  0.0848  0.0785  0.1129
  151SAPE  H14X16775   2.788   5.898   8.168  0.3563  2.4860  1.1932
  151SAPE  H14Y16776   2.603   5.909   8.162 -0.1087  2.0940  0.7109
  151SAPE  C31516777   2.715   6.086   8.114 -0.3419 -0.1108  0.2801
  151SAPE  H15X16778   2.635   6.143   8.062 -0.5176 -0.6492 -0.0476
  151SAPE  H15Y16779   2.800   6.117   8.050 -0.5455 -1.6620 -0.7827
  151SAPE  C31616780   2.748   6.136   8.260  0.1067  0.2534 -0.2747
  151SAPE  H16X16781   2.842   6.096   8.302  0.9840  1.0201 -1.4471
  151SAPE  H16Y16782   2.672   6.101   8.333  2.6071 -2.6357  1.1873
  151SAPE  C31716783   2.757   6.289   8.265  0.3018 -0.1804 -0.0150
  151SAPE  H17X16784   2.656   6.334   8.257 -0.5964 -1.7912  1.6943
  151SAPE  H17Y16785   2.804   6.328   8.172  0.2734  1.4009  0.5984
  151SAPE  C31816786   2.844   6.344   8.380 -0.0420 -0.3454 -0.1666
  151SAPE  H18X16787   2.950   6.314   8.372  0.4880  1.4922 -0.5015
  151SAPE  H18Y16788   2.805   6.299   8.474  1.8712  0.3059  0.9830
  151SAPE  H18Z16789   2.835   6.453   8.397 -1.0744 -0.6321  1.3377
  152SAPE     N16790   6.418   2.862   5.843 -0.0275 -0.9083 -0.0335
  152SAPE   HN116791   6.472   2.854   5.932 -1.7449 -0.0376  1.1505
  152SAPE   HN216792   6.436   2.774   5.792 -2.4190 -1.8938  0.6509
  152SAPE   HN316793   6.451   2.941   5.784 -1.2963 -1.7422 -1.9359
  152SAPE   C1216794   6.265   2.867   5.858  0.0204  0.5405 -0.1320
  152SAPE  H12A16795   6.225   2.764   5.856  1.4248 -0.2376  3.8967
  152SAPE  H12B16796   6.216   2.912   5.768 -1.1975 -0.2073  0.1460
  152SAPE   C1116797   6.216   2.918   5.996 -0.5526 -0.0411 -0.0773
  152SAPE  H11A16798   6.266   2.853   6.071 -1.1061  1.1333  1.3468
  152SAPE  H11B16799   6.106   2.912   6.007 -0.4643 -0.3840  0.6635
  152SAPE     P16800   6.280   3.126   6.138 -0.1960  0.0165  0.4813
  152SAPE   O1316801   6.427   3.152   6.160  0.7261  0.8142  0.3517
  152SAPE   O1416802   6.190   3.245   6.138 -0.2770 -0.1496 -0.2128
  152SAPE   O1216803   6.265   3.048   6.003  0.0578 -0.2398  0.4550
  152SAPE   O1116804   6.222   3.027   6.254  0.2414 -0.0697  0.2734
  152SAPE    C116805   6.311   2.947   6.343  0.2781 -0.4929  0.4029
  152SAPE    HA16806   6.258   2.851   6.364 -1.5896  0.2268 -0.7895
  152SAPE    HB16807   6.413   2.928   6.304  0.3448  0.6393  0.0028
  152SAPE    C216808   6.321   3.031   6.472 -0.0562  0.8556 -0.7038
  152SAPE    HS16809   6.386   3.120   6.453 -0.7746  1.5774  0.1104
  152SAPE   O2116810   6.368   2.947   6.586  0.0091  0.2817  0.3854
  152SAPE   C2116811   6.495   2.905   6.567 -0.8700 -0.3633  0.8432
  152SAPE   O2216812   6.573   2.955   6.486 -0.5679 -0.2758  0.1854
  152SAPE   C2216813   6.533   2.796   6.663 -0.2348 -0.2029  0.7882
  152SAPE   H2R16814   6.499   2.817   6.767 -1.1194  0.1163  0.4473
  152SAPE   H2S16815   6.493   2.699   6.628  2.0655 -0.1037 -2.6790
  152SAPE    C316816   6.182   3.081   6.521 -0.0914  0.4368  0.2490
  152SAPE    HX16817   6.128   2.989   6.551 -0.3686  0.7511  0.7188
  152SAPE    HY16818   6.127   3.123   6.434  0.5657  1.0715  0.1256
  152SAPE   O3116819   6.180   3.180   6.625  0.2453 -0.4873  0.3067
  152SAPE   C3116820   6.064   3.221   6.682 -0.7193  0.3610 -0.0622
  152SAPE   O3216821   5.957   3.171   6.657  0.7988  0.4723 -0.0452
  152SAPE   C3216822   6.095   3.324   6.795  0.6383  0.5850 -0.3632
  152SAPE   H2X16823   6.009   3.388   6.822  1.9192  2.0965  0.3482
  152SAPE   H2Y16824   6.167   3.393   6.747  0.9481  1.0026  0.6680
  152SAPE   C2316825   6.688   2.787   6.661 -0.3779 -0.0001 -0.6197
  152SAPE   H3R16826   6.724   2.872   6.722 -3.0991  0.2625  0.7292
  152SAPE   H3S16827   6.732   2.801   6.560  0.4856  2.6381  0.0373
  152SAPE   C2416828   6.742   2.650   6.712  0.2873  0.1280 -0.0268
  152SAPE   H4R16829   6.687   2.573   6.654 -1.2237  0.1435  1.3214
  152SAPE   H4S16830   6.702   2.627   6.812  1.5566 -2.3155 -0.0157
  152SAPE   C2516831   6.886   2.626   6.689 -0.5783 -0.1817  0.5662
  152SAPE   H5R16832   6.909   2.598   6.585 -0.4728 -0.2399  0.6053
  152SAPE   C2616833   6.981   2.616   6.790  0.4898  0.0672 -0.2023
  152SAPE   H6R16834   7.083   2.592   6.756  1.7566  2.4287  1.5638
  152SAPE   C2716835   6.957   2.640   6.936 -0.1119  0.0168 -0.2887
  152SAPE   H7R16836   6.874   2.711   6.959  0.9090  0.7531  1.2796
  152SAPE   H7S16837   7.042   2.699   6.976  1.1148 -2.2872  0.6813
  152SAPE   C2816838   6.931   2.517   7.014 -0.4908 -0.3581 -0.9365
  152SAPE   H8R16839   6.884   2.443   6.947  1.3351 -1.9938 -0.4831
  152SAPE   C2916840   6.968   2.486   7.142  0.3972  0.3397  0.0189
  152SAPE   H9R16841   6.926   2.392   7.180  0.7747 -0.7221 -2.0766
  152SAPE  C21016842   7.044   2.565   7.247 -0.5013 -0.6554  0.1223
  152SAPE  H10R16843   7.092   2.654   7.201  0.5427 -1.5990 -0.6651
  152SAPE  H10S16844   7.133   2.509   7.284 -0.0835 -0.2944 -0.3338
  152SAPE  C21116845   6.961   2.600   7.369  0.7291  0.0687 -0.3305
  152SAPE  H11R16846   6.859   2.636   7.348  0.6614 -0.3761 -0.8042
  152SAPE  C21216847   6.989   2.590   7.504 -0.3181  0.3173 -0.1583
  152SAPE  H12R16848   6.907   2.620   7.570 -0.7757 -0.6449 -0.2749
  152SAPE  C21316849   7.117   2.540   7.564 -0.4776  0.4433  0.4682
  152SAPE  H13R16850   7.197   2.540   7.487 -0.5592 -0.4191  0.3733
  152SAPE  H13S16851   7.100   2.431   7.575 -2.3680  0.8864  2.5662
  152SAPE  C21416852   7.181   2.604   7.692 -0.2984  0.0993  0.6214
  152SAPE  H14R16853   7.237   2.697   7.672 -0.2542 -0.0356  0.0926
  152SAPE  C21516854   7.172   2.561   7.815  0.0437  0.3721  0.0449
  152SAPE  H15R16855   7.201   2.638   7.888  0.0822  1.2726 -0.8958
  152SAPE  C21616856   7.089   2.444   7.863  0.1419  0.6562  0.1862
  152SAPE  H16R16857   7.149   2.361   7.908 -1.1615 -0.4065 -0.0045
  152SAPE  H16S16858   7.038   2.396   7.778  0.0756 -0.3878  0.7948
  152SAPE  C21716859   6.991   2.500   7.970  0.2360  0.1074  0.0775
  152SAPE  H17R16860   6.923   2.578   7.931  0.7504 -0.8913 -3.1162
  152SAPE  H17S16861   7.051   2.542   8.054  0.9027 -0.8968  0.1272
  152SAPE  C21816862   6.911   2.392   8.043 -0.7325  0.3481 -0.5403
  152SAPE  H18R16863   6.976   2.302   8.054 -0.8612  0.1260 -1.5290
  152SAPE  H18S16864   6.820   2.370   7.983 -0.8030 -0.5103 -0.1451
  152SAPE  C21916865   6.856   2.448   8.176  0.6834  0.2495  0.1153
  152SAPE  H19R16866   6.794   2.537   8.150  0.9545  0.1197 -1.0270
  152SAPE  H19S16867   6.938   2.491   8.237 -1.1149  0.0296  2.8739
  152SAPE  C22016868   6.779   2.352   8.273  0.0932 -0.2206  0.2136
  152SAPE  H20R16869   6.684   2.314   8.228  1.1989 -2.1937 -0.5744
  152SAPE  H20S16870   6.760   2.416   8.362  0.1028  0.7533 -0.4553
  152SAPE  H20T16871   6.842   2.266   8.303  1.4481  1.5374  2.7624
  152SAPE   C3316872   6.166   3.256   6.927  0.0664 -0.0413 -0.5655
  152SAPE   H3X16873   6.250   3.325   6.949  0.4490 -0.8108  0.4824
  152SAPE   H3Y16874   6.223   3.164   6.904  1.4364  0.4207  0.8156
  152SAPE   C3416875   6.072   3.238   7.051  0.0161 -0.1961 -0.6676
  152SAPE   H4X16876   6.006   3.156   7.014 -0.9817  1.2119 -2.1189
  152SAPE   H4Y16877   6.015   3.331   7.069  0.1142 -0.4146  0.9571
  152SAPE   C3516878   6.155   3.208   7.183 -0.0633  0.2620  0.4036
  152SAPE   H5X16879   6.250   3.168   7.141 -0.1953 -1.7065  1.8521
  152SAPE   H5Y16880   6.112   3.135   7.255  1.0329  0.6881  1.5392
  152SAPE   C3616881   6.197   3.342   7.245  0.5949 -0.4430 -0.1688
  152SAPE   H6X16882   6.109   3.410   7.257  0.4480  0.1028 -3.2939
  152SAPE   H6Y16883   6.244   3.401   7.163 -0.6744  0.5696 -0.2008
  152SAPE   C3716884   6.283   3.345   7.370  0.1628  0.8649  0.1685
  152SAPE   H7X16885   6.325   3.445   7.394  0.9703  0.2151  1.6052
  152SAPE   H7Y16886   6.370   3.276   7.372  0.4738  1.0431 -2.7252
  152SAPE   C3816887   6.204   3.317   7.501 -0.2631 -0.3606  0.0347
  152SAPE   H8X16888   6.176   3.209   7.501  1.4633 -0.8461  0.1902
  152SAPE   H8Y16889   6.110   3.376   7.494  0.9467  1.4300 -2.4542
  152SAPE   C3916890   6.278   3.360   7.629  0.2508  0.1595 -0.1695
  152SAPE   H9X16891   6.336   3.453   7.612  1.0626 -0.5697 -1.6010
  152SAPE   H9Y16892   6.348   3.275   7.645 -0.9821 -1.4356 -2.6672
  152SAPE  C31016893   6.202   3.387   7.759 -0.3646  0.1974 -0.0916
  152SAPE  H10X16894   6.120   3.313   7.754  0.3813 -0.5568 -3.5614
  152SAPE  H10Y16895   6.158   3.488   7.768  1.9484  1.2822 -0.0984
  152SAPE  C31116896   6.278   3.367   7.896 -0.4648  0.1140  0.0471
  152SAPE  H11X16897   6.200   3.376   7.975 -0.9591 -1.9029 -0.1668
  152SAPE  H11Y16898   6.356   3.446   7.901 -1.4546  1.0718  0.9793
  152SAPE  C31216899   6.328   3.222   7.909  0.5468 -0.1626  0.6140
  152SAPE  H12X16900   6.427   3.213   7.860  1.4381  2.0967  1.8611
  152SAPE  H12Y16901   6.263   3.149   7.855  0.9754  1.0745 -1.6757
  152SAPE  C31316902   6.333   3.170   8.057 -0.3335 -0.0112  0.1863
  152SAPE  H13X16903   6.365   3.064   8.053 -1.7485 -0.4837  0.9005
  152SAPE  H13Y16904   6.231   3.175   8.100 -0.5699  0.8395 -0.4492
  152SAPE  C31416905   6.421   3.242   8.153  0.0950 -0.5176  0.6103
  152SAPE  H14X16906   6.408   3.196   8.254 -2.7131  0.2678  0.6935
  152SAPE  H14Y16907   6.389   3.349   8.158 -0.1002 -0.4100 -1.7760
  152SAPE  C31516908   6.574   3.235   8.109  0.0288 -1.0610  0.0123
  152SAPE  H15X16909   6.591   3.254   8.000  0.4450 -0.0978  0.2384
  152SAPE  H15Y16910   6.614   3.134   8.130  0.7657 -0.2818  2.6895
  152SAPE  C31616911   6.651   3.344   8.168  0.3591 -0.2507 -0.0174
  152SAPE  H16X16912   6.759   3.320   8.173  0.3792 -0.1523  0.0204
  152SAPE  H16Y16913   6.612   3.366   8.270 -0.4798  1.4056 -0.6642
  152SAPE  C31716914   6.622   3.482   8.094  0.4275  0.0771 -0.2436
  152SAPE  H17X16915   6.512   3.490   8.080  0.6543  0.4378 -1.9879
  152SAPE  H17Y16916   6.667   3.480   7.992 -0.0546  1.3987 -0.5026
  152SAPE  C31816917   6.672   3.609   8.166  0.2826  0.2913  0.0096
  152SAPE  H18X16918   6.781   3.601   8.187  0.1321  2.0666  1.7562
  152SAPE  H18Y16919   6.624   3.610   8.266  1.4579  1.8252  0.6076
  152SAPE  H18Z16920   6.638   3.701   8.113 -0.9492 -0.3706 -0.3905
  153SAPE     N16921   3.597   3.225   6.338 -0.1678 -0.7535 -0.5979
  153SAPE   HN116922   3.591   3.161   6.420 -0.0522  1.0803  0.9055
  153SAPE   HN216923   3.506   3.272   6.319 -0.0447 -0.3016 -0.0779
  153SAPE   HN316924   3.617   3.160   6.258  0.8294 -1.2178  0.0145
  153SAPE   C1216925   3.716   3.317   6.336  0.2245 -0.1743  0.0583
  153SAPE  H12A16926   3.731   3.360   6.235 -0.4968  0.3960  0.1826
  153SAPE  H12B16927   3.809   3.266   6.367  1.3106  1.8263  0.2175
  153SAPE   C1116928   3.699   3.432   6.440 -0.1177 -0.3382 -0.1887
  153SAPE  H11A16929   3.788   3.495   6.419 -0.0560 -0.0191  0.9531
  153SAPE  H11B16930   3.712   3.401   6.546  2.6316 -0.3083 -0.4361
  153SAPE     P16931   3.557   3.616   6.331 -0.1314 -0.1162  0.1254
  153SAPE   O1316932   3.639   3.733   6.380 -0.3182  0.3860 -0.2623
  153SAPE   O1416933   3.575   3.562   6.196 -0.3409  0.9381 -0.1498
  153SAPE   O1216934   3.573   3.499   6.418 -0.1977 -0.2093 -0.4317
  153SAPE   O1116935   3.401   3.655   6.338  0.3876 -0.2796 -0.3400
  153SAPE    C116936   3.301   3.572   6.399 -0.2307 -0.2448 -0.5011
  153SAPE    HA16937   3.211   3.581   6.334  0.5449  0.4511 -1.5095
  153SAPE    HB16938   3.325   3.464   6.401 -0.7717 -0.4674 -2.9170
  153SAPE    C216939   3.262   3.627   6.537  0.3218  0.7623 -0.1382
  153SAPE    HS16940   3.246   3.737   6.534 -3.4015  0.6517  4.1632
  153SAPE   O2116941   3.381   3.595   6.620 -0.0903 -0.3775 -0.0560
  153SAPE   C2116942   3.424   3.686   6.703 -0.0107 -0.4595  0.0095
  153SAPE   O2216943   3.370   3.794   6.728 -0.1698 -0.2265  0.5521
  153SAPE   C2216944   3.565   3.636   6.764  0.8003  0.3899 -0.0782
  153SAPE   H2R16945   3.544   3.563   6.846  0.0779  0.6545 -0.0245
  153SAPE   H2S16946   3.621   3.579   6.687  0.5570  2.8813 -2.1961
  153SAPE    C316947   3.140   3.556   6.591 -0.8326 -1.0680 -0.2509
  153SAPE    HX16948   3.150   3.446   6.583  0.5990 -1.0073  0.4320
  153SAPE    HY16949   3.056   3.585   6.525  0.1411 -4.2046 -3.1243
  153SAPE   O3116950   3.134   3.603   6.728 -0.6281  0.3494 -0.2158
  153SAPE   C3116951   3.067   3.710   6.755  0.4303 -0.7741  0.8793
  153SAPE   O3216952   3.003   3.772   6.672  0.2995 -0.0410  0.0503
  153SAPE   C3216953   3.089   3.737   6.901  0.4653  0.1524 -0.4177
  153SAPE   H2X16954   3.198   3.753   6.909  0.4928  0.9620 -1.8685
  153SAPE   H2Y16955   3.059   3.646   6.957  1.1979  1.9072  3.1015
  153SAPE   C2316956   3.647   3.755   6.801 -0.3562 -0.8757 -0.2383
  153SAPE   H3R16957   3.647   3.831   6.720  0.7018 -0.2782  0.2893
  153SAPE   H3S16958   3.752   3.720   6.785 -0.7387 -1.8767 -0.6383
  153SAPE   C2416959   3.647   3.810   6.948 -0.2703 -0.4245 -0.0684
  153SAPE   H4R16960   3.551   3.858   6.978  0.1273  0.6419 -0.4566
  153SAPE   H4S16961   3.726   3.888   6.952  0.7058 -1.3672 -0.4895
  153SAPE   C2516962   3.699   3.702   7.040  0.0914  0.4029 -0.0441
  153SAPE   H5R16963   3.802   3.665   7.029  0.6799  1.5777  1.3430
  153SAPE   C2616964   3.622   3.650   7.139  0.2826  0.1383 -0.1849
  153SAPE   H6R16965   3.654   3.583   7.220  0.1828  0.8668  0.4803
  153SAPE   C2716966   3.485   3.694   7.182  0.0939  0.0484  0.6372
  153SAPE   H7R16967   3.471   3.802   7.159 -1.4916 -0.4306 -0.8634
  153SAPE   H7S16968   3.479   3.688   7.293 -0.8319  1.7216  0.7054
  153SAPE   C2816969   3.370   3.626   7.104  0.0883 -0.7875 -0.6660
  153SAPE   H8R16970   3.379   3.660   7.000  0.7753  2.2738  0.2947
  153SAPE   C2916971   3.286   3.543   7.162 -0.2437  0.1062  0.4872
  153SAPE   H9R16972   3.219   3.487   7.094 -0.5079  2.2309 -1.0959
  153SAPE  C21016973   3.300   3.501   7.306 -0.4670 -0.8806  0.0247
  153SAPE  H10R16974   3.204   3.452   7.332 -0.7498  0.3216  1.4090
  153SAPE  H10S16975   3.311   3.588   7.374  1.1710 -1.5629  0.6935
  153SAPE  C21116976   3.410   3.403   7.344  0.0052 -0.0919  0.2599
  153SAPE  H11R16977   3.432   3.337   7.259  1.0270  1.5904 -0.8351
  153SAPE  C21216978   3.501   3.413   7.449  0.2631 -0.4243 -0.1369
  153SAPE  H12R16979   3.590   3.348   7.450  0.4229 -0.2032  0.2265
  153SAPE  C21316980   3.509   3.505   7.567 -0.2034 -0.3448  0.0655
  153SAPE  H13R16981   3.485   3.449   7.661 -1.6160 -0.1928 -0.1760
  153SAPE  H13S16982   3.427   3.578   7.552  0.9647  0.9352 -0.2536
  153SAPE  C21416983   3.629   3.594   7.575  1.2086  0.0373  0.0512
  153SAPE  H14R16984   3.677   3.623   7.481 -0.4578 -1.9220 -1.5026
  153SAPE  C21516985   3.692   3.627   7.692  0.7331  0.0260  0.6862
  153SAPE  H15R16986   3.790   3.677   7.686  0.7079  0.0041  0.0641
  153SAPE  C21616987   3.656   3.597   7.831  0.3269 -0.3822  0.6531
  153SAPE  H16R16988   3.752   3.591   7.887  0.3148 -0.1911  0.6932
  153SAPE  H16S16989   3.597   3.503   7.837 -1.0014  0.4323  0.6384
  153SAPE  C21716990   3.580   3.701   7.914 -1.1014 -0.1242  0.2223
  153SAPE  H17R16991   3.472   3.701   7.892 -1.1056  0.4579  0.2103
  153SAPE  H17S16992   3.613   3.806   7.895 -0.3098 -0.4761 -0.4096
  153SAPE  C21816993   3.598   3.684   8.065  0.2259 -0.2874  0.0341
  153SAPE  H18R16994   3.553   3.778   8.105  0.1978 -1.1231  2.0815
  153SAPE  H18S16995   3.699   3.682   8.110  0.5217  2.3318 -0.3279
  153SAPE  C21916996   3.529   3.558   8.126  0.4469 -0.0307  0.0843
  153SAPE  H19R16997   3.569   3.466   8.079  0.0183  0.3903 -1.1468
  153SAPE  H19S16998   3.425   3.580   8.095 -0.1934 -0.0980  2.1101
  153SAPE  C22016999   3.551   3.543   8.281 -0.0202  0.1672 -0.3608
  153SAPE  H20R17000   3.652   3.564   8.323  0.4750 -1.9143 -0.4075
  153SAPE  H20S17001   3.521   3.447   8.327  1.7677 -0.9563 -1.4276
  153SAPE  H20T17002   3.481   3.612   8.333 -1.0657 -2.1817  1.5528
  153SAPE   C3317003   3.012   3.858   6.954  0.9931 -1.0467  0.2373
  153SAPE   H3X17004   3.017   3.864   7.065 -0.1419  2.4475  0.2145
  153SAPE   H3Y17005   2.903   3.846   6.932  1.1812 -0.1514 -1.3355
  153SAPE   C3417006   3.068   3.994   6.903 -0.5839 -0.8096 -0.1820
  153SAPE   H4X17007   2.992   4.075   6.911 -0.8359 -0.9313 -1.2942
  153SAPE   H4Y17008   3.084   3.987   6.794 -0.9595 -0.9577 -0.2287
  153SAPE   C3517009   3.194   4.044   6.981  0.0018  0.6909  0.1752
  153SAPE   H5X17010   3.263   4.107   6.921 -2.9833  3.2025 -0.8300
  153SAPE   H5Y17011   3.262   3.965   7.021  1.1761  1.3993 -0.3654
  153SAPE   C3617012   3.157   4.123   7.108 -0.0582 -0.4896 -0.3520
  153SAPE   H6X17013   3.085   4.061   7.165 -0.4005  1.8137  1.8997
  153SAPE   H6Y17014   3.108   4.218   7.076  0.9596  0.1661 -0.0437
  153SAPE   C3717015   3.274   4.149   7.204  0.5358 -1.0799  0.7705
  153SAPE   H7X17016   3.277   4.246   7.257 -0.8062 -1.4609  1.5921
  153SAPE   H7Y17017   3.372   4.143   7.152  0.6191 -2.2417  1.0351
  153SAPE   C3817018   3.269   4.055   7.330  1.0126  0.2577  0.4114
  153SAPE   H8X17019   3.236   3.962   7.278  1.1484  1.2818 -1.6045
  153SAPE   H8Y17020   3.199   4.091   7.408  0.0307  0.8477 -0.7152
  153SAPE   C3917021   3.407   4.044   7.396 -0.2387  0.1770  0.0798
  153SAPE   H9X17022   3.427   4.143   7.442  1.8514  0.4749 -1.3323
  153SAPE   H9Y17023   3.483   4.007   7.324  1.8781 -0.4662  2.4882
  153SAPE  C31017024   3.407   3.939   7.509  0.0872 -0.0159  0.1113
  153SAPE  H10X17025   3.509   3.900   7.530 -0.0488 -0.1204  0.5783
  153SAPE  H10Y17026   3.345   3.855   7.471 -0.7096  0.3030  0.6901
  153SAPE  C31117027   3.337   4.003   7.631 -0.9163  0.2091 -0.1624
  153SAPE  H11X17028   3.283   3.926   7.690  2.3753  0.0277  3.0176
  153SAPE  H11Y17029   3.278   4.092   7.601  0.0081  0.4132 -1.4948
  153SAPE  C31217030   3.443   4.056   7.737  0.1160  0.4290 -0.3886
  153SAPE  H12X17031   3.522   4.120   7.693 -0.0965  0.5131 -0.6510
  153SAPE  H12Y17032   3.499   3.981   7.797  2.2112  2.1309 -0.0925
  153SAPE  C31317033   3.372   4.143   7.854 -0.2861 -0.5586 -0.1530
  153SAPE  H13X17034   3.328   4.237   7.815  1.3437  0.2716 -0.0673
  153SAPE  H13Y17035   3.447   4.182   7.926 -1.2436 -1.1629  1.2451
  153SAPE  C31417036   3.244   4.082   7.932 -0.5204  0.1843 -0.4985
  153SAPE  H14X17037   3.163   4.056   7.861  0.2792  0.7590 -1.6605
  153SAPE  H14Y17038   3.204   4.167   7.992  0.5436  0.7196 -0.5214
  153SAPE  C31517039   3.290   3.959   8.017  0.5709 -0.3172 -0.5538
  153SAPE  H15X17040   3.372   3.999   8.080  2.0229  0.5403 -2.8236
  153SAPE  H15Y17041   3.336   3.878   7.955 -0.7643 -1.1823 -0.4395
  153SAPE  C31617042   3.170   3.909   8.102  0.2091 -0.2068 -0.7410
  153SAPE  H16X17043   3.092   3.886   8.026  0.8060 -1.0719 -1.1052
  153SAPE  H16Y17044   3.142   3.969   8.191  0.7017 -1.1993  0.0977
  153SAPE  C31717045   3.209   3.778   8.178  0.1571 -0.0367 -0.0199
  153SAPE  H17X17046   3.293   3.811   8.244  0.3842  2.3524 -1.3840
  153SAPE  H17Y17047   3.247   3.696   8.112 -1.0236 -0.1072 -0.6386
  153SAPE  C31817048   3.105   3.715   8.271 -0.1348  0.4368  0.0067
  153SAPE  H18X17049   3.027   3.662   8.211  1.2845 -0.8675 -0.7471
  153SAPE  H18Y17050   3.061   3.792   8.338  2.3733  0.2020  2.0853
  153SAPE  H18Z17051   3.148   3.642   8.344  0.6980  0.8350 -0.0786
  154SAPE     N17052   1.978   3.535   6.000 -0.3562  0.1662 -0.9958
  154SAPE   HN117053   1.975   3.609   6.073 -0.1779 -0.0504 -0.7705
  154SAPE   HN217054   2.015   3.574   5.911 -1.4674  1.7577 -0.7949
  154SAPE   HN317055   1.881   3.509   5.971 -0.3456  0.7705 -1.5949
  154SAPE   C1217056   2.049   3.409   6.037 -0.0817  0.1907 -0.2237
  154SAPE  H12A17057   2.026   3.384   6.143  0.8278 -1.4786 -0.3840
  154SAPE  H12B17058   2.158   3.428   6.037 -0.1916  1.0706  1.5576
  154SAPE   C1117059   2.014   3.292   5.952  0.4905 -0.2722  0.3310
  154SAPE  H11A17060   2.070   3.201   5.982  0.0994 -0.4262  0.6069
  154SAPE  H11B17061   2.042   3.314   5.847 -3.1453  0.9408 -0.5229
  154SAPE     P17062   1.814   3.155   6.048  0.3777  0.1258 -0.2299
  154SAPE   O1317063   1.676   3.125   6.003  0.1816  0.2166 -0.1182
  154SAPE   O1417064   1.905   3.042   6.062  0.1358  0.0843  1.0828
  154SAPE   O1217065   1.871   3.266   5.947 -0.6615 -0.9558  0.0894
  154SAPE   O1117066   1.809   3.237   6.179 -0.2671 -0.2398  0.3360
  154SAPE    C117067   1.710   3.232   6.274 -0.5262  0.3822 -0.1768
  154SAPE    HA17068   1.708   3.322   6.339 -0.9151  0.2887 -0.0533
  154SAPE    HB17069   1.609   3.215   6.230 -1.7797 -1.8571  3.1555
  154SAPE    C217070   1.729   3.105   6.368 -0.0037  0.0781 -1.1740
  154SAPE    HS17071   1.700   3.005   6.328  0.3465 -0.8046  0.6792
  154SAPE   O2117072   1.637   3.124   6.474 -0.3105  0.0496 -0.1445
  154SAPE   C2117073   1.636   3.041   6.582  0.3813  0.3772  0.2686
  154SAPE   O2217074   1.692   2.931   6.581 -0.2857 -0.6717 -0.8452
  154SAPE   C2217075   1.532   3.087   6.682 -0.5076 -0.1437 -0.4904
  154SAPE   H2R17076   1.490   3.187   6.659  1.6811  1.2471  1.2281
  154SAPE   H2S17077   1.445   3.018   6.668  0.0369 -0.9919  0.2234
  154SAPE    C317078   1.876   3.088   6.428 -0.5319 -0.4978  0.2537
  154SAPE    HX17079   1.943   3.070   6.341  1.1888  3.2796  0.5999
  154SAPE    HY17080   1.880   3.010   6.507  1.0136  1.8942  2.7454
  154SAPE   O3117081   1.907   3.214   6.494 -0.0087 -0.0315  0.1086
  154SAPE   C3117082   2.034   3.254   6.491 -0.8077  0.0078  0.4238
  154SAPE   O3217083   2.126   3.183   6.447  0.3757  0.1055  0.2747
  154SAPE   C3217084   2.031   3.405   6.522 -0.6786  0.5101  0.3408
  154SAPE   H2X17085   1.958   3.413   6.605 -0.2105 -2.8618  1.2445
  154SAPE   H2Y17086   1.993   3.445   6.426  1.3274 -0.3360 -0.8672
  154SAPE   C2317087   1.566   3.074   6.830 -0.3769  0.7348  0.4490
  154SAPE   H3R17088   1.584   2.965   6.842 -0.3509  0.4732 -1.7146
  154SAPE   H3S17089   1.475   3.111   6.882 -1.3409  0.0783 -0.7168
  154SAPE   C2417090   1.681   3.156   6.885  0.1393  0.1108  0.5121
  154SAPE   H4R17091   1.700   3.248   6.827  1.7218 -2.7151 -3.9376
  154SAPE   H4S17092   1.768   3.088   6.877 -0.3423 -0.4004 -0.5994
  154SAPE   C2517093   1.664   3.177   7.039  0.8173  0.6965  0.0072
  154SAPE   H5R17094   1.576   3.235   7.068  0.7317  0.2268  0.7219
  154SAPE   C2617095   1.737   3.131   7.142 -0.0049 -0.7414 -0.3709
  154SAPE   H6R17096   1.700   3.155   7.243  3.0556  0.1223  0.6653
  154SAPE   C2717097   1.861   3.046   7.129 -0.3723 -0.2035  0.4059
  154SAPE   H7R17098   1.947   3.094   7.180 -0.2834  1.0372 -0.8443
  154SAPE   H7S17099   1.886   3.018   7.024  0.7143  0.3238  0.5121
  154SAPE   C2817100   1.835   2.911   7.204  0.0076  0.0200 -0.3072
  154SAPE   H8R17101   1.780   2.834   7.149 -0.0206 -1.2750  1.4331
  154SAPE   C2917102   1.870   2.875   7.330  0.2388  0.2216 -0.0432
  154SAPE   H9R17103   1.859   2.769   7.355  0.5680  0.4221  0.9846
  154SAPE  C21017104   1.934   2.960   7.432 -0.4534 -0.6228 -1.1278
  154SAPE  H10R17105   2.029   3.007   7.398 -1.1362  1.4915 -0.2973
  154SAPE  H10S17106   1.967   2.897   7.517 -0.8585  0.2646 -0.2867
  154SAPE  C21117107   1.842   3.068   7.495  0.2154  0.7219  1.1424
  154SAPE  H11R17108   1.766   3.111   7.429  0.1147 -0.0679  0.7280
  154SAPE  C21217109   1.855   3.122   7.613  0.4212 -0.8190  0.1405
  154SAPE  H12R17110   1.779   3.195   7.645  0.1306 -0.6923 -0.7967
  154SAPE  C21317111   1.971   3.095   7.702 -0.1997 -0.5888 -0.2771
  154SAPE  H13R17112   1.991   3.193   7.752 -0.8184 -0.3831 -0.4281
  154SAPE  H13S17113   2.063   3.066   7.646  0.1946  3.2663 -1.9609
  154SAPE  C21417114   1.938   2.990   7.804  0.3742 -0.6964  0.0497
  154SAPE  H14R17115   1.967   2.886   7.782  0.0351 -0.6923 -0.4379
  154SAPE  C21517116   1.873   3.018   7.921 -0.1227  0.1491 -0.5545
  154SAPE  H15R17117   1.833   2.944   7.992  0.7270  0.6345  0.4509
  154SAPE  C21617118   1.834   3.155   7.967 -0.0226  0.0813  0.5607
  154SAPE  H16R17119   1.753   3.193   7.901 -0.6795 -2.0832  0.0351
  154SAPE  H16S17120   1.925   3.218   7.954 -1.2855  1.7910 -0.4647
  154SAPE  C21717121   1.787   3.167   8.112 -0.1552  0.2937  0.0963
  154SAPE  H17R17122   1.694   3.108   8.128  0.1459 -0.5667 -1.1814
  154SAPE  H17S17123   1.771   3.274   8.135 -0.8300  0.2427 -0.1175
  154SAPE  C21817124   1.898   3.131   8.214  0.3240  0.6153 -0.3351
  154SAPE  H18R17125   1.970   3.216   8.210  0.6073  0.4056  0.1845
  154SAPE  H18S17126   1.952   3.044   8.171  1.0692  1.3154 -0.8667
  154SAPE  C21917127   1.846   3.100   8.352 -0.2188  0.2600  0.3143
  154SAPE  H19R17128   1.925   3.040   8.401  1.6230  0.2371 -2.4644
  154SAPE  H19S17129   1.758   3.034   8.336  0.6972 -0.2456 -3.3101
  154SAPE  C22017130   1.803   3.221   8.430  0.3195  0.6191  0.1687
  154SAPE  H20R17131   1.808   3.310   8.364  1.0499  0.9395  0.6523
  154SAPE  H20S17132   1.869   3.238   8.517  0.8224  3.0461 -0.6036
  154SAPE  H20T17133   1.700   3.200   8.466  0.5584 -1.3093 -0.1418
  154SAPE   C3317134   2.168   3.464   6.565 -0.3361  0.0006 -0.5977
  154SAPE   H3X17135   2.158   3.574   6.573 -1.4463 -0.2368  2.8046
  154SAPE   H3Y17136   2.249   3.442   6.493 -0.4832  0.0676 -0.7846
  154SAPE   C3417137   2.204   3.395   6.698  0.1363  0.3726  0.4470
  154SAPE   H4X17138   2.310   3.426   6.709  0.6173 -0.3060 -1.8646
  154SAPE   H4Y17139   2.212   3.285   6.688  0.3728  0.1623  2.5357
  154SAPE   C3517140   2.116   3.432   6.819  0.3976  0.5519  0.1515
  154SAPE   H5X17141   2.015   3.389   6.803  0.5060  0.0037  0.8934
  154SAPE   H5Y17142   2.104   3.542   6.820  0.1712  0.5542  2.4427
  154SAPE   C3617143   2.185   3.390   6.952  0.4917 -0.7422 -0.0421
  154SAPE   H6X17144   2.275   3.452   6.973 -0.7567  0.9018  0.6631
  154SAPE   H6Y17145   2.218   3.286   6.931  1.1333 -0.7421  0.8831
  154SAPE   C3717146   2.090   3.385   7.071 -0.3212  0.3779  0.1825
  154SAPE   H7X17147   2.019   3.303   7.050  0.4732  0.1358 -1.7765
  154SAPE   H7Y17148   2.020   3.469   7.091  1.2946  1.4290  1.7639
  154SAPE   C3817149   2.162   3.351   7.197 -0.1710 -0.7775  0.0108
  154SAPE   H8X17150   2.235   3.268   7.188 -1.5078 -2.0258  0.1602
  154SAPE   H8Y17151   2.100   3.317   7.283 -0.6558  1.8236  0.7861
  154SAPE   C3917152   2.243   3.472   7.242  0.2423 -0.6827  0.0979
  154SAPE   H9X17153   2.190   3.564   7.211  1.6923  0.2555  0.3151
  154SAPE   H9Y17154   2.338   3.468   7.184 -1.1623 -0.8772 -2.3163
  154SAPE  C31017155   2.278   3.489   7.393 -0.9030 -0.7960  0.0265
  154SAPE  H10X17156   2.195   3.514   7.462 -0.0874  1.8730  0.1525
  154SAPE  H10Y17157   2.354   3.570   7.388 -0.0264 -1.6101 -0.1561
  154SAPE  C31117158   2.358   3.371   7.448  0.4566  0.7069  0.0918
  154SAPE  H11X17159   2.417   3.328   7.364 -0.7378  0.1481 -0.4833
  154SAPE  H11Y17160   2.283   3.292   7.469  0.6537  0.1617 -1.1296
  154SAPE  C31217161   2.436   3.403   7.573  0.5874  0.0605 -0.3843
  154SAPE  H12X17162   2.370   3.462   7.640  0.6184 -1.7105  1.2775
  154SAPE  H12Y17163   2.526   3.465   7.554  0.6146  0.9360  2.1654
  154SAPE  C31317164   2.492   3.281   7.648 -0.3413 -0.1313  0.5298
  154SAPE  H13X17165   2.533   3.208   7.574  0.6421  1.6194 -0.7426
  154SAPE  H13Y17166   2.409   3.237   7.706 -1.0491  0.8054  0.2349
  154SAPE  C31417167   2.605   3.318   7.740  0.4369  0.1583 -0.8501
  154SAPE  H14X17168   2.696   3.356   7.689  0.2802  3.1819  0.8910
  154SAPE  H14Y17169   2.633   3.228   7.799 -1.7873  0.1744  0.3403
  154SAPE  C31517170   2.564   3.428   7.844 -0.1481  0.5219  0.1270
  154SAPE  H15X17171   2.538   3.517   7.783  1.1917  2.3388  2.0401
  154SAPE  H15Y17172   2.658   3.454   7.898  2.1378 -2.8507 -1.7835
  154SAPE  C31617173   2.458   3.394   7.952 -0.0862  0.2405 -0.5057
  154SAPE  H16X17174   2.507   3.333   8.032  0.7521  3.1655  1.3556
  154SAPE  H16Y17175   2.371   3.343   7.905  0.5060  0.0145 -1.3898
  154SAPE  C31717176   2.397   3.525   8.003 -0.2865  0.5095 -0.0082
  154SAPE  H17X17177   2.356   3.591   7.924 -2.9779  0.8250  1.5303
  154SAPE  H17Y17178   2.480   3.582   8.051 -0.3064 -1.2962  2.3745
  154SAPE  C31817179   2.278   3.516   8.092  0.0214  0.1583 -0.2766
  154SAPE  H18X17180   2.195   3.477   8.029  1.1530 -0.1149 -1.6454
  154SAPE  H18Y17181   2.251   3.615   8.134 -1.5343 -0.0630 -0.6856
  154SAPE  H18Z17182   2.289   3.443   8.175 -2.3544 -1.5551 -1.3245
  155SAPE     N17183   0.102   4.653   6.461 -0.0196  0.5106 -0.3164
  155SAPE   HN117184   0.090   4.736   6.523 -1.9594  0.7191 -0.9015
  155SAPE   HN217185   0.011   4.648   6.411  0.2396 -0.2631 -0.7232
  155SAPE   HN317186   0.109   4.579   6.534  0.1907  0.6990 -0.1432
  155SAPE   C1217187   0.223   4.684   6.377  0.3713 -0.5200  0.9142
  155SAPE  H12A17188   0.311   4.680   6.445  0.4501 -0.2059  0.8347
  155SAPE  H12B17189   0.210   4.792   6.354 -0.0472 -0.6561  0.4851
  155SAPE   C1117190   0.237   4.594   6.251 -0.0252 -0.3879  0.3563
  155SAPE  H11A17191   0.330   4.620   6.197 -0.9483  1.2990 -0.5337
  155SAPE  H11B17192   0.160   4.613   6.173  0.9133  1.2265 -0.2249
  155SAPE     P17193   0.380   4.377   6.308 -0.1780 -0.0761  0.3339
  155SAPE   O1317194   0.424   4.340   6.173  0.3842  0.1652  0.1341
  155SAPE   O1417195   0.472   4.462   6.387  0.0585  0.2438 -0.6767
  155SAPE   O1217196   0.243   4.457   6.283  0.3504  0.8754  0.4233
  155SAPE   O1117197   0.354   4.237   6.386 -0.2902 -0.4034 -0.2854
  155SAPE    C117198   0.228   4.219   6.452 -0.6117 -1.0018  0.9046
  155SAPE    HA17199   0.159   4.305   6.444  1.0967  0.4594  1.2997
  155SAPE    HB17200   0.176   4.134   6.403 -0.9488  0.3244 -1.1431
  155SAPE    C217201   0.253   4.200   6.610  0.2107 -0.5227 -0.5594
  155SAPE    HS17202   0.151   4.205   6.654 -0.1290 -0.3479 -1.3486
  155SAPE   O2117203   0.347   4.291   6.670 -0.6689 -0.9793 -0.0053
  155SAPE   C2117204   0.313   4.417   6.675 -0.5273 -0.4660  0.1299
  155SAPE   O2217205   0.210   4.466   6.636 -0.2236 -0.6545  0.8525
  155SAPE   C2217206   0.433   4.503   6.730 -0.1875 -0.2995  0.9742
  155SAPE   H2R17207   0.474   4.449   6.818 -1.3480  0.3219  1.9314
  155SAPE   H2S17208   0.504   4.513   6.645 -1.6688 -0.2599 -0.3108
  155SAPE    C317209   0.295   4.054   6.647  0.3000 -0.0144 -0.3327
  155SAPE    HX17210   0.384   4.035   6.583  1.1667 -2.3086  1.4220
  155SAPE    HY17211   0.215   3.982   6.621  0.7503 -0.8160  0.4433
  155SAPE   O3117212   0.314   4.047   6.790 -0.2811  0.5504 -0.1240
  155SAPE   C3117213   0.436   4.060   6.830  0.0433 -0.1507  0.2929
  155SAPE   O3217214   0.533   4.095   6.765 -0.0303 -0.1493  0.7487
  155SAPE   C3217215   0.440   4.034   6.981 -0.3819 -0.6379 -0.5435
  155SAPE   H2X17216   0.385   3.941   7.008  2.5192 -1.5652  2.9956
  155SAPE   H2Y17217   0.394   4.121   7.033  2.9204  1.4366 -0.8462
  155SAPE   C2317218   0.396   4.642   6.790 -0.4379 -0.3348 -0.1070
  155SAPE   H3R17219   0.331   4.701   6.721  1.4470  1.5842 -0.3383
  155SAPE   H3S17220   0.491   4.698   6.795  0.4093 -1.6629 -0.9847
  155SAPE   C2417221   0.343   4.641   6.933  0.1359  0.2374 -1.0633
  155SAPE   H4R17222   0.372   4.738   6.978 -0.7011 -0.1084  0.3062
  155SAPE   H4S17223   0.397   4.562   6.991 -1.9083 -1.6104 -1.5369
  155SAPE   C2517224   0.196   4.618   6.963 -0.3786 -0.0399  0.2001
  155SAPE   H5R17225   0.136   4.703   6.929 -0.8068 -0.7238 -0.8185
  155SAPE   C2617226   0.137   4.509   7.016  0.1784 -0.3427  0.0001
  155SAPE   H6R17227   0.031   4.522   7.041  0.5480  2.9397  0.3146
  155SAPE   C2717228   0.209   4.387   7.071  0.4272  0.6265  0.0524
  155SAPE   H7R17229   0.310   4.409   7.113  0.5797 -0.6443  0.3950
  155SAPE   H7S17230   0.218   4.311   6.991 -2.1954 -1.7079  1.7937
  155SAPE   C2817231   0.116   4.310   7.171 -0.7485 -0.0103 -0.1376
  155SAPE   H8R17232   0.012   4.302   7.138 -1.0706 -0.7587  1.0107
  155SAPE   C2917233   0.147   4.260   7.285 -0.1004  0.4109 -0.4827
  155SAPE   H9R17234   0.067   4.212   7.344  0.0491  0.6953 -0.0378
  155SAPE  C21017235   0.280   4.253   7.348 -0.2270 -0.9418  0.0254
  155SAPE  H10R17236   0.359   4.309   7.294  1.1636 -1.8763  1.0169
  155SAPE  H10S17237   0.301   4.143   7.347 -0.0660 -0.9173 -1.3160
  155SAPE  C21117238   0.270   4.302   7.490  0.2583  0.0870 -0.9047
  155SAPE  H11R17239   0.212   4.237   7.557  0.9226  0.2606 -0.1572
  155SAPE  C21217240   0.337   4.397   7.546 -0.1923  0.0904  0.1093
  155SAPE  H12R17241   0.335   4.407   7.655  1.4503  0.0956  0.1657
  155SAPE  C21317242   0.428   4.492   7.474  0.0790 -0.1529  0.7423
  155SAPE  H13R17243   0.404   4.596   7.506  1.5259 -0.2100  2.1460
  155SAPE  H13S17244   0.414   4.494   7.364  0.4750  2.6197  0.6704
  155SAPE  C21417245   0.572   4.468   7.501 -0.3945 -0.5516 -0.1344
  155SAPE  H14R17246   0.601   4.500   7.602 -1.2272  2.9543 -0.8962
  155SAPE  C21517247   0.671   4.450   7.411 -0.2744 -0.1115 -0.0025
  155SAPE  H15R17248   0.772   4.414   7.434 -0.6415 -0.9730  0.3122
  155SAPE  C21617249   0.658   4.437   7.258  0.2540 -0.3054  0.1113
  155SAPE  H16R17250   0.588   4.517   7.226 -1.7689 -1.6098  1.0475
  155SAPE  H16S17251   0.596   4.349   7.232 -1.5148  0.5930  1.0465
  155SAPE  C21717252   0.784   4.451   7.176  0.5328 -0.3473  0.0208
  155SAPE  H17R17253   0.846   4.363   7.203 -1.4160 -1.5444  0.8619
  155SAPE  H17S17254   0.850   4.539   7.193  1.7080 -1.2365  0.1376
  155SAPE  C21817255   0.746   4.448   7.024 -0.0407  0.0837 -0.2068
  155SAPE  H18R17256   0.682   4.536   7.003  0.8333  0.1530 -2.8697
  155SAPE  H18S17257   0.677   4.360   7.019 -0.9401  0.8365 -1.8588
  155SAPE  C21917258   0.857   4.425   6.921 -0.3537  0.4884  0.2029
  155SAPE  H19R17259   0.906   4.326   6.938 -0.2001  0.1402 -1.9606
  155SAPE  H19S17260   0.929   4.508   6.935  0.3559 -0.2853  1.2665
  155SAPE  C22017261   0.795   4.410   6.784 -0.3343 -0.0135  0.7373
  155SAPE  H20R17262   0.746   4.504   6.750  1.1019  0.5619  0.1711
  155SAPE  H20S17263   0.722   4.326   6.787 -1.6295  0.8570 -2.4114
  155SAPE  H20T17264   0.883   4.392   6.718 -0.6663  2.8590 -0.6517
  155SAPE   C3317265   0.586   4.007   7.039 -0.2856  0.0580  0.0789
  155SAPE   H3X17266   0.654   4.074   6.981 -2.0487  1.3697 -0.5703
  155SAPE   H3Y17267   0.623   3.905   7.014  0.3286  0.4232 -0.5702
  155SAPE   C3417268   0.593   4.024   7.191  0.5062  0.1770 -0.3547
  155SAPE   H4X17269   0.504   3.963   7.214 -0.1611  0.6927 -1.4890
  155SAPE   H4Y17270   0.565   4.126   7.225  0.5081 -0.6529  2.3467
  155SAPE   C3517271   0.723   3.977   7.260 -0.4587  0.0659  0.0957
  155SAPE   H5X17272   0.800   4.055   7.247 -1.2368  0.7234 -0.7016
  155SAPE   H5Y17273   0.752   3.883   7.206 -1.6174  0.1189 -0.6544
  155SAPE   C3617274   0.708   3.958   7.414 -0.0265 -0.5270  0.4217
  155SAPE   H6X17275   0.814   3.946   7.444  0.8858 -0.7740 -2.5235
  155SAPE   H6Y17276   0.643   3.872   7.439 -0.9403 -0.3411 -1.1369
  155SAPE   C3717277   0.637   4.072   7.481  0.0844 -0.1934  0.0030
  155SAPE   H7X17278   0.539   4.082   7.429 -0.5430  0.8917  1.3333
  155SAPE   H7Y17279   0.694   4.166   7.464  0.0760 -0.0644  0.6818
  155SAPE   C3817280   0.621   4.070   7.630  0.0621  0.0283  0.3518
  155SAPE   H8X17281   0.633   4.173   7.670 -0.5792 -0.0613  0.7974
  155SAPE   H8Y17282   0.697   4.005   7.678 -0.3783  0.3568  1.5229
  155SAPE   C3917283   0.486   4.023   7.675 -0.1126  0.2795  0.7053
  155SAPE   H9X17284   0.464   3.915   7.661 -0.8067  0.3554  1.1809
  155SAPE   H9Y17285   0.405   4.070   7.616  0.9072  1.7368  0.4219
  155SAPE  C31017286   0.453   4.049   7.818 -0.7341 -0.0051  0.5461
  155SAPE  H10X17287   0.349   4.017   7.837 -1.1033 -1.7845 -3.3684
  155SAPE  H10Y17288   0.450   4.160   7.827 -0.4635  0.3961 -2.7921
  155SAPE  C31117289   0.545   3.981   7.926  0.4697  0.1886  0.1007
  155SAPE  H11X17290   0.645   4.028   7.919  1.5171 -1.9603 -0.0521
  155SAPE  H11Y17291   0.544   3.870   7.916 -2.9775  0.1869 -0.9643
  155SAPE  C31217292   0.480   4.012   8.069  0.3940  0.0145  0.4617
  155SAPE  H12X17293   0.376   3.974   8.072 -0.5707  2.2259 -1.1277
  155SAPE  H12Y17294   0.475   4.123   8.080 -1.6235 -0.2077  2.4767
  155SAPE  C31317295   0.559   3.960   8.189  0.1814 -0.1914  0.4280
  155SAPE  H13X17296   0.668   3.981   8.178 -0.2234  2.7801  1.1328
  155SAPE  H13Y17297   0.549   3.849   8.191  0.9104 -0.2628  0.4237
  155SAPE  C31417298   0.508   4.005   8.319 -0.2131 -0.4342  0.1205
  155SAPE  H14X17299   0.549   3.940   8.399 -2.8004 -0.8994  1.1693
  155SAPE  H14Y17300   0.400   3.984   8.307 -0.3427 -0.6013  1.4499
  155SAPE  C31517301   0.523   4.153   8.354  0.4027 -0.2347  0.1856
  155SAPE  H15X17302   0.486   4.170   8.458 -0.0378  1.9089 -0.2936
  155SAPE  H15Y17303   0.452   4.207   8.289 -0.0637 -0.6413  0.3467
  155SAPE  C31617304   0.667   4.209   8.358  0.3392 -0.6834  0.0851
  155SAPE  H16X17305   0.714   4.207   8.258 -0.9721  2.6120 -0.7190
  155SAPE  H16Y17306   0.718   4.142   8.431 -2.0854 -2.5697  0.1832
  155SAPE  C31717307   0.679   4.356   8.414  0.1273 -0.9807 -0.8242
  155SAPE  H17X17308   0.608   4.425   8.364 -1.1369 -0.4653  1.5278
  155SAPE  H17Y17309   0.784   4.391   8.403 -0.2750  0.6904  0.3028
  155SAPE  C31817310   0.637   4.346   8.565  0.0906  0.1011  0.6804
  155SAPE  H18X17311   0.656   4.447   8.608 -0.3174  0.0381  1.0161
  155SAPE  H18Y17312   0.678   4.253   8.611 -1.4471 -1.5296 -1.0669
  155SAPE  H18Z17313   0.528   4.327   8.557  0.2607 -1.9103  2.2134
  156SAPE     N17314   4.957   5.003   6.373  0.4307 -0.0047  0.2195
  156SAPE   HN117315   4.998   4.940   6.445 -2.1777 -0.1489  1.7001
  156SAPE   HN217316   4.874   4.952   6.336  0.7463  0.4768 -1.1958
  156SAPE   HN317317   5.022   5.021   6.294 -0.7615  0.3107 -0.7228
  156SAPE   C1217318   4.915   5.135   6.437 -0.9966  0.5176  0.1555
  156SAPE  H12A17319   4.814   5.122   6.483 -1.5030  0.9095 -0.8152
  156SAPE  H12B17320   4.894   5.199   6.348  0.1234  0.4887 -0.1476
  156SAPE   C1117321   5.030   5.181   6.530 -0.2267 -0.3753  0.1306
  156SAPE  H11A17322   5.035   5.101   6.608  2.3358 -1.5775 -1.1426
  156SAPE  H11B17323   5.008   5.279   6.576 -0.4884  1.0095 -2.7413
  156SAPE     P17324   5.271   5.288   6.510  0.2250  0.5372  0.1323
  156SAPE   O1317325   5.397   5.230   6.452 -0.0607 -0.5356  0.2798
  156SAPE   O1417326   5.240   5.425   6.464 -0.4693  0.2572 -0.2617
  156SAPE   O1217327   5.155   5.193   6.460  0.2288 -0.0426  0.3921
  156SAPE   O1117328   5.272   5.294   6.661 -1.1053 -0.0436 -0.6409
  156SAPE    C117329   5.290   5.180   6.749  0.1118 -0.3992  0.6507
  156SAPE    HA17330   5.210   5.198   6.825 -0.0819  2.4143 -0.1177
  156SAPE    HB17331   5.281   5.085   6.693  1.6449  0.6238 -1.4553
  156SAPE    C217332   5.437   5.166   6.813  0.1151  0.3045  0.1421
  156SAPE    HS17333   5.440   5.062   6.851 -0.6017  0.4766  0.7079
  156SAPE   O2117334   5.447   5.245   6.936  0.4547  0.3689 -0.0467
  156SAPE   C2117335   5.508   5.205   7.049 -0.0530  0.2265 -0.2682
  156SAPE   O2217336   5.559   5.090   7.066 -0.0430 -0.1935 -0.2418
  156SAPE   C2217337   5.482   5.312   7.159 -0.6747  0.9589  0.1696
  156SAPE   H2R17338   5.510   5.408   7.109 -1.8153  2.0571  1.5505
  156SAPE   H2S17339   5.372   5.303   7.171 -1.0908  2.2860 -2.0525
  156SAPE    C317340   5.548   5.193   6.718  1.0162  0.1976  0.0448
  156SAPE    HX17341   5.527   5.298   6.688 -1.4737 -0.3147 -0.2819
  156SAPE    HY17342   5.525   5.121   6.636  1.0179 -0.3052  0.4784
  156SAPE   O3117343   5.677   5.180   6.778 -0.7982  0.1552  0.1299
  156SAPE   C3117344   5.733   5.063   6.771  0.2684  0.8144  0.4506
  156SAPE   O3217345   5.687   4.959   6.720  0.0893  0.4278 -0.1574
  156SAPE   C3217346   5.875   5.066   6.838  0.0924  0.1937 -0.1442
  156SAPE   H2X17347   5.929   5.138   6.774 -0.2783 -1.0371 -1.8951
  156SAPE   H2Y17348   5.921   4.966   6.823  0.5504  0.1807  1.1980
  156SAPE   C2317349   5.560   5.276   7.292  0.0289  0.5337  0.5626
  156SAPE   H3R17350   5.556   5.368   7.355  1.1139  0.8773  0.1451
  156SAPE   H3S17351   5.666   5.266   7.264 -0.2833 -0.4361 -0.2938
  156SAPE   C2417352   5.524   5.151   7.363 -0.1414  0.0561 -0.0341
  156SAPE   H4R17353   5.547   5.061   7.301 -0.4490  0.4213 -0.6842
  156SAPE   H4S17354   5.413   5.145   7.360 -0.3380  2.6302 -2.6724
  156SAPE   C2517355   5.591   5.132   7.493  1.3272 -0.2097 -0.5918
  156SAPE   H5R17356   5.692   5.089   7.493  1.0779 -0.8662  0.5031
  156SAPE   C2617357   5.534   5.169   7.613 -0.7185 -0.3234  0.0864
  156SAPE   H6R17358   5.608   5.175   7.694  2.2736  0.8728 -2.5356
  156SAPE   C2717359   5.401   5.235   7.630  0.0600  0.1764  0.0466
  156SAPE   H7R17360   5.332   5.154   7.662  0.2522 -0.4206 -0.9757
  156SAPE   H7S17361   5.358   5.252   7.529 -0.5658 -0.5930  0.1775
  156SAPE   C2817362   5.388   5.352   7.723  0.0159 -0.0681  0.0906
  156SAPE   H8R17363   5.365   5.450   7.679 -0.0326  0.5339  1.4109
  156SAPE   C2917364   5.385   5.351   7.856 -1.5052  0.3257 -0.1723
  156SAPE   H9R17365   5.352   5.441   7.909 -0.9481  2.2901 -2.9176
  156SAPE  C21017366   5.396   5.226   7.939  0.1705 -0.0722  0.6337
  156SAPE  H10R17367   5.460   5.246   8.027 -1.5647  0.4739  1.8033
  156SAPE  H10S17368   5.456   5.148   7.887 -0.8518 -0.5076  0.0681
  156SAPE  C21117369   5.264   5.162   7.965  0.2381  0.9589 -0.2295
  156SAPE  H11R17370   5.217   5.096   7.891 -0.4537  0.5795  0.5373
  156SAPE  C21217371   5.198   5.202   8.081 -0.4541  0.4268 -0.3133
  156SAPE  H12R17372   5.096   5.161   8.085  0.4930 -2.2203 -1.3077
  156SAPE  C21317373   5.243   5.300   8.190  0.1277  0.5866  0.3255
  156SAPE  H13R17374   5.309   5.378   8.146 -0.2244  0.7976  0.1653
  156SAPE  H13S17375   5.316   5.240   8.249  1.6837  1.2831 -0.8512
  156SAPE  C21417376   5.134   5.371   8.266  0.3776 -0.5621 -0.4108
  156SAPE  H14R17377   5.032   5.378   8.226  0.3220  2.6905  0.0750
  156SAPE  C21517378   5.154   5.426   8.383 -0.3646  0.8308  0.2296
  156SAPE  H15R17379   5.079   5.496   8.421  0.5983  2.3890 -0.6457
  156SAPE  C21617380   5.294   5.450   8.433  0.5319  0.2675  0.3594
  156SAPE  H16R17381   5.299   5.555   8.469  0.3492  0.6538 -0.6981
  156SAPE  H16S17382   5.374   5.431   8.358  0.1957 -0.8376  0.2593
  156SAPE  C21717383   5.328   5.360   8.548  0.4845 -0.3231 -0.7023
  156SAPE  H17R17384   5.295   5.257   8.524 -1.0496 -0.0349  0.0343
  156SAPE  H17S17385   5.275   5.385   8.643  0.8743  0.4284 -0.6799
  156SAPE  C21817386   5.482   5.350   8.567 -0.2097 -0.0122 -0.1639
  156SAPE  H18R17387   5.514   5.454   8.588  2.1272 -1.0786  2.1448
  156SAPE  H18S17388   5.517   5.305   8.472  1.4101  0.5865  0.1242
  156SAPE  C21917389   5.528   5.250   8.675  0.0940  0.3185 -0.2997
  156SAPE  H19R17390   5.544   5.151   8.628  2.9712 -0.5208  2.1281
  156SAPE  H19S17391   5.444   5.244   8.747  0.9523  0.1197  0.7012
  156SAPE  C22017392   5.649   5.300   8.755  0.3157  0.5615 -0.5563
  156SAPE  H20R17393   5.620   5.395   8.805 -1.9260  0.3963 -1.3994
  156SAPE  H20S17394   5.741   5.304   8.694  0.7042 -0.9736 -0.1139
  156SAPE  H20T17395   5.653   5.225   8.837  0.0126  0.2321 -0.8382
  156SAPE   C3317396   5.859   5.130   6.982  0.0728  0.4823 -0.3861
  156SAPE   H3X17397   5.797   5.074   7.056 -0.9197 -0.3922 -1.8057
  156SAPE   H3Y17398   5.799   5.223   6.967  0.6425  0.8297 -0.5167
  156SAPE   C3417399   6.000   5.181   7.028  0.2183  0.2869 -0.0385
  156SAPE   H4X17400   6.047   5.247   6.952  1.6767  0.5469  1.0446
  156SAPE   H4Y17401   6.078   5.102   7.030  2.5542  2.3974 -1.9790
  156SAPE   C3517402   5.994   5.261   7.165  0.1497  0.0360  0.2900
  156SAPE   H5X17403   5.914   5.338   7.158  1.8737  1.8248 -0.9197
  156SAPE   H5Y17404   6.085   5.320   7.188  0.2311  0.1359 -0.2731
  156SAPE   C3617405   5.987   5.151   7.271 -0.2358  0.3359 -0.0849
  156SAPE   H6X17406   6.061   5.069   7.254 -0.2347  0.4206 -0.5003
  156SAPE   H6Y17407   5.890   5.097   7.260  0.5866 -1.4655  1.0693
  156SAPE   C3717408   6.012   5.203   7.414  0.1311  0.0291 -0.3165
  156SAPE   H7X17409   5.933   5.275   7.446 -0.2089 -0.0035 -1.0807
  156SAPE   H7Y17410   6.111   5.254   7.412 -0.0398  0.4606  1.0224
  156SAPE   C3817411   6.041   5.079   7.507 -0.0932  0.0478  0.6080
  156SAPE   H8X17412   6.126   5.033   7.453  0.7291  1.2668  0.8155
  156SAPE   H8Y17413   5.958   5.006   7.495  0.8650 -1.1325  0.8791
  156SAPE   C3917414   6.080   5.116   7.649  0.2828 -0.3744  0.5332
  156SAPE   H9X17415   6.170   5.180   7.641  0.8482 -1.2235 -0.1406
  156SAPE   H9Y17416   6.109   5.027   7.709  0.8622  0.1505  1.0455
  156SAPE  C31017417   5.969   5.186   7.736  0.3742  0.1921  0.0497
  156SAPE  H10X17418   5.876   5.125   7.740  0.5165 -0.2831 -2.2794
  156SAPE  H10Y17419   5.941   5.284   7.692  1.0196  0.4544  0.2126
  156SAPE  C31117420   6.018   5.216   7.877  0.3099 -0.9261 -0.4630
  156SAPE  H11X17421   5.960   5.299   7.923  1.2109 -0.8306  0.5346
  156SAPE  H11Y17422   6.125   5.245   7.873  0.9641 -2.5340  2.3740
  156SAPE  C31217423   5.979   5.099   7.971  0.5429  0.0191 -0.2465
  156SAPE  H12X17424   6.036   5.112   8.066  2.4024 -0.7152 -1.2207
  156SAPE  H12Y17425   6.002   5.000   7.928 -0.3908  0.1823 -1.1487
  156SAPE  C31317426   5.827   5.095   7.997 -0.1131 -0.2122 -0.2536
  156SAPE  H13X17427   5.772   5.043   7.916 -0.1906 -0.3772 -0.0948
  156SAPE  H13Y17428   5.791   5.200   8.000 -3.4399 -1.1977 -1.4281
  156SAPE  C31417429   5.796   5.027   8.132  0.2652 -0.5381  0.0392
  156SAPE  H14X17430   5.865   5.070   8.207 -1.1632 -1.5693  2.0350
  156SAPE  H14Y17431   5.816   4.918   8.118 -0.2365 -0.5918 -0.2911
  156SAPE  C31517432   5.649   5.046   8.174  0.1836  0.3629 -0.2973
  156SAPE  H15X17433   5.577   5.041   8.090 -0.7683  1.7727  0.4003
  156SAPE  H15Y17434   5.638   5.149   8.214  2.8970  0.7548 -0.3130
  156SAPE  C31617435   5.598   4.939   8.277  0.3685  0.3927 -0.4221
  156SAPE  H16X17436   5.656   4.943   8.372 -0.6082  1.0190  0.1664
  156SAPE  H16Y17437   5.590   4.835   8.240 -0.8081  0.9595 -1.8713
  156SAPE  C31717438   5.447   4.968   8.305  0.8501 -0.0999 -0.0744
  156SAPE  H17X17439   5.386   4.962   8.212  0.9205 -0.3090 -0.1062
  156SAPE  H17Y17440   5.436   5.067   8.353 -0.2775 -0.4477  0.4200
  156SAPE  C31817441   5.394   4.864   8.410 -0.0552  0.0610 -0.0764
  156SAPE  H18X17442   5.292   4.882   8.451  1.2170  0.3718  3.2200
  156SAPE  H18Y17443   5.467   4.853   8.492  0.3803 -0.3840 -0.5134
  156SAPE  H18Z17444   5.388   4.766   8.358  0.3712  0.3722 -0.7232
  157SAPE     N17445   5.037   2.080   6.356 -0.2993 -0.3699  0.4808
  157SAPE   HN117446   5.053   2.179   6.327  0.9829 -0.6234  0.2444
  157SAPE   HN217447   5.120   2.020   6.337 -1.1562 -1.5209  0.2764
  157SAPE   HN317448   4.950   2.047   6.309  1.3703 -3.1981 -0.9431
  157SAPE   C1217449   5.002   2.071   6.501  0.1674 -0.0161 -0.0838
  157SAPE  H12A17450   4.940   2.157   6.535  0.4773 -0.5830  2.0742
  157SAPE  H12B17451   5.100   2.087   6.552 -0.5182  1.5602  0.8065
  157SAPE   C1117452   4.970   1.924   6.530 -0.0918  0.0425  0.3775
  157SAPE  H11A17453   4.973   1.911   6.640 -4.7827 -0.6047  0.5910
  157SAPE  H11B17454   5.055   1.868   6.486  0.3553  1.6466 -0.9220
  157SAPE     P17455   4.800   1.737   6.449  0.1205  0.0107 -0.1110
  157SAPE   O1317456   4.652   1.721   6.471  0.4164 -0.0980 -0.1317
  157SAPE   O1417457   4.854   1.704   6.321  0.0431  0.2285  0.4358
  157SAPE   O1217458   4.843   1.887   6.475 -0.1959  0.1144 -0.4718
  157SAPE   O1117459   4.880   1.653   6.555 -0.5470 -0.9157  0.1810
  157SAPE    C117460   4.842   1.515   6.573  0.1511 -0.0238 -0.4709
  157SAPE    HA17461   4.734   1.514   6.600  0.7729  0.1607  2.3762
  157SAPE    HB17462   4.854   1.465   6.475 -0.9722  0.2481 -0.7627
  157SAPE    C217463   4.917   1.437   6.681  0.6430 -0.6572  0.2436
  157SAPE    HS17464   4.890   1.329   6.684  2.5746 -1.1573  0.4984
  157SAPE   O2117465   4.906   1.500   6.813  0.3230  0.0617  0.4435
  157SAPE   C2117466   4.786   1.503   6.864  0.2307  0.2774  1.0202
  157SAPE   O2217467   4.694   1.435   6.825  0.2969 -0.1529 -0.2463
  157SAPE   C2217468   4.791   1.593   6.976  0.7609 -0.0359  0.2753
  157SAPE   H2R17469   4.893   1.588   7.020  1.5296 -1.2606 -1.5171
  157SAPE   H2S17470   4.767   1.695   6.940 -1.1742 -0.2577  0.8115
  157SAPE    C317471   5.068   1.448   6.642  0.5486  0.6716  0.4268
  157SAPE    HX17472   5.103   1.553   6.635  0.7732  0.5888  0.2899
  157SAPE    HY17473   5.064   1.409   6.538 -0.9014 -2.0684  1.4303
  157SAPE   O3117474   5.154   1.382   6.733 -1.0677  0.0872  0.6283
  157SAPE   C3117475   5.150   1.252   6.728 -0.2339 -0.7881  0.0967
  157SAPE   O3217476   5.101   1.180   6.642 -0.1172 -0.0526  0.8905
  157SAPE   C3217477   5.212   1.201   6.858  0.2705  0.7407  0.1905
  157SAPE   H2X17478   5.206   1.285   6.931 -0.0955  1.4078 -0.5890
  157SAPE   H2Y17479   5.312   1.158   6.839 -0.4012  0.0384 -2.0477
  157SAPE   C2317480   4.702   1.556   7.094  0.6334  0.4896  0.8806
  157SAPE   H3R17481   4.732   1.630   7.170  2.4138  2.3521 -1.4520
  157SAPE   H3S17482   4.716   1.451   7.128 -0.3049  0.5156  1.3750
  157SAPE   C2417483   4.547   1.565   7.076  0.2652  0.0172 -0.2235
  157SAPE   H4R17484   4.506   1.550   7.179 -0.0300 -2.2432 -0.6070
  157SAPE   H4S17485   4.513   1.470   7.028  0.9395 -0.5074  0.3102
  157SAPE   C2517486   4.487   1.684   7.010  0.5210  0.1717  0.4141
  157SAPE   H5R17487   4.450   1.677   6.907 -0.4436 -3.8021  0.8801
  157SAPE   C2617488   4.457   1.799   7.075 -0.0838  0.5110 -0.8151
  157SAPE   H6R17489   4.402   1.872   7.014 -0.1106 -0.3362 -1.8427
  157SAPE   C2717490   4.482   1.839   7.213  0.3657 -0.7771 -0.4251
  157SAPE   H7R17491   4.558   1.767   7.252  0.7895  1.3509  3.1115
  157SAPE   H7S17492   4.392   1.841   7.277  0.8299  0.8576  0.2180
  157SAPE   C2817493   4.549   1.973   7.235 -0.0372 -0.0360 -0.3922
  157SAPE   H8R17494   4.615   2.020   7.161  2.2874 -2.5879 -0.0942
  157SAPE   C2917495   4.537   2.050   7.344  0.4290 -0.8007  0.4189
  157SAPE   H9R17496   4.604   2.138   7.345 -0.3734 -0.1410 -0.9662
  157SAPE  C21017497   4.453   2.026   7.468 -0.0535 -0.7849  1.0462
  157SAPE  H10R17498   4.502   1.958   7.542  1.4639 -0.8667  0.0077
  157SAPE  H10S17499   4.364   1.964   7.443 -0.3762 -0.5751  1.6467
  157SAPE  C21117500   4.420   2.155   7.530  0.5924  0.0600  0.3300
  157SAPE  H11R17501   4.359   2.223   7.468  1.7943  0.5029 -0.4122
  157SAPE  C21217502   4.454   2.185   7.656  0.4169 -0.4559  0.4819
  157SAPE  H12R17503   4.411   2.279   7.692 -0.8783 -0.9079  0.1635
  157SAPE  C21317504   4.526   2.099   7.759 -0.2197 -0.6090 -0.0530
  157SAPE  H13R17505   4.565   2.171   7.833 -1.1789  0.3656 -0.4703
  157SAPE  H13S17506   4.627   2.073   7.720 -0.6028  0.1537 -1.6479
  157SAPE  C21417507   4.454   1.989   7.829 -0.2393 -0.4671  0.2080
  157SAPE  H14R17508   4.370   1.941   7.776  1.1963 -2.1472 -0.6563
  157SAPE  C21517509   4.511   1.931   7.941  0.5681  0.2999 -0.3846
  157SAPE  H15R17510   4.458   1.840   7.970  1.7775 -0.6346 -1.0169
  157SAPE  C21617511   4.635   1.966   8.008  0.1035 -0.4269 -0.5632
  157SAPE  H16R17512   4.695   2.036   7.946 -0.0212  1.1248  0.9847
  157SAPE  H16S17513   4.690   1.870   8.014  0.5470 -0.1296  0.3881
  157SAPE  C21717514   4.621   2.048   8.141  0.4801  0.0192  0.0202
  157SAPE  H17R17515   4.714   2.018   8.195  0.8634  1.5162  0.2422
  157SAPE  H17S17516   4.536   1.999   8.194  0.6018  0.7794  0.9500
  157SAPE  C21817517   4.604   2.197   8.138 -0.2149 -0.3692 -0.1192
  157SAPE  H18R17518   4.522   2.215   8.065 -0.1810  1.5040  0.2412
  157SAPE  H18S17519   4.689   2.249   8.086 -0.7026  1.3241  0.6937
  157SAPE  C21917520   4.584   2.259   8.278  0.3459  0.3221 -0.0202
  157SAPE  H19R17521   4.638   2.356   8.273  1.9066 -0.2929  2.9919
  157SAPE  H19S17522   4.631   2.191   8.352  0.4140 -1.4523 -1.6306
  157SAPE  C22017523   4.440   2.294   8.308  0.1680 -0.3295  0.1823
  157SAPE  H20R17524   4.422   2.307   8.417  2.1784  1.5421  0.3876
  157SAPE  H20S17525   4.378   2.211   8.270  0.3662 -0.3371 -0.1254
  157SAPE  H20T17526   4.402   2.382   8.252  1.7109  1.7645  2.1871
  157SAPE   C3317527   5.128   1.078   6.929 -0.3087 -0.7863  0.5918
  157SAPE   H3X17528   5.204   1.002   6.959 -0.8724 -2.2108 -1.4093
  157SAPE   H3Y17529   5.072   1.025   6.849  1.8242 -0.8068 -0.9754
  157SAPE   C3417530   5.027   1.123   7.037  0.4478 -1.3862 -0.2091
  157SAPE   H4X17531   4.936   1.141   6.976 -0.1402 -2.3077  0.3721
  157SAPE   H4Y17532   5.064   1.213   7.090 -0.3116 -0.4051 -1.3137
  157SAPE   C3517533   4.996   1.031   7.156 -0.6290 -0.3277  0.3238
  157SAPE   H5X17534   4.965   0.932   7.118  1.8237 -0.7247 -0.8342
  157SAPE   H5Y17535   4.901   1.065   7.203 -0.5851 -1.0688  0.9544
  157SAPE   C3617536   5.107   1.023   7.262  0.0065  0.0749 -0.1914
  157SAPE   H6X17537   5.118   1.128   7.298  0.0091 -0.4858  1.5436
  157SAPE   H6Y17538   5.194   0.981   7.209 -0.9054 -0.8780 -0.9593
  157SAPE   C3717539   5.067   0.938   7.385  0.2646  0.1315  0.4298
  157SAPE   H7X17540   5.155   0.939   7.453 -0.3880 -1.3771  1.3363
  157SAPE   H7Y17541   5.053   0.832   7.355  1.6148  0.3836 -1.2462
  157SAPE   C3817542   4.938   0.989   7.449 -0.3761  0.8212 -0.3518
  157SAPE   H8X17543   4.850   0.948   7.395  0.7058 -1.7456 -0.3173
  157SAPE   H8Y17544   4.927   1.099   7.441  0.2138  0.8857 -0.3635
  157SAPE   C3917545   4.946   0.934   7.587  0.2124  0.1280 -0.2916
  157SAPE   H9X17546   5.043   0.963   7.634  0.1078 -1.2346  0.8253
  157SAPE   H9Y17547   4.937   0.824   7.574  3.2815 -0.1618 -0.8407
  157SAPE  C31017548   4.832   0.979   7.688  0.2721 -0.2286  0.3721
  157SAPE  H10X17549   4.835   1.090   7.693 -1.5314 -0.0499 -1.2407
  157SAPE  H10Y17550   4.854   0.939   7.789 -0.4611  1.0746  1.0829
  157SAPE  C31117551   4.697   0.938   7.632 -0.2659  0.7179 -0.5801
  157SAPE  H11X17552   4.709   0.841   7.579  1.3582  1.2198 -1.1737
  157SAPE  H11Y17553   4.677   1.010   7.549 -0.4326  1.8878  0.4549
  157SAPE  C31217554   4.583   0.941   7.733 -0.1953  0.6457 -0.2510
  157SAPE  H12X17555   4.492   0.918   7.674  0.0958 -1.7093  0.0983
  157SAPE  H12Y17556   4.573   1.037   7.786 -3.1983  0.1910  0.1545
  157SAPE  C31317557   4.596   0.824   7.836 -0.5230 -0.1953 -0.2361
  157SAPE  H13X17558   4.699   0.824   7.879 -0.9524 -1.1437  0.8358
  157SAPE  H13Y17559   4.592   0.724   7.789 -0.2540 -0.2049 -0.2424
  157SAPE  C31417560   4.505   0.839   7.961 -0.1229  0.6462  0.1933
  157SAPE  H14X17561   4.396   0.827   7.944  0.1050  0.0554 -0.9354
  157SAPE  H14Y17562   4.518   0.941   8.002  0.5774  0.4613  0.4477
  157SAPE  C31517563   4.541   0.731   8.077  0.8573 -0.2453  0.0638
  157SAPE  H15X17564   4.641   0.756   8.117  1.4961  0.9096 -2.0768
  157SAPE  H15Y17565   4.542   0.632   8.026 -1.2375 -0.1489 -0.2430
  157SAPE  C31617566   4.429   0.738   8.183 -0.0828  0.2325 -0.0901
  157SAPE  H16X17567   4.350   0.668   8.150  1.7084 -1.0574 -1.8708
  157SAPE  H16Y17568   4.388   0.841   8.176 -0.7764 -0.1346 -1.8841
  157SAPE  C31717569   4.460   0.709   8.332  0.1541  0.1756 -0.5707
  157SAPE  H17X17570   4.372   0.735   8.394  0.1332 -1.6713  0.2430
  157SAPE  H17Y17571   4.539   0.782   8.357  0.0071 -0.5257  2.2120
  157SAPE  C31817572   4.514   0.572   8.367  0.4447 -0.2165  0.3507
  157SAPE  H18X17573   4.537   0.576   8.476 -0.3883 -2.0463  0.6334
  157SAPE  H18Y17574   4.605   0.558   8.304  1.9700 -1.7786  2.7338
  157SAPE  H18Z17575   4.437   0.494   8.352 -2.2178  2.8114 -3.9751
  158SAPE     N17576   5.750   4.096   6.205 -0.2433 -0.5724  0.2076
  158SAPE   HN117577   5.835   4.070   6.149 -0.4979 -1.1719  0.0910
  158SAPE   HN217578   5.679   4.020   6.209 -2.5873  1.5230  0.3283
  158SAPE   HN317579   5.709   4.175   6.151  0.9954 -0.9084 -1.3224
  158SAPE   C1217580   5.808   4.144   6.336 -0.5210  0.3373 -0.0138
  158SAPE  H12A17581   5.835   4.048   6.384 -0.3022  0.2241 -0.3566
  158SAPE  H12B17582   5.721   4.181   6.394  1.7678  2.4645  2.3367
  158SAPE   C1117583   5.915   4.255   6.325 -0.0203  0.6176  0.2209
  158SAPE  H11A17584   5.920   4.313   6.420  0.0068 -0.3992  0.8536
  158SAPE  H11B17585   5.880   4.324   6.245 -2.9430  1.9172  2.4134
  158SAPE     P17586   6.157   4.258   6.232  0.4615 -0.3542 -0.3399
  158SAPE   O1317587   6.233   4.165   6.148  0.3372  0.0616  0.2916
  158SAPE   O1417588   6.106   4.378   6.154  0.5000  0.6540  0.1258
  158SAPE   O1217589   6.038   4.184   6.303  0.4438 -0.1255  0.2501
  158SAPE   O1117590   6.239   4.303   6.355  0.6041 -0.0302  0.0659
  158SAPE    C117591   6.313   4.199   6.418 -0.8191 -0.1253 -0.0395
  158SAPE    HA17592   6.364   4.135   6.343 -1.1868 -0.7104  0.2038
  158SAPE    HB17593   6.399   4.246   6.472  1.3365 -2.9043 -0.8259
  158SAPE    C217594   6.237   4.111   6.515 -0.7222  0.7430 -0.2696
  158SAPE    HS17595   6.166   4.058   6.448  1.6324 -0.9345 -1.5646
  158SAPE   O2117596   6.180   4.193   6.616  0.5020 -0.8544  0.0675
  158SAPE   C2117597   6.051   4.161   6.639 -0.2572 -0.0038 -0.6538
  158SAPE   O2217598   5.993   4.079   6.579 -0.4839  0.0405 -0.5427
  158SAPE   C2217599   5.993   4.254   6.747 -0.5404  0.0068 -0.3123
  158SAPE   H2R17600   6.079   4.300   6.801  0.3245 -3.8975  2.0595
  158SAPE   H2S17601   5.917   4.327   6.712 -2.9778 -1.2237  2.0228
  158SAPE    C317602   6.326   4.001   6.584 -0.8674 -0.5387  0.0941
  158SAPE    HX17603   6.401   4.049   6.650  0.7599  0.4214 -2.2906
  158SAPE    HY17604   6.380   3.935   6.512 -1.0108  0.4960 -1.0113
  158SAPE   O3117605   6.250   3.917   6.673  0.0547  0.1204 -0.2243
  158SAPE   C3117606   6.308   3.821   6.728 -1.1592 -0.3602 -0.3021
  158SAPE   O3217607   6.428   3.792   6.718 -1.2208  0.2170  0.5304
  158SAPE   C3217608   6.221   3.756   6.831 -0.4671 -0.5135  0.2496
  158SAPE   H2X17609   6.228   3.645   6.821 -1.0217 -0.8455  2.8591
  158SAPE   H2Y17610   6.119   3.796   6.811  0.3712  0.8749 -1.6487
  158SAPE   C2317611   5.929   4.186   6.870 -1.2099  0.5192 -0.2752
  158SAPE   H3R17612   5.829   4.152   6.837 -1.2066  1.5683 -1.4440
  158SAPE   H3S17613   5.913   4.267   6.944 -0.8189  0.8116 -0.5056
  158SAPE   C2417614   6.016   4.072   6.933  0.2614 -0.4842  0.2131
  158SAPE   H4R17615   6.112   4.105   6.977 -0.2893 -1.6789  2.4872
  158SAPE   H4S17616   6.037   3.987   6.865  3.6106 -1.1888  1.9373
  158SAPE   C2517617   5.944   4.020   7.052  1.0678  0.2704  0.2278
  158SAPE   H5R17618   5.884   3.933   7.021  1.6764 -0.8172  1.9452
  158SAPE   C2617619   5.953   4.070   7.178 -0.1906  0.5362  0.1106
  158SAPE   H6R17620   5.890   4.028   7.258  3.1190 -2.6959  1.3364
  158SAPE   C2717621   6.039   4.187   7.219 -0.4874  0.1718  0.1811
  158SAPE   H7R17622   5.989   4.271   7.272  2.0128  1.8158  0.0597
  158SAPE   H7S17623   6.079   4.242   7.132  1.5110 -1.6346 -0.1262
  158SAPE   C2817624   6.152   4.136   7.306 -0.3124  0.4062  0.3757
  158SAPE   H8R17625   6.233   4.075   7.264  0.3819  0.3743  1.7271
  158SAPE   C2917626   6.170   4.154   7.435  0.1418  0.4636  0.8430
  158SAPE   H9R17627   6.258   4.114   7.487  0.8569 -0.0142 -0.6960
  158SAPE  C21017628   6.096   4.246   7.530 -0.2882  0.0375 -0.4297
  158SAPE  H10R17629   5.999   4.287   7.495  0.8021  2.2640 -1.0697
  158SAPE  H10S17630   6.157   4.336   7.555 -1.2379 -0.0662  2.7342
  158SAPE  C21117631   6.084   4.186   7.671  0.0607 -0.0892  0.6475
  158SAPE  H11R17632   6.018   4.098   7.665 -0.0025  0.0453 -1.0478
  158SAPE  C21217633   6.160   4.205   7.777 -0.1628 -0.2174  0.6819
  158SAPE  H12R17634   6.142   4.149   7.870 -1.8306  2.6605  2.2279
  158SAPE  C21317635   6.275   4.301   7.789  0.1883  0.5192 -0.0180
  158SAPE  H13R17636   6.244   4.373   7.868  0.9403  1.1316 -0.2679
  158SAPE  H13S17637   6.291   4.375   7.708 -1.0273  0.5717 -0.2293
  158SAPE  C21417638   6.405   4.229   7.826 -0.0583 -0.8627  0.7565
  158SAPE  H14R17639   6.431   4.144   7.762  1.1724 -0.7908  1.1441
  158SAPE  C21517640   6.480   4.241   7.937 -0.8196 -0.1662 -0.4158
  158SAPE  H15R17641   6.572   4.181   7.943 -1.6301 -1.3460  0.4338
  158SAPE  C21617642   6.453   4.333   8.056 -0.3024 -0.0083  0.0056
  158SAPE  H16R17643   6.454   4.281   8.154 -2.0534  0.5754  0.3696
  158SAPE  H16S17644   6.364   4.398   8.046  0.0706  0.2950 -1.5685
  158SAPE  C21717645   6.584   4.429   8.072 -0.0475 -0.1284  0.6387
  158SAPE  H17R17646   6.582   4.507   7.993 -0.5437 -1.3943 -0.6579
  158SAPE  H17S17647   6.677   4.368   8.075  0.3520  0.4098 -0.4012
  158SAPE  C21817648   6.589   4.515   8.203  0.4109  0.3851 -0.9983
  158SAPE  H18R17649   6.597   4.448   8.291  0.2343  0.8600 -0.6178
  158SAPE  H18S17650   6.507   4.590   8.214 -0.5665 -0.7337 -0.4247
  158SAPE  C21917651   6.721   4.595   8.208  0.4764 -0.4095  0.3196
  158SAPE  H19R17652   6.733   4.666   8.123  1.7400  0.4356  1.1683
  158SAPE  H19S17653   6.810   4.529   8.206 -0.6262 -1.9637 -1.1127
  158SAPE  C22017654   6.714   4.678   8.338  0.5323 -0.2776 -0.1186
  158SAPE  H20R17655   6.722   4.608   8.423  0.8892 -0.6824 -0.4785
  158SAPE  H20S17656   6.625   4.744   8.341  0.5012 -0.2738 -0.8688
  158SAPE  H20T17657   6.795   4.754   8.340  0.4898 -0.2275 -0.2826
  158SAPE   C3317658   6.255   3.795   6.977  0.1688 -0.7149  0.3712
  158SAPE   H3X17659   6.211   3.896   6.993  0.7429 -0.4148  0.1013
  158SAPE   H3Y17660   6.365   3.784   6.983  0.2059 -1.5277 -1.3538
  158SAPE   C3417661   6.192   3.689   7.070 -0.0139  0.1106  1.1526
  158SAPE   H4X17662   6.236   3.589   7.048 -0.6184 -0.2975  1.7706
  158SAPE   H4Y17663   6.088   3.680   7.032  0.5734  0.9424 -0.7644
  158SAPE   C3517664   6.183   3.723   7.221 -0.1039 -0.3617 -0.2552
  158SAPE   H5X17665   6.124   3.637   7.260 -0.2002 -0.6850 -1.0737
  158SAPE   H5Y17666   6.129   3.820   7.227  1.7376  0.6443  0.6925
  158SAPE   C3617667   6.318   3.735   7.293  0.6982  0.4655 -0.0482
  158SAPE   H6X17668   6.369   3.830   7.267 -0.3671  1.2605  0.6770
  158SAPE   H6Y17669   6.388   3.653   7.268  0.6983  0.8226 -1.2686
  158SAPE   C3717670   6.282   3.731   7.440  0.2563 -0.3980  0.7609
  158SAPE   H7X17671   6.204   3.804   7.472  3.3189  2.9421  1.4194
  158SAPE   H7Y17672   6.253   3.627   7.466 -1.0537  0.5038  3.3212
  158SAPE   C3817673   6.394   3.767   7.540 -0.9038 -0.1256  0.0344
  158SAPE   H8X17674   6.417   3.874   7.526  1.1118 -0.6170 -0.7889
  158SAPE   H8Y17675   6.488   3.711   7.517  0.6330  1.7695  1.3778
  158SAPE   C3917676   6.364   3.751   7.685  0.8275  0.7311 -0.2218
  158SAPE   H9X17677   6.381   3.646   7.717  0.3916 -0.0366 -2.3971
  158SAPE   H9Y17678   6.255   3.758   7.701  0.2378 -2.8934 -1.6763
  158SAPE  C31017679   6.450   3.844   7.779 -0.0234 -0.1341 -0.2954
  158SAPE  H10X17680   6.427   3.952   7.769  1.7677  0.3133  0.1512
  158SAPE  H10Y17681   6.560   3.835   7.769  0.2656  1.1505  1.3330
  158SAPE  C31117682   6.407   3.810   7.926  0.1588 -0.1345 -0.0198
  158SAPE  H11X17683   6.476   3.731   7.963  0.3857 -0.0414 -0.2453
  158SAPE  H11Y17684   6.306   3.764   7.913  0.3994 -0.7588  0.2636
  158SAPE  C31217685   6.418   3.930   8.027  0.1326  0.1851 -0.0803
  158SAPE  H12X17686   6.333   3.994   7.994 -1.5050 -0.7054  2.1666
  158SAPE  H12Y17687   6.511   3.985   8.003 -1.1783  1.5946 -2.3167
  158SAPE  C31317688   6.401   3.893   8.174 -0.1249 -0.4918  0.7177
  158SAPE  H13X17689   6.466   3.813   8.215  1.0390  0.4341  0.7505
  158SAPE  H13Y17690   6.299   3.856   8.194 -0.2531 -1.5409 -1.6425
  158SAPE  C31417691   6.434   4.016   8.253  0.0476  0.0785 -0.0294
  158SAPE  H14X17692   6.367   4.103   8.241  0.6503  0.5350 -0.0913
  158SAPE  H14Y17693   6.537   4.055   8.238  0.4129 -1.2102 -1.1095
  158SAPE  C31517694   6.428   3.987   8.407  0.3267  0.2338 -0.1098
  158SAPE  H15X17695   6.512   3.934   8.456  0.3200  1.4771  1.3189
  158SAPE  H15Y17696   6.342   3.917   8.412  0.4561  0.0732 -0.1232
  158SAPE  C31617697   6.402   4.113   8.485 -0.1369 -0.1199  0.2650
  158SAPE  H16X17698   6.302   4.150   8.452 -0.3811 -2.4488 -1.9001
  158SAPE  H16Y17699   6.481   4.185   8.456 -0.8568  1.0856  1.1723
  158SAPE  C31717700   6.399   4.115   8.644 -0.0728 -0.2450 -0.6260
  158SAPE  H17X17701   6.323   4.190   8.671 -1.2533 -0.6374 -2.6706
  158SAPE  H17Y17702   6.499   4.150   8.679 -0.7873 -0.5403  1.8745
  158SAPE  C31817703   6.354   3.986   8.703 -0.9694 -0.2771 -0.9650
  158SAPE  H18X17704   6.419   3.902   8.673 -1.1706 -0.5455 -0.6622
  158SAPE  H18Y17705   6.248   3.961   8.677 -1.1741  1.1510 -1.6013
  158SAPE  H18Z17706   6.354   3.993   8.814  1.5888 -2.4156 -0.7544
  159SAPE     N17707   5.940   1.214   5.956 -0.4568  0.2682  0.6823
  159SAPE   HN117708   5.869   1.163   6.013 -0.2985  0.8669  1.4247
  159SAPE   HN217709   5.990   1.142   5.900  0.6060  0.1509  1.7478
  159SAPE   HN317710   6.018   1.248   6.016 -0.1013 -0.3748  0.5912
  159SAPE   C1217711   5.867   1.322   5.876 -0.3704  0.3126  0.0418
  159SAPE  H12A17712   5.788   1.264   5.824 -2.4680  1.3238  1.9425
  159SAPE  H12B17713   5.937   1.362   5.799 -0.2417 -0.1336 -0.0738
  159SAPE   C1117714   5.798   1.433   5.959 -0.4242  0.0238  0.6360
  159SAPE  H11A17715   5.726   1.483   5.891 -0.2412  1.5790  1.5362
  159SAPE  H11B17716   5.876   1.505   5.994 -1.6089  0.8715  1.6183
  159SAPE     P17717   5.663   1.464   6.175  0.1488 -0.6755 -0.1894
  159SAPE   O1317718   5.694   1.604   6.143 -0.1944  0.1917 -0.1609
  159SAPE   O1417719   5.520   1.429   6.170 -0.4981  1.0299  0.0696
  159SAPE   O1217720   5.740   1.373   6.081  0.2090 -0.3791 -0.1359
  159SAPE   O1117721   5.712   1.437   6.316 -0.5299 -0.5291 -0.7819
  159SAPE    C117722   5.736   1.299   6.356  0.1575 -0.4225  0.6226
  159SAPE    HA17723   5.646   1.235   6.347 -0.1447 -0.0347  0.8536
  159SAPE    HB17724   5.814   1.246   6.297 -1.9230 -1.0914 -1.6706
  159SAPE    C217725   5.774   1.294   6.515  0.2156  0.0335  0.2092
  159SAPE    HS17726   5.792   1.193   6.558  3.0429  0.7239  0.9001
  159SAPE   O2117727   5.688   1.368   6.603  0.1711  0.2454  0.1994
  159SAPE   C2117728   5.564   1.340   6.605  0.9322 -0.2599 -0.1732
  159SAPE   O2217729   5.505   1.253   6.539 -0.0034 -0.6852  0.0397
  159SAPE   C2217730   5.491   1.443   6.693  0.2555  0.0112  0.1551
  159SAPE   H2R17731   5.482   1.542   6.642  1.9298  0.1341  0.0548
  159SAPE   H2S17732   5.389   1.401   6.703 -0.0748  0.9557  0.9452
  159SAPE    C317733   5.916   1.357   6.527  0.1869  0.2561 -0.6057
  159SAPE    HX17734   5.916   1.460   6.485  0.1564  0.3311 -0.4217
  159SAPE    HY17735   5.986   1.298   6.464 -0.5536  2.0296 -3.2475
  159SAPE   O3117736   5.963   1.344   6.660  0.3000 -0.0806  0.0398
  159SAPE   C3117737   5.955   1.452   6.742 -0.5320 -0.4225 -0.3033
  159SAPE   O3217738   5.926   1.566   6.710  0.1427  0.1987 -0.2668
  159SAPE   C3217739   6.003   1.408   6.880 -0.0735 -0.1528 -0.4182
  159SAPE   H2X17740   6.082   1.477   6.916 -1.5452  0.7865  1.1951
  159SAPE   H2Y17741   6.040   1.304   6.883  1.1750  0.2842  2.4593
  159SAPE   C2317742   5.553   1.457   6.834  0.5719  0.7974 -0.4458
  159SAPE   H3R17743   5.658   1.493   6.838  1.8947 -2.4788 -1.9438
  159SAPE   H3S17744   5.564   1.355   6.875 -2.6734  0.0724 -1.1271
  159SAPE   C2417745   5.476   1.531   6.947 -0.0534 -0.2045 -1.1476
  159SAPE   H4R17746   5.544   1.560   7.030 -2.3348  0.1038  0.6797
  159SAPE   H4S17747   5.400   1.461   6.986  0.0689  0.2106 -0.1452
  159SAPE   C2517748   5.410   1.656   6.893  0.4795  0.0118  0.0009
  159SAPE   H5R17749   5.469   1.703   6.813  2.1983 -1.8462  0.0741
  159SAPE   C2617750   5.281   1.691   6.932  0.1670 -0.0152 -0.1174
  159SAPE   H6R17751   5.227   1.773   6.884  0.1366 -0.5625 -1.0466
  159SAPE   C2717752   5.184   1.617   7.026 -0.3457 -0.4136 -0.3305
  159SAPE   H7R17753   5.160   1.520   6.977  1.1225 -1.5318  1.0411
  159SAPE   H7S17754   5.082   1.661   7.031 -0.8488 -1.5749 -0.0422
  159SAPE   C2817755   5.241   1.611   7.163  0.5530 -0.4499 -0.4167
  159SAPE   H8R17756   5.335   1.668   7.175  0.1554  0.2455 -0.5831
  159SAPE   C2917757   5.187   1.571   7.279 -0.1676 -0.1807  0.1071
  159SAPE   H9R17758   5.233   1.590   7.376 -0.6727 -2.7287  0.9307
  159SAPE  C21017759   5.044   1.513   7.287 -0.1608  0.3807  0.4526
  159SAPE  H10R17760   5.018   1.466   7.190 -0.3151 -0.2893  0.8155
  159SAPE  H10S17761   4.979   1.598   7.318  3.7617  4.0493 -0.4966
  159SAPE  C21117762   5.022   1.392   7.379 -0.0815 -0.3020  0.5901
  159SAPE  H11R17763   5.103   1.318   7.368  1.3133  1.0506  1.3980
  159SAPE  C21217764   4.936   1.381   7.476 -0.4212 -0.2023 -0.3954
  159SAPE  H12R17765   4.931   1.288   7.535 -1.1808  1.3677  2.2106
  159SAPE  C21317766   4.833   1.482   7.520  0.2262 -0.1902 -0.5343
  159SAPE  H13R17767   4.836   1.580   7.468  0.4801  0.8789  1.4394
  159SAPE  H13S17768   4.851   1.525   7.620  0.0723  1.2558 -1.1116
  159SAPE  C21417769   4.687   1.439   7.509 -0.1990  0.5602  0.1227
  159SAPE  H14R17770   4.661   1.369   7.429  0.7731  1.1149 -0.7047
  159SAPE  C21517771   4.585   1.474   7.587 -0.0995 -0.4318 -0.4811
  159SAPE  H15R17772   4.485   1.434   7.566 -0.6404  1.2697 -1.3688
  159SAPE  C21617773   4.601   1.570   7.700  0.5173 -0.7331 -0.6161
  159SAPE  H16R17774   4.526   1.652   7.692 -0.6415 -1.6995  0.0916
  159SAPE  H16S17775   4.695   1.628   7.692  0.1232  0.0512  0.2992
  159SAPE  C21717776   4.587   1.518   7.843  0.1936 -0.0056  0.0354
  159SAPE  H17R17777   4.499   1.450   7.846 -0.5621  0.7410 -2.5577
  159SAPE  H17S17778   4.550   1.598   7.911 -1.8356 -1.3030  0.5469
  159SAPE  C21817779   4.709   1.451   7.897 -0.0718 -0.1744  0.0612
  159SAPE  H18R17780   4.751   1.486   7.994 -0.8052  0.5846  0.1197
  159SAPE  H18S17781   4.794   1.471   7.829  0.5368 -2.8758 -0.0636
  159SAPE  C21917782   4.680   1.299   7.908  0.6513 -0.5172 -0.2621
  159SAPE  H19R17783   4.652   1.262   7.807  0.2611 -2.9086  0.6584
  159SAPE  H19S17784   4.605   1.268   7.983  1.6652  1.8370  1.8439
  159SAPE  C22017785   4.810   1.230   7.951 -0.1751  0.0181  0.1655
  159SAPE  H20R17786   4.870   1.291   8.022  0.6002  0.8774 -1.1905
  159SAPE  H20S17787   4.884   1.211   7.870  1.1771 -1.6161  1.7043
  159SAPE  H20T17788   4.796   1.136   8.008  1.5748 -0.3103  0.1043
  159SAPE   C3317789   5.877   1.406   6.972 -0.0559  0.1008 -0.3537
  159SAPE   H3X17790   5.814   1.322   6.934  0.6451 -0.0428 -1.2374
  159SAPE   H3Y17791   5.818   1.499   6.959  1.3909  0.9867 -0.7938
  159SAPE   C3417792   5.916   1.376   7.116  0.7447 -0.0582  0.3656
  159SAPE   H4X17793   5.823   1.395   7.174 -0.4665 -1.2046 -1.1172
  159SAPE   H4Y17794   5.991   1.453   7.144  1.6044 -1.5258  2.2826
  159SAPE   C3517795   5.965   1.234   7.136 -0.0814 -0.0847 -0.3420
  159SAPE   H5X17796   6.063   1.226   7.085  0.1623 -2.7103  0.3763
  159SAPE   H5Y17797   5.895   1.161   7.089 -0.9656  0.9400 -0.6392
  159SAPE   C3617798   5.996   1.201   7.282  0.5071  0.0497 -0.4648
  159SAPE   H6X17799   5.904   1.236   7.334 -0.6944 -0.0883 -2.4188
  159SAPE   H6Y17800   6.087   1.251   7.320 -0.0827  1.4606 -0.8519
  159SAPE   C3717801   6.002   1.048   7.314 -0.5437 -0.2816 -0.0953
  159SAPE   H7X17802   6.045   1.033   7.415  0.2820  1.7680 -0.0985
  159SAPE   H7Y17803   6.063   1.007   7.231  0.0811 -1.3383  0.8712
  159SAPE   C3817804   5.864   0.989   7.313 -0.5712  0.2756 -0.4738
  159SAPE   H8X17805   5.823   1.013   7.212  3.3082  0.1451 -2.2773
  159SAPE   H8Y17806   5.811   1.050   7.388  2.1005  1.5698  0.4921
  159SAPE   C3917807   5.856   0.835   7.337 -0.1101  0.0558 -0.2534
  159SAPE   H9X17808   5.930   0.793   7.266  0.4589  0.6555 -0.0221
  159SAPE   H9Y17809   5.750   0.805   7.321  0.0760 -0.2446 -0.9595
  159SAPE  C31017810   5.888   0.787   7.480 -0.2855  0.4542  0.7625
  159SAPE  H10X17811   5.796   0.807   7.539  0.4673  0.0430  2.1077
  159SAPE  H10Y17812   5.964   0.846   7.536 -0.0316  0.4891  0.3858
  159SAPE  C31117813   5.931   0.647   7.490 -0.1100  0.3898  0.3600
  159SAPE  H11X17814   6.017   0.624   7.424 -2.0116 -1.6731 -1.5773
  159SAPE  H11Y17815   5.851   0.583   7.447  1.4507 -1.0078 -0.5665
  159SAPE  C31217816   5.964   0.593   7.629  0.5488  0.7288  0.2480
  159SAPE  H12X17817   6.061   0.635   7.664  1.3669  0.8834 -2.0483
  159SAPE  H12Y17818   5.975   0.482   7.627  1.7584  0.8361 -0.1069
  159SAPE  C31317819   5.855   0.611   7.740 -0.1501  0.2136  0.2998
  159SAPE  H13X17820   5.860   0.519   7.801 -2.1080  0.4716  0.9137
  159SAPE  H13Y17821   5.749   0.622   7.708  0.5302  1.9674 -1.6357
  159SAPE  C31417822   5.901   0.724   7.831 -0.3481  0.2658 -0.3188
  159SAPE  H14X17823   5.894   0.824   7.782  0.1145 -0.4913 -1.9902
  159SAPE  H14Y17824   6.011   0.716   7.845 -0.4034  2.6705  2.6933
  159SAPE  C31517825   5.827   0.722   7.968  0.2575 -0.2345  0.6855
  159SAPE  H15X17826   5.813   0.620   8.010 -2.7610  0.2241  1.0272
  159SAPE  H15Y17827   5.722   0.744   7.941  0.3191 -3.0578 -2.4095
  159SAPE  C31617828   5.872   0.828   8.073 -0.8057  0.4806  0.2784
  159SAPE  H16X17829   5.888   0.929   8.030 -0.6387  0.8103  1.0908
  159SAPE  H16Y17830   5.969   0.796   8.117 -1.1169 -1.0806 -0.1253
  159SAPE  C31717831   5.777   0.822   8.195 -0.1428  0.9641  0.1897
  159SAPE  H17X17832   5.747   0.719   8.225 -0.9940  1.3665  0.7591
  159SAPE  H17Y17833   5.691   0.875   8.149  0.1988  0.7062 -0.7709
  159SAPE  C31817834   5.828   0.894   8.320 -0.7587 -0.1387  0.2028
  159SAPE  H18X17835   5.926   0.851   8.351 -0.8771 -1.2312 -0.8477
  159SAPE  H18Y17836   5.765   0.889   8.411 -0.1826  1.2329  0.6970
  159SAPE  H18Z17837   5.851   1.001   8.299 -1.0516  0.1597  1.3470
  160SAPE     N17838   4.953   5.571   6.098  0.3009  0.5484 -0.5467
  160SAPE   HN117839   4.969   5.468   6.093 -0.0880  0.5432 -4.1802
  160SAPE   HN217840   4.883   5.580   6.174  1.5237  4.6879  0.3113
  160SAPE   HN317841   4.920   5.604   6.005 -1.1679  0.5904 -0.0350
  160SAPE   C1217842   5.075   5.645   6.145  0.0566 -0.9504  0.4085
  160SAPE  H12A17843   5.155   5.600   6.083 -1.4617  0.6326 -2.9567
  160SAPE  H12B17844   5.099   5.631   6.252 -2.2159  1.1800  1.2926
  160SAPE   C1117845   5.070   5.799   6.112 -0.8661 -0.6608 -0.5831
  160SAPE  H11A17846   4.976   5.850   6.141  0.1364  0.1041  1.5095
  160SAPE  H11B17847   5.061   5.805   6.002 -0.8148  0.9482 -0.5133
  160SAPE     P17848   5.237   5.896   6.310  0.1181 -0.0980  0.1543
  160SAPE   O1317849   5.353   5.805   6.316  0.2727 -0.3269 -0.5778
  160SAPE   O1417850   5.257   6.038   6.330  1.6285 -0.6781 -0.1193
  160SAPE   O1217851   5.180   5.870   6.167 -0.5427  0.0220 -0.4922
  160SAPE   O1117852   5.115   5.844   6.398 -0.5322  0.0300  0.3464
  160SAPE    C117853   5.007   5.940   6.418 -0.3904 -0.2907 -0.5184
  160SAPE    HA17854   4.998   6.009   6.332  3.7212  2.2867  0.8393
  160SAPE    HB17855   4.916   5.876   6.418  0.5165 -1.6320 -1.4038
  160SAPE    C217856   5.010   6.018   6.551  0.2113  0.2532 -0.9570
  160SAPE    HS17857   5.113   6.055   6.567 -0.1299  0.3825  1.1270
  160SAPE   O2117858   4.982   5.925   6.657  0.7550 -0.1209 -0.3812
  160SAPE   C2117859   5.046   5.936   6.773  0.2293  0.5882  0.2506
  160SAPE   O2217860   5.134   6.015   6.799 -0.3801  0.4211 -0.0924
  160SAPE   C2217861   4.983   5.832   6.873 -0.0309 -0.6582 -0.0201
  160SAPE   H2R17862   4.875   5.818   6.849  0.0489  1.7367 -2.1804
  160SAPE   H2S17863   5.026   5.731   6.853  0.2468 -0.3742 -0.9161
  160SAPE    C317864   4.906   6.128   6.552 -0.2110 -0.4303 -0.2261
  160SAPE    HX17865   4.808   6.082   6.525 -0.6379  1.3798 -1.9632
  160SAPE    HY17866   4.931   6.201   6.472  0.5456 -0.0831  0.3229
  160SAPE   O3117867   4.890   6.191   6.686  0.4086  0.6765  0.1238
  160SAPE   C3117868   4.976   6.286   6.715  0.3222  0.6474 -0.5466
  160SAPE   O3217869   5.068   6.331   6.644 -0.2002 -0.4715 -0.6857
  160SAPE   C3217870   4.938   6.333   6.859 -0.1989 -0.0023  0.8851
  160SAPE   H2X17871   4.892   6.248   6.914 -2.6044  0.7912  0.2086
  160SAPE   H2Y17872   4.870   6.419   6.840 -0.2201 -0.1090  0.4557
  160SAPE   C2317873   5.006   5.853   7.018  0.5525 -0.2930  0.4124
  160SAPE   H3R17874   5.112   5.881   7.036  0.3723  1.2811 -0.7586
  160SAPE   H3S17875   4.976   5.760   7.070  0.2636 -1.8416 -2.2834
  160SAPE   C2417876   4.940   5.984   7.074 -0.1453 -0.2745  0.1914
  160SAPE   H4R17877   4.977   6.063   7.006  1.7690  2.2846  3.8122
  160SAPE   H4S17878   4.987   6.007   7.172  1.9039 -0.5987 -0.6678
  160SAPE   C2517879   4.794   5.991   7.069 -0.0270 -0.2551  0.4125
  160SAPE   H5R17880   4.751   6.010   6.969  0.3102  0.8093  0.4635
  160SAPE   C2617881   4.713   5.956   7.172  0.1759  0.0844  0.2718
  160SAPE   H6R17882   4.604   5.959   7.157  0.3540 -2.8838 -2.6154
  160SAPE   C2717883   4.770   5.917   7.303  0.3545  0.0588 -0.7903
  160SAPE   H7R17884   4.773   6.010   7.363 -0.1652  0.1953 -0.9736
  160SAPE   H7S17885   4.874   5.880   7.290  0.7639  1.3099 -1.2342
  160SAPE   C2817886   4.679   5.814   7.369  0.5919  0.0162 -0.2223
  160SAPE   H8R17887   4.664   5.726   7.304  1.0847 -0.7859  0.7242
  160SAPE   C2917888   4.609   5.831   7.485 -0.1089  0.5523 -0.4759
  160SAPE   H9R17889   4.540   5.754   7.521 -0.0269  0.9583  0.5719
  160SAPE  C21017890   4.607   5.942   7.583  0.5747  0.4073 -0.0258
  160SAPE  H10R17891   4.568   6.036   7.537 -0.3407  1.5163  2.8214
  160SAPE  H10S17892   4.716   5.964   7.590  0.7776 -0.7821  0.6836
  160SAPE  C21117893   4.536   5.909   7.711  0.2205  0.1577  0.0078
  160SAPE  H11R17894   4.428   5.919   7.696  0.3995  0.9645 -0.9138
  160SAPE  C21217895   4.588   5.881   7.831 -0.2664  0.8262  0.1707
  160SAPE  H12R17896   4.530   5.848   7.919  0.3225  0.4404  0.4253
  160SAPE  C21317897   4.738   5.875   7.870 -0.3714  0.2978  0.1587
  160SAPE  H13R17898   4.795   5.866   7.775 -0.8040  0.0479 -0.0819
  160SAPE  H13S17899   4.774   5.779   7.914 -0.4855 -0.0947 -0.5808
  160SAPE  C21417900   4.788   5.997   7.942  0.2988 -0.0607 -0.1264
  160SAPE  H14R17901   4.791   6.091   7.885  1.3692 -0.6444 -1.0777
  160SAPE  C21517902   4.806   6.001   8.077 -0.0833 -0.3614  0.0723
  160SAPE  H15R17903   4.832   6.094   8.128  0.9664 -0.8903  0.5276
  160SAPE  C21617904   4.789   5.884   8.168  0.4624  0.3585 -0.0900
  160SAPE  H16R17905   4.859   5.798   8.158 -0.9607 -1.1000  1.6856
  160SAPE  H16S17906   4.689   5.836   8.156 -0.0816  0.8269  2.1750
  160SAPE  C21717907   4.811   5.916   8.314  0.7766  0.0211 -0.5081
  160SAPE  H17R17908   4.757   5.835   8.368  1.9420 -2.7595 -3.1822
  160SAPE  H17S17909   4.744   5.999   8.346  1.1627  0.3466 -0.5373
  160SAPE  C21817910   4.953   5.924   8.356  0.5727  0.1304 -0.8098
  160SAPE  H18R17911   4.999   6.020   8.323  1.3734  0.8734  2.1483
  160SAPE  H18S17912   5.007   5.836   8.316  2.8672  1.0151  0.1704
  160SAPE  C21917913   4.979   5.904   8.507 -0.2052  0.6308 -0.4613
  160SAPE  H19R17914   4.926   5.813   8.542  0.0619  1.3519  1.9880
  160SAPE  H19S17915   4.925   5.975   8.573 -1.5564 -1.9068  1.3215
  160SAPE  C22017916   5.127   5.897   8.536 -0.4356  0.5159 -0.7196
  160SAPE  H20R17917   5.183   5.984   8.495 -1.0575  0.7325 -1.1414
  160SAPE  H20S17918   5.169   5.809   8.484 -0.0536 -0.2563  0.8197
  160SAPE  H20T17919   5.152   5.901   8.644 -0.7195  2.9284 -0.6683
  160SAPE   C3317920   5.059   6.401   6.938  0.7290  0.2041 -0.0709
  160SAPE   H3X17921   5.109   6.481   6.879 -0.9897  2.2480  1.0884
  160SAPE   H3Y17922   5.138   6.323   6.948  2.4047  1.7874 -0.3348
  160SAPE   C3417923   5.019   6.472   7.069 -0.1534 -0.0993  0.7605
  160SAPE   H4X17924   4.931   6.533   7.041  0.2084  0.0001 -0.2106
  160SAPE   H4Y17925   5.093   6.552   7.091  0.2824 -0.0014 -0.8698
  160SAPE   C3517926   4.997   6.383   7.192 -0.2754  0.3331  0.3954
  160SAPE   H5X17927   4.913   6.314   7.173  1.1230 -1.6694  1.2134
  160SAPE   H5Y17928   4.973   6.439   7.285  0.3020  3.8619 -1.4078
  160SAPE   C3617929   5.120   6.295   7.223 -0.5578 -0.9384 -0.6256
  160SAPE   H6X17930   5.204   6.365   7.239 -1.2327 -0.6543  2.1853
  160SAPE   H6Y17931   5.132   6.228   7.135 -2.2996 -1.1424 -0.7360
  160SAPE   C3717932   5.116   6.214   7.345  0.0877 -0.0842  0.2971
  160SAPE   H7X17933   5.207   6.149   7.342 -0.0283 -0.2203 -1.8613
  160SAPE   H7Y17934   5.033   6.141   7.336 -1.7522  1.6404  2.1554
  160SAPE   C3817935   5.128   6.290   7.470  0.2953 -0.4121 -0.7158
  160SAPE   H8X17936   5.046   6.365   7.478 -0.5035 -1.1361 -1.8499
  160SAPE   H8Y17937   5.223   6.347   7.467 -0.6435  1.2805  0.0684
  160SAPE   C3917938   5.118   6.200   7.592  1.1113 -0.1254  0.2666
  160SAPE   H9X17939   5.203   6.128   7.588  1.8072  0.6445  0.8387
  160SAPE   H9Y17940   5.023   6.142   7.593  1.6705 -1.0651  0.0710
  160SAPE  C31017941   5.132   6.281   7.722  0.3032 -0.6936 -0.2175
  160SAPE  H10X17942   5.044   6.348   7.722  0.0865 -0.9774 -0.0874
  160SAPE  H10Y17943   5.224   6.343   7.713  1.2781 -2.1976 -1.2600
  160SAPE  C31117944   5.119   6.198   7.844  0.2078  0.0360 -0.1742
  160SAPE  H11X17945   5.182   6.109   7.825 -1.7809 -1.5219  0.0952
  160SAPE  H11Y17946   5.015   6.172   7.876 -0.7895  1.8750 -1.7154
  160SAPE  C31217947   5.198   6.267   7.960 -0.3182 -0.4839 -0.0506
  160SAPE  H12X17948   5.152   6.368   7.969  1.3510  0.2291  0.8393
  160SAPE  H12Y17949   5.304   6.281   7.930 -0.9240  2.5472 -1.2165
  160SAPE  C31317950   5.191   6.187   8.088  0.1491  0.5762  0.4168
  160SAPE  H13X17951   5.262   6.104   8.069 -0.4050 -0.2619  1.8187
  160SAPE  H13Y17952   5.090   6.140   8.099  0.3417 -0.3461 -1.3205
  160SAPE  C31417953   5.238   6.269   8.210  0.0574 -0.0803  0.2821
  160SAPE  H14X17954   5.204   6.208   8.296 -0.8060 -1.4075 -0.9413
  160SAPE  H14Y17955   5.175   6.359   8.202  0.4074  0.1823  0.4609
  160SAPE  C31517956   5.390   6.296   8.226 -0.4665 -0.1380 -0.3955
  160SAPE  H15X17957   5.413   6.386   8.164 -2.1345 -0.0951 -0.9871
  160SAPE  H15Y17958   5.439   6.209   8.178 -0.8183 -0.6071  0.0914
  160SAPE  C31617959   5.442   6.303   8.365  0.0460 -0.6888 -0.2155
  160SAPE  H16X17960   5.460   6.198   8.398 -0.1804 -0.7689 -0.3468
  160SAPE  H16Y17961   5.366   6.331   8.440 -0.3032 -2.2167  0.0356
  160SAPE  C31717962   5.569   6.384   8.373  0.5178  0.4643  0.4384
  160SAPE  H17X17963   5.589   6.400   8.480 -2.4847  0.4228  1.0969
  160SAPE  H17Y17964   5.538   6.478   8.323  0.4859 -0.7277 -1.9548
  160SAPE  C31817965   5.678   6.317   8.298 -0.3279  1.0309 -0.0564
  160SAPE  H18X17966   5.650   6.315   8.190  0.8873 -1.5403 -0.3961
  160SAPE  H18Y17967   5.703   6.212   8.324  1.5111  1.5273  0.3416
  160SAPE  H18Z17968   5.771   6.377   8.296 -0.8664  1.9349 -2.7533
  161SOPE     N17969   3.271   1.828  11.098 -0.3748 -0.3250  0.1198
  161SOPE   HN117970   3.227   1.840  11.191 -0.9147 -1.9060  0.0947
  161SOPE   HN217971   3.264   1.727  11.074  0.5286  0.0499 -1.9574
  161SOPE   HN317972   3.370   1.858  11.109 -0.4861 -0.1255  0.6440
  161SOPE   C1217973   3.198   1.907  10.990 -0.7726  0.0084 -0.1263
  161SOPE  H12A17974   3.262   1.906  10.899  0.0303 -1.6597  0.4134
  161SOPE  H12B17975   3.179   2.010  11.027 -0.4118  0.4970 -1.2535
  161SOPE   C1117976   3.065   1.832  10.960 -0.3961  0.4788 -0.9965
  161SOPE  H11A17977   2.985   1.907  10.938 -0.9950  0.2582  0.3063
  161SOPE  H11B17978   3.015   1.793  11.052  0.6880  1.0106 -0.1635
  161SOPE     P17979   3.092   1.751  10.713  0.2606  0.0497 -0.2558
  161SOPE   O1317980   3.020   1.877  10.685  0.3074  0.0242  1.0778
  161SOPE   O1417981   3.030   1.626  10.654 -0.4251 -0.1157  0.4568
  161SOPE   O1217982   3.084   1.725  10.868 -0.2285 -0.0697  0.6573
  161SOPE   O1117983   3.241   1.759  10.685  0.2489  0.1919 -0.5798
  161SOPE    C117984   3.329   1.652  10.709  0.4860  0.1644 -0.0166
  161SOPE    HA17985   3.282   1.556  10.740 -2.1445  0.9867 -1.1399
  161SOPE    HB17986   3.400   1.672  10.792  0.8878 -3.4314  0.6579
  161SOPE    C217987   3.395   1.640  10.573 -0.8411  0.1799  0.1392
  161SOPE    HS17988   3.416   1.743  10.538 -1.8801  0.8007  1.3069
  161SOPE   O2117989   3.314   1.557  10.485  0.3808 -0.4540 -0.1662
  161SOPE   C2117990   3.262   1.616  10.383  0.2873 -0.1421  0.7409
  161SOPE   O2217991   3.265   1.732  10.355  0.2414  0.1673 -0.1196
  161SOPE   C2217992   3.206   1.497  10.296 -0.5305 -1.0303 -0.4499
  161SOPE   H2R17993   3.099   1.487  10.323 -0.5741  0.0681 -0.1361
  161SOPE   H2S17994   3.269   1.410  10.321  0.6117  0.2894  1.5576
  161SOPE    C317995   3.537   1.574  10.589  0.0889  0.9799  0.5242
  161SOPE    HX17996   3.513   1.478  10.639 -1.7034  1.3711  0.4859
  161SOPE    HY17997   3.598   1.627  10.665  0.3436  1.5164 -0.0466
  161SOPE   O3117998   3.602   1.551  10.460  0.5920  0.6973 -0.4623
  161SOPE   C3117999   3.577   1.428  10.399  0.3030 -0.7413  0.5949
  161SOPE   O3218000   3.516   1.338  10.452  0.2376 -0.0457  0.1804
  161SOPE   C3218001   3.654   1.426  10.269  0.0812 -0.2842 -0.0413
  161SOPE   H2X18002   3.740   1.358  10.288  0.7610  0.9145  1.3596
  161SOPE   H2Y18003   3.682   1.523  10.224 -0.2177 -1.3333 -2.6880
  161SOPE   C2318004   3.217   1.539  10.149  0.2567  0.8436 -0.0270
  161SOPE   H3R18005   3.327   1.550  10.142  0.4216  0.0216  1.0122
  161SOPE   H3S18006   3.172   1.639  10.134  4.2488  2.7048 -0.8910
  161SOPE   C2418007   3.153   1.428  10.058 -0.6463  0.5604  0.1026
  161SOPE   H4R18008   3.220   1.339  10.055  0.8964  1.6956  0.1492
  161SOPE   H4S18009   3.050   1.408  10.094 -1.5759  3.2254 -0.8228
  161SOPE   C2518010   3.138   1.481   9.918  0.1846  1.1230  0.6037
  161SOPE   H5R18011   3.036   1.524   9.910  0.3864  1.2753 -2.3428
  161SOPE   H5S18012   3.211   1.563   9.900  0.8896  0.8579  2.1076
  161SOPE   C2618013   3.161   1.381   9.802  0.0102  0.1979  0.3730
  161SOPE   H6R18014   3.261   1.333   9.808  1.3834  2.4953 -1.9989
  161SOPE   H6S18015   3.086   1.301   9.817 -0.7332  1.0246  1.2015
  161SOPE   C2718016   3.142   1.448   9.667 -0.1135 -0.1969 -0.5163
  161SOPE   H7R18017   3.041   1.491   9.657 -0.1672 -0.3239 -0.5296
  161SOPE   H7S18018   3.222   1.517   9.635  1.5120 -1.8025 -0.0984
  161SOPE   C2818019   3.142   1.338   9.560 -0.1072  0.3155 -0.5191
  161SOPE   H8R18020   3.075   1.257   9.596  0.9126 -0.0017  0.7345
  161SOPE   H8S18021   3.102   1.373   9.462  1.5458  0.3822 -1.2092
  161SOPE   C2918022   3.282   1.274   9.546  0.5555 -0.0122  0.4523
  161SOPE   H9118023   3.316   1.221   9.636  0.9362 -3.3260 -1.4718
  161SOPE  C21018024   3.360   1.271   9.436  0.1829  0.1837  0.0693
  161SOPE  H10118025   3.456   1.221   9.456 -0.3636 -0.1512  2.1094
  161SOPE  C21118026   3.344   1.318   9.296  1.2252 -0.7850  0.1282
  161SOPE  H11R18027   3.260   1.387   9.274  1.2510 -0.4417  1.0445
  161SOPE  H11S18028   3.301   1.231   9.241 -0.8863  1.5677 -2.2202
  161SOPE  C21218029   3.466   1.351   9.202  0.2714 -0.0972  0.2068
  161SOPE  H12R18030   3.557   1.292   9.228  1.4047  0.6786 -1.8060
  161SOPE  H12S18031   3.491   1.459   9.202 -1.9778  0.5097 -1.5917
  161SOPE  C21318032   3.423   1.316   9.055  0.2894  0.3072 -0.3308
  161SOPE  H13R18033   3.328   1.361   9.019  0.0159 -1.7707 -2.4663
  161SOPE  H13S18034   3.413   1.205   9.053 -2.1339  0.3754  1.7821
  161SOPE  C21418035   3.520   1.358   8.956  0.3283 -0.9663 -0.0610
  161SOPE  H14R18036   3.627   1.340   8.982  0.7788  0.8626 -0.5063
  161SOPE  H14S18037   3.506   1.468   8.945  0.3738 -1.0512 -1.0136
  161SOPE  C21518038   3.480   1.305   8.813  0.3588  0.3037  0.7720
  161SOPE  H15R18039   3.513   1.379   8.736  0.5508 -2.4573 -1.9853
  161SOPE  H15S18040   3.370   1.295   8.804  0.4143 -0.1891  0.6216
  161SOPE  C21618041   3.535   1.159   8.783  0.5013 -0.8021  0.5047
  161SOPE  H16R18042   3.536   1.093   8.872  0.8780  1.0429  1.9226
  161SOPE  H16S18043   3.643   1.181   8.767  0.0096  1.4186 -0.1627
  161SOPE  C21718044   3.474   1.103   8.653 -0.2315  0.1714  0.0624
  161SOPE  H17R18045   3.445   1.189   8.589  2.8292  0.2340 -1.4266
  161SOPE  H17S18046   3.377   1.051   8.666 -0.5392  0.7301  0.0474
  161SOPE  C21818047   3.573   1.016   8.571 -0.5844 -0.3183 -0.0236
  161SOPE  H18R18048   3.661   1.078   8.544 -2.1083  2.0624  0.1323
  161SOPE  H18S18049   3.521   0.974   8.482 -2.2905  0.4525  0.5604
  161SOPE  H18T18050   3.603   0.928   8.631  1.8772 -0.9776 -2.0289
  161SOPE   C3318051   3.559   1.370  10.161  0.1648 -0.9168  0.1787
  161SOPE   H3X18052   3.497   1.448  10.111  0.6824 -0.4810  0.2123
  161SOPE   H3Y18053   3.475   1.314  10.207 -0.4864  1.8544  2.6995
  161SOPE   C3418054   3.632   1.293  10.052  0.7141  0.3151  0.0620
  161SOPE   H4X18055   3.676   1.203  10.099  1.1269  0.6576  0.3375
  161SOPE   H4Y18056   3.714   1.349  10.002 -0.0427  0.0706 -1.5465
  161SOPE   C3518057   3.528   1.235   9.946  0.1134 -0.5841 -0.0165
  161SOPE   H5X18058   3.492   1.327   9.895 -0.9328 -1.2545 -0.5321
  161SOPE   H5Y18059   3.436   1.198   9.997  0.1317 -0.0169  0.4450
  161SOPE   C3618060   3.576   1.127   9.854  0.1536 -0.3637 -1.0572
  161SOPE   H6X18061   3.497   1.064   9.809  0.2164 -0.8818 -0.4697
  161SOPE   H6Y18062   3.646   1.064   9.914  1.0199  0.8824 -0.7185
  161SOPE   C3718063   3.660   1.175   9.735 -0.4387  0.6366  0.2110
  161SOPE   H7X18064   3.760   1.217   9.759  0.2734  0.8515 -2.6751
  161SOPE   H7Y18065   3.607   1.253   9.675 -0.0378 -0.8977 -2.2639
  161SOPE   C3818066   3.686   1.056   9.636 -0.1313  0.6679 -0.0798
  161SOPE   H8X18067   3.592   1.038   9.579  0.0026 -1.1517  0.2096
  161SOPE   H8Y18068   3.706   0.959   9.687 -0.5866  1.0320  0.8109
  161SOPE   C3918069   3.800   1.081   9.541 -0.6266  0.3869  0.2948
  161SOPE   H9X18070   3.880   1.024   9.590 -1.8515 -1.3395  0.3665
  161SOPE   H9Y18071   3.822   1.190   9.534 -2.2773  0.6543 -3.7834
  161SOPE  C31018072   3.764   1.018   9.406  0.2468 -0.0910  0.5491
  161SOPE  H10X18073   3.665   1.047   9.366  1.3499 -0.0831 -2.4763
  161SOPE  H10Y18074   3.760   0.908   9.421 -0.9291 -0.3067 -1.0900
  161SOPE  C31118075   3.869   1.030   9.293  0.2725 -0.0776 -0.4468
  161SOPE  H11X18076   3.958   0.980   9.337 -0.8699 -1.1099  0.7786
  161SOPE  H11Y18077   3.893   1.138   9.280  0.2811 -0.0912 -0.5487
  161SOPE  C31218078   3.824   0.964   9.162 -0.7769  0.5251 -0.2875
  161SOPE  H12X18079   3.731   1.021   9.140 -1.0574 -0.0161 -0.5103
  161SOPE  H12Y18080   3.789   0.862   9.187  0.5757  0.3879  1.2267
  161SOPE  C31318081   3.933   0.974   9.052 -0.3653  0.1853 -0.2805
  161SOPE  H13X18082   4.017   0.904   9.069  0.1526 -0.1958 -3.8190
  161SOPE  H13Y18083   3.983   1.073   9.050  0.0553 -0.0396 -1.9138
  161SOPE  C31418084   3.879   0.953   8.910  0.3873 -0.8508  0.6257
  161SOPE  H14X18085   3.796   1.022   8.883 -1.7620 -2.9651  1.5111
  161SOPE  H14Y18086   3.838   0.850   8.903 -0.1392 -0.5338 -3.1399
  161SOPE  C31518087   3.994   0.970   8.809 -0.8686  0.2373 -0.2645
  161SOPE  H15X18088   4.078   0.897   8.805 -0.1126  0.8997  1.9581
  161SOPE  H15Y18089   4.038   1.067   8.841  0.7649 -0.7565  0.6896
  161SOPE  C31618090   3.916   0.982   8.683  0.2533  0.0714  0.5698
  161SOPE  H16X18091   3.867   1.081   8.675  2.3759  1.3033  1.6538
  161SOPE  H16Y18092   3.850   0.893   8.675  2.1541 -1.4000  0.4161
  161SOPE  C31718093   4.015   0.975   8.562 -0.6184  0.8261 -0.4634
  161SOPE  H17X18094   4.052   0.873   8.538 -0.0107  0.5902  1.2627
  161SOPE  H17Y18095   4.101   1.041   8.588 -0.6684 -0.1571  2.7420
  161SOPE  C31818096   3.955   1.018   8.425 -0.0372  0.0902 -0.6065
  161SOPE  H18X18097   4.040   1.027   8.354 -0.2838  0.9328 -0.7991
  161SOPE  H18Y18098   3.923   1.124   8.422 -1.7141 -0.3918 -2.9651
  161SOPE  H18Z18099   3.867   0.953   8.405 -0.7701  0.3570  1.5502
  162SOPE     N18100   4.124   1.390  10.895  0.0561 -0.4995 -0.0144
  162SOPE   HN118101   4.168   1.297  10.910  1.6561 -0.1376 -2.0674
  162SOPE   HN218102   4.021   1.379  10.882 -0.3597  1.8213  0.7748
  162SOPE   HN318103   4.160   1.424  10.804  1.2475 -0.1458  0.5677
  162SOPE   C1218104   4.158   1.493  11.004 -0.2333 -0.0792  0.1281
  162SOPE  H12A18105   4.265   1.475  11.028 -0.2681  0.1530  0.4597
  162SOPE  H12B18106   4.102   1.478  11.099 -0.5959 -0.1962 -0.1020
  162SOPE   C1118107   4.138   1.642  10.962 -0.0615  0.4326 -0.1433
  162SOPE  H11A18108   4.157   1.712  11.046  0.1974  0.6724 -0.3984
  162SOPE  H11B18109   4.028   1.650  10.945 -0.2239 -3.8117 -2.4843
  162SOPE     P18110   4.358   1.673  10.822 -0.0917  0.3779 -0.1740
  162SOPE   O1318111   4.397   1.532  10.805  0.5298  0.2330  0.0582
  162SOPE   O1418112   4.432   1.751  10.928 -0.1576 -0.3301 -0.8687
  162SOPE   O1218113   4.201   1.692  10.847  0.1418  0.3420 -0.4831
  162SOPE   O1118114   4.383   1.753  10.695 -0.0128  0.1603  0.3372
  162SOPE    C118115   4.377   1.699  10.563 -0.6937  0.3767 -0.1601
  162SOPE    HA18116   4.373   1.588  10.562  0.1445  0.3400  0.1477
  162SOPE    HB18117   4.469   1.733  10.511 -0.4864 -0.5936 -0.4383
  162SOPE    C218118   4.248   1.747  10.481 -0.1541  0.5458  0.3887
  162SOPE    HS18119   4.154   1.722  10.534 -0.8653 -0.1706 -1.1570
  162SOPE   O2118120   4.254   1.674  10.358 -0.6107 -0.0199  0.1407
  162SOPE   C2118121   4.139   1.634  10.304 -0.1741  0.1558 -0.7033
  162SOPE   O2218122   4.028   1.656  10.346 -0.2976  0.6449 -0.1303
  162SOPE   C2218123   4.160   1.552  10.179  0.5022 -0.5058  0.1842
  162SOPE   H2R18124   4.210   1.460  10.216  0.6672 -0.4566  0.0845
  162SOPE   H2S18125   4.225   1.603  10.104 -1.7298  0.5776 -1.1036
  162SOPE    C318126   4.247   1.899  10.448 -0.4052  0.0095 -0.2417
  162SOPE    HX18127   4.347   1.910  10.400  0.4160 -1.0828  1.1244
  162SOPE    HY18128   4.237   1.958  10.541  1.5021 -0.1602  0.1209
  162SOPE   O3118129   4.144   1.936  10.351  0.3984 -0.1212  0.0085
  162SOPE   C3118130   4.169   1.999  10.235  0.3476  0.1931 -0.4309
  162SOPE   O3218131   4.273   2.050  10.198  0.2026 -0.2083  0.3037
  162SOPE   C3218132   4.033   2.002  10.157 -0.4669  0.3234 -0.5416
  162SOPE   H2X18133   3.954   2.041  10.225  0.0837 -0.9603  0.8997
  162SOPE   H2Y18134   4.000   1.899  10.133 -3.1159  0.7996  0.7128
  162SOPE   C2318135   4.030   1.525  10.093 -0.5175  0.9270  1.2053
  162SOPE   H3R18136   4.007   1.622  10.046 -0.4133  0.5654  0.3966
  162SOPE   H3S18137   3.940   1.489  10.148 -1.0803  0.1004 -0.2034
  162SOPE   C2418138   4.044   1.427   9.977  0.6356  0.1131 -0.6959
  162SOPE   H4R18139   4.069   1.329  10.024 -0.3374  0.0136 -0.3744
  162SOPE   H4S18140   3.948   1.420   9.922  0.0503 -1.6233  0.4486
  162SOPE   C2518141   4.148   1.465   9.873  0.8653 -0.5581 -0.5020
  162SOPE   H5R18142   4.109   1.551   9.815  0.4404  0.5177  1.2790
  162SOPE   H5S18143   4.243   1.491   9.925 -1.0922  0.9842  2.6371
  162SOPE   C2618144   4.166   1.343   9.771 -0.8127 -0.4391 -0.3316
  162SOPE   H6R18145   4.069   1.322   9.720 -0.5728  0.9998 -1.4271
  162SOPE   H6S18146   4.237   1.373   9.692  0.0365 -0.3324  0.4589
  162SOPE   C2718147   4.219   1.211   9.819  0.1343  0.1810 -1.0670
  162SOPE   H7R18148   4.148   1.175   9.897 -1.0789  0.2300 -2.1115
  162SOPE   H7S18149   4.222   1.133   9.739  1.2236  0.7905 -1.6409
  162SOPE   C2818150   4.364   1.226   9.878 -0.3016 -0.1437  0.0718
  162SOPE   H8R18151   4.366   1.305   9.956  1.6162  1.8986 -1.8973
  162SOPE   H8S18152   4.382   1.126   9.922 -3.1757 -0.2182  1.2273
  162SOPE   C2918153   4.467   1.271   9.776  0.3904  0.3102  0.4752
  162SOPE   H9118154   4.512   1.370   9.794 -0.0649  0.6727 -0.3697
  162SOPE  C21018155   4.522   1.188   9.687 -0.0834 -0.6244  0.2076
  162SOPE  H10118156   4.592   1.236   9.616 -2.0712  0.0082 -1.4671
  162SOPE  C21118157   4.502   1.045   9.675 -0.0675  0.2140 -0.0299
  162SOPE  H11R18158   4.457   1.018   9.577 -1.4768  0.4983  0.5230
  162SOPE  H11S18159   4.436   1.003   9.754 -0.0489  1.7720  0.8486
  162SOPE  C21218160   4.627   0.958   9.690  0.2811 -0.6941 -0.2824
  162SOPE  H12R18161   4.678   0.969   9.788 -0.9189  0.3659  0.2417
  162SOPE  H12S18162   4.697   0.980   9.605 -0.4726 -2.6770 -1.4731
  162SOPE  C21318163   4.588   0.806   9.698 -0.3803 -0.3077  0.1602
  162SOPE  H13R18164   4.500   0.791   9.763 -0.5285  2.5663  0.7554
  162SOPE  H13S18165   4.673   0.753   9.747 -0.1095  0.0917  0.1353
  162SOPE  C21418166   4.569   0.748   9.555 -0.1548  1.1897 -0.6334
  162SOPE  H14R18167   4.496   0.814   9.504 -1.9824  1.5059  2.1579
  162SOPE  H14S18168   4.531   0.646   9.578  3.8886  0.0895  2.1899
  162SOPE  C21518169   4.698   0.720   9.483  0.2624  0.1514  0.3766
  162SOPE  H15R18170   4.746   0.622   9.506  1.3160  0.1269 -1.7269
  162SOPE  H15S18171   4.763   0.809   9.494 -0.6778  0.8596  0.3846
  162SOPE  C21618172   4.655   0.686   9.337  0.2368 -0.2762  0.0416
  162SOPE  H16R18173   4.739   0.695   9.264 -0.7809 -1.1121 -1.2719
  162SOPE  H16S18174   4.588   0.767   9.301  3.1654  1.9087 -0.8974
  162SOPE  C21718175   4.591   0.542   9.317 -0.9162 -0.5000  0.0389
  162SOPE  H17R18176   4.510   0.522   9.390  0.4403 -0.7342  1.5239
  162SOPE  H17S18177   4.671   0.466   9.333 -1.4363 -1.0885 -0.1119
  162SOPE  C21818178   4.550   0.523   9.171  0.2879 -0.0130  0.2357
  162SOPE  H18R18179   4.475   0.603   9.150 -0.2744 -0.7367 -0.5881
  162SOPE  H18S18180   4.496   0.427   9.163  1.4829 -0.6925  0.0990
  162SOPE  H18T18181   4.639   0.535   9.106  1.6714  1.1718  2.2251
  162SOPE   C3318182   4.058   2.091  10.034  0.2971  0.7032  0.2678
  162SOPE   H3X18183   4.109   2.185  10.063 -0.1139  0.6782  1.1120
  162SOPE   H3Y18184   3.954   2.113  10.002 -0.0991 -1.3471  0.0191
  162SOPE   C3418185   4.133   2.005   9.930  0.0382  0.4728 -0.3313
  162SOPE   H4X18186   4.084   1.906   9.927  0.2861  0.3645 -2.8024
  162SOPE   H4Y18187   4.241   1.994   9.956  0.7243  2.1326 -2.1524
  162SOPE   C3518188   4.123   2.067   9.794 -0.4983  0.5111 -0.3243
  162SOPE   H5X18189   4.161   2.169   9.813  0.5200  0.0529  0.1886
  162SOPE   H5Y18190   4.016   2.088   9.772 -0.8687 -0.6066  0.3178
  162SOPE   C3618191   4.209   1.996   9.692 -0.5774  0.9918  0.6350
  162SOPE   H6X18192   4.317   1.995   9.721 -0.6749 -1.0863  1.1175
  162SOPE   H6Y18193   4.200   2.040   9.591 -1.4431 -1.0139 -0.2093
  162SOPE   C3718194   4.166   1.847   9.683 -0.1583  0.3232  0.5794
  162SOPE   H7X18195   4.060   1.834   9.650 -0.2487  1.5830  0.3071
  162SOPE   H7Y18196   4.170   1.801   9.784  0.1269 -2.3636 -0.5599
  162SOPE   C3818197   4.253   1.763   9.597  0.0423  0.5651  0.5482
  162SOPE   H8X18198   4.229   1.655   9.608  2.7302 -0.1182  0.3951
  162SOPE   H8Y18199   4.361   1.782   9.616  0.0505  0.9363  0.1312
  162SOPE   C3918200   4.233   1.804   9.447 -0.1115  0.4409  0.0546
  162SOPE   H9X18201   4.240   1.915   9.453  2.3041  0.3338  0.4666
  162SOPE   H9Y18202   4.138   1.766   9.405 -0.1886 -0.8178  1.2720
  162SOPE  C31018203   4.343   1.761   9.343  0.3637 -0.0927 -0.3976
  162SOPE  H10X18204   4.432   1.818   9.377  0.4750 -1.5024  1.8725
  162SOPE  H10Y18205   4.317   1.784   9.237  2.4479  0.2165 -0.8969
  162SOPE  C31118206   4.383   1.613   9.371 -0.5180  0.6816 -0.0523
  162SOPE  H11X18207   4.307   1.532   9.362  3.5754 -3.4024 -2.0100
  162SOPE  H11Y18208   4.438   1.601   9.467  0.7182 -2.3922 -0.9928
  162SOPE  C31218209   4.477   1.566   9.264  0.3238  0.4405 -0.1147
  162SOPE  H12X18210   4.561   1.638   9.259  2.2660 -1.5948  1.0679
  162SOPE  H12Y18211   4.435   1.553   9.162 -0.7383  0.0085  0.3594
  162SOPE  C31318212   4.548   1.434   9.302  0.0503 -0.5819 -0.0200
  162SOPE  H13X18213   4.617   1.437   9.388 -1.2056  1.3269  0.9795
  162SOPE  H13Y18214   4.611   1.397   9.218 -0.9040 -0.8096 -0.6571
  162SOPE  C31418215   4.456   1.318   9.343  0.4301  0.2317  0.4158
  162SOPE  H14X18216   4.394   1.349   9.430 -1.1270  0.2680 -0.6430
  162SOPE  H14Y18217   4.510   1.226   9.372 -1.5381 -0.9647  0.4659
  162SOPE  C31518218   4.358   1.275   9.230  0.4530 -0.0952  0.2287
  162SOPE  H15X18219   4.411   1.212   9.156 -1.2078 -0.2306 -0.9062
  162SOPE  H15Y18220   4.322   1.361   9.169  0.2659 -1.0708 -1.0537
  162SOPE  C31618221   4.245   1.180   9.269  0.0181 -0.1486 -0.0855
  162SOPE  H16X18222   4.159   1.173   9.199 -1.3195 -2.4792  1.6708
  162SOPE  H16Y18223   4.197   1.226   9.358  0.6956  1.0768 -0.3269
  162SOPE  C31718224   4.290   1.028   9.284 -0.2406 -0.4993 -0.4173
  162SOPE  H17X18225   4.198   0.990   9.332  1.0080 -2.3198  0.6855
  162SOPE  H17Y18226   4.384   1.033   9.343 -0.8842  4.5619  0.6911
  162SOPE  C31818227   4.314   0.952   9.154 -0.0345 -0.7553  0.6932
  162SOPE  H18X18228   4.277   0.849   9.173 -2.6224 -0.3587 -1.5838
  162SOPE  H18Y18229   4.420   0.963   9.122  0.2014  0.4888  1.8156
  162SOPE  H18Z18230   4.246   0.988   9.074  1.0572  0.3915  0.2447
  163SOPE     N18231   2.889   4.798  10.760 -0.3157 -0.1638 -0.7105
  163SOPE   HN118232   2.825   4.877  10.775 -0.9454 -0.9080  0.7191
  163SOPE   HN218233   2.900   4.771  10.660  0.5024 -0.7970 -0.4667
  163SOPE   HN318234   2.832   4.723  10.804  1.1821 -1.3447 -0.6929
  163SOPE   C1218235   3.028   4.807  10.829 -0.1271 -0.5309 -0.2614
  163SOPE  H12A18236   3.084   4.736  10.764 -1.5162 -2.9206  1.0246
  163SOPE  H12B18237   3.020   4.773  10.934  2.6469 -0.1131  0.1716
  163SOPE   C1118238   3.073   4.951  10.836  0.4102 -0.6349  0.1109
  163SOPE  H11A18239   3.091   4.991  10.734 -3.8888 -0.4995 -0.7682
  163SOPE  H11B18240   3.168   4.947  10.893  0.2849  1.8668  0.5958
  163SOPE     P18241   2.892   5.147  10.847  0.0299  0.3775 -0.3063
  163SOPE   O1318242   2.985   5.261  10.801  0.3997 -0.1922  0.1029
  163SOPE   O1418243   2.786   5.189  10.947 -0.5575  0.3591 -0.5831
  163SOPE   O1218244   2.982   5.035  10.908  0.7840  0.2824 -0.2806
  163SOPE   O1118245   2.824   5.079  10.726  0.7335  0.2324 -0.5789
  163SOPE    C118246   2.760   5.135  10.617 -0.1370 -0.0584  0.2146
  163SOPE    HA18247   2.752   5.245  10.621  2.1652  0.4694 -3.5140
  163SOPE    HB18248   2.655   5.098  10.618 -0.4050  0.6891 -0.0223
  163SOPE    C218249   2.829   5.085  10.488  0.3863  0.9710  0.8913
  163SOPE    HS18250   2.858   4.982  10.519  1.3182  1.7531  2.7678
  163SOPE   O2118251   2.942   5.172  10.457 -0.4768  0.3595  0.2001
  163SOPE   C2118252   3.028   5.108  10.384 -0.3687 -0.2797 -0.8921
  163SOPE   O2218253   3.037   4.986  10.377  0.8464 -0.2856  0.8905
  163SOPE   C2218254   3.126   5.210  10.315 -0.5340  0.0137 -0.1067
  163SOPE   H2R18255   3.168   5.267  10.400  1.5580  0.7591 -1.5755
  163SOPE   H2S18256   3.066   5.273  10.246  1.7833  0.2737 -1.9935
  163SOPE    C318257   2.735   5.077  10.367 -0.4044  0.1192  1.0442
  163SOPE    HX18258   2.688   5.178  10.360 -0.7645 -0.0154  1.4809
  163SOPE    HY18259   2.651   5.012  10.399 -1.0235  0.2166 -0.3115
  163SOPE   O3118260   2.792   5.053  10.240  1.0321  0.7049  0.8782
  163SOPE   C3118261   2.804   4.927  10.194  0.1946  0.4986  0.0358
  163SOPE   O3218262   2.756   4.832  10.254  0.1936 -0.2839  0.3213
  163SOPE   C3218263   2.855   4.926  10.052 -0.4359 -0.0355 -0.2238
  163SOPE   H2X18264   2.935   5.003  10.048 -0.0071 -0.2916  1.9829
  163SOPE   H2Y18265   2.775   4.969   9.988  2.0737  3.7811 -1.1721
  163SOPE   C2318266   3.243   5.146  10.240 -0.4197 -0.2660  0.3667
  163SOPE   H3R18267   3.280   5.067  10.309 -0.3323 -0.5342  0.0120
  163SOPE   H3S18268   3.325   5.220  10.241 -0.7364  0.1089  2.3998
  163SOPE   C2418269   3.206   5.105  10.104 -0.3721 -0.1675 -0.1429
  163SOPE   H4R18270   3.151   5.009  10.116 -0.3996 -0.0338  0.8316
  163SOPE   H4S18271   3.159   5.187  10.045  1.5912  0.9460 -0.2501
  163SOPE   C2518272   3.331   5.081  10.014  0.5619 -0.8756  0.3196
  163SOPE   H5R18273   3.396   5.172  10.014 -1.6633  0.7944  1.2435
  163SOPE   H5S18274   3.390   5.002  10.066 -1.8198 -1.2864  2.5741
  163SOPE   C2618275   3.294   5.049   9.870 -0.8189  0.2778 -0.3595
  163SOPE   H6R18276   3.184   5.029   9.865 -0.4213 -2.6866  0.7258
  163SOPE   H6S18277   3.321   5.144   9.819  3.3314 -0.4153  0.2140
  163SOPE   C2718278   3.361   4.930   9.801 -0.6073 -0.2488  0.1815
  163SOPE   H7R18279   3.471   4.944   9.802 -0.2567 -2.2884 -2.1693
  163SOPE   H7S18280   3.340   4.839   9.861 -2.1653  1.6300  2.7337
  163SOPE   C2818281   3.316   4.922   9.656  0.3712  0.0517 -0.0980
  163SOPE   H8R18282   3.309   4.813   9.634  0.7249 -0.4684  2.1292
  163SOPE   H8S18283   3.216   4.972   9.657  0.7700  0.8707  0.9935
  163SOPE   C2918284   3.408   5.005   9.562 -0.3234 -0.0362 -0.0579
  163SOPE   H9118285   3.438   5.102   9.603 -0.2282 -1.1054  2.5655
  163SOPE  C21018286   3.453   4.958   9.443 -0.2669  0.4389 -0.3368
  163SOPE  H10118287   3.530   5.016   9.391  1.8260 -1.8310  0.0637
  163SOPE  C21118288   3.421   4.812   9.397  0.6560  0.3598  0.1983
  163SOPE  H11R18289   3.393   4.740   9.477 -0.7076 -0.9086 -1.3451
  163SOPE  H11S18290   3.506   4.756   9.353  1.4430 -0.3099  2.4062
  163SOPE  C21218291   3.300   4.802   9.302 -0.1552  0.3235  0.4013
  163SOPE  H12R18292   3.225   4.883   9.292 -0.5861 -0.1837 -0.5852
  163SOPE  H12S18293   3.242   4.707   9.307  0.1353  0.0839 -0.5572
  163SOPE  C21318294   3.360   4.813   9.156  0.0787  0.5779 -0.8322
  163SOPE  H13R18295   3.429   4.726   9.143 -1.5853 -1.0636  0.8210
  163SOPE  H13S18296   3.428   4.900   9.145  1.5695 -0.2821  0.9742
  163SOPE  C21418297   3.257   4.801   9.038  0.0403 -0.1713 -0.1885
  163SOPE  H14R18298   3.155   4.800   9.081 -0.5881  1.1650 -1.5901
  163SOPE  H14S18299   3.275   4.706   8.983 -0.2905 -1.1694  1.3700
  163SOPE  C21518300   3.249   4.925   8.942  0.2168  0.1297 -0.4812
  163SOPE  H15R18301   3.350   4.957   8.911  0.3104  1.1237  0.7944
  163SOPE  H15S18302   3.211   5.013   8.998  0.6648  0.9447 -1.4150
  163SOPE  C21618303   3.153   4.900   8.825 -0.6946  0.2985 -0.0604
  163SOPE  H16R18304   3.077   4.835   8.873  2.2977 -2.2528  1.5771
  163SOPE  H16S18305   3.205   4.833   8.753  0.2189  1.6421 -0.6838
  163SOPE  C21718306   3.097   5.029   8.762 -0.3681 -1.2466 -0.7763
  163SOPE  H17R18307   3.191   5.082   8.735 -0.3882  0.8953  2.7327
  163SOPE  H17S18308   3.066   5.101   8.841  1.1742  1.8715 -2.7841
  163SOPE  C21818309   2.995   5.021   8.647 -0.0954  0.5428  0.3857
  163SOPE  H18R18310   2.999   5.109   8.579 -0.3012 -0.6406 -1.2300
  163SOPE  H18S18311   2.894   5.002   8.690 -0.1908 -1.2827 -0.5530
  163SOPE  H18T18312   3.031   4.944   8.575 -1.2506 -1.8093  2.1755
  163SOPE   C3318313   2.898   4.792   9.991  0.0633  0.3460 -0.5876
  163SOPE   H3X18314   2.831   4.708  10.019  1.6933 -1.1274 -0.9226
  163SOPE   H3Y18315   2.990   4.761  10.045  0.3816  0.0482 -1.2893
  163SOPE   C3418316   2.918   4.798   9.841  0.1061 -0.0790  0.0394
  163SOPE   H4X18317   3.001   4.866   9.812  0.5359  0.6801  2.7634
  163SOPE   H4Y18318   2.822   4.836   9.799 -0.1362  2.0653  2.2788
  163SOPE   C3518319   2.957   4.660   9.787  0.4343 -0.6447 -0.6683
  163SOPE   H5X18320   2.864   4.601   9.800 -0.8411  1.4626  0.4097
  163SOPE   H5Y18321   3.043   4.613   9.840  0.8654 -2.1779 -2.6334
  163SOPE   C3618322   2.974   4.652   9.633 -0.2088  0.0017 -0.0321
  163SOPE   H6X18323   3.073   4.691   9.600  1.2975 -1.6038  2.3116
  163SOPE   H6Y18324   2.898   4.722   9.593  0.0615  0.0395 -0.4948
  163SOPE   C3718325   2.977   4.509   9.587  0.8878  0.3183 -0.5505
  163SOPE   H7X18326   2.871   4.478   9.599  0.3021  2.0044 -1.0605
  163SOPE   H7Y18327   3.045   4.438   9.638 -1.9571 -2.1133  0.1838
  163SOPE   C3818328   3.004   4.492   9.433  0.2454  0.1418  0.2220
  163SOPE   H8X18329   3.015   4.382   9.417 -1.8099 -0.1509  0.5294
  163SOPE   H8Y18330   3.099   4.535   9.397  0.9442 -0.7262  0.9813
  163SOPE   C3918331   2.894   4.558   9.350  0.4066  0.9563 -0.5987
  163SOPE   H9X18332   2.901   4.668   9.342 -1.9529  1.1043 -1.1850
  163SOPE   H9Y18333   2.795   4.534   9.394  0.1369 -0.3871 -1.8759
  163SOPE  C31018334   2.892   4.502   9.207 -0.4522 -0.6343 -0.1222
  163SOPE  H10X18335   2.887   4.392   9.217  0.2847 -0.5828  1.0626
  163SOPE  H10Y18336   2.992   4.529   9.165 -2.3195  2.8631 -2.9150
  163SOPE  C31118337   2.791   4.580   9.124  0.3851 -0.5309 -0.1732
  163SOPE  H11X18338   2.821   4.687   9.125  1.4257 -0.7920 -1.1367
  163SOPE  H11Y18339   2.699   4.581   9.186  0.4852  0.7716 -0.0237
  163SOPE  C31218340   2.780   4.528   8.976  0.2415 -0.2255 -0.3849
  163SOPE  H12X18341   2.692   4.575   8.927  0.6912  0.4562 -0.5473
  163SOPE  H12Y18342   2.768   4.418   8.973  2.1194 -0.4411 -2.0952
  163SOPE  C31318343   2.905   4.552   8.891 -0.2802  0.2041 -0.1163
  163SOPE  H13X18344   2.998   4.507   8.930 -1.5463 -1.0520  1.5968
  163SOPE  H13Y18345   2.927   4.661   8.901 -1.0206  0.3451  0.0174
  163SOPE  C31418346   2.887   4.518   8.744 -0.2489 -0.3061 -0.5972
  163SOPE  H14X18347   2.781   4.549   8.733  0.1808  2.8630  2.4355
  163SOPE  H14Y18348   2.905   4.408   8.738  0.0026 -0.5107  2.3034
  163SOPE  C31518349   2.984   4.589   8.654  0.1897 -0.0801 -0.1143
  163SOPE  H15X18350   3.092   4.582   8.680  0.4316 -0.6365 -1.2094
  163SOPE  H15Y18351   2.956   4.696   8.662 -0.6864 -0.2045 -1.2691
  163SOPE  C31618352   2.967   4.550   8.515 -0.2950 -0.8098 -0.1680
  163SOPE  H16X18353   2.863   4.554   8.475  0.2794  0.6379 -1.6185
  163SOPE  H16Y18354   2.999   4.443   8.506  2.0316 -0.3141  1.4760
  163SOPE  C31718355   3.045   4.618   8.403 -0.4970 -0.3074  0.2158
  163SOPE  H17X18356   3.015   4.725   8.396 -0.6357 -0.3326 -6.0637
  163SOPE  H17Y18357   3.025   4.571   8.304 -0.2590 -0.2609  0.1461
  163SOPE  C31818358   3.195   4.616   8.440 -0.7869 -0.5908  0.0422
  163SOPE  H18X18359   3.221   4.662   8.538  3.4152  0.1298 -1.1719
  163SOPE  H18Y18360   3.265   4.669   8.372 -1.4586  1.7867  1.0925
  163SOPE  H18Z18361   3.233   4.512   8.453 -1.8013 -0.7717  1.9639
  164SOPE     N18362   0.384   3.964  10.736  1.0272 -0.2389  0.3053
  164SOPE   HN118363   0.349   4.031  10.806  2.4415 -1.3421  2.1647
  164SOPE   HN218364   0.334   3.873  10.745 -1.8081  1.4352  3.5984
  164SOPE   HN318365   0.484   3.941  10.756  1.5279  1.3044 -0.3071
  164SOPE   C1218366   0.373   4.010  10.594 -0.5885 -0.0034  0.2723
  164SOPE  H12A18367   0.265   4.010  10.569 -0.5771  0.1719  0.2176
  164SOPE  H12B18368   0.422   3.940  10.524  1.0072  1.3130  0.0121
  164SOPE   C1118369   0.445   4.147  10.580  0.2575  0.2280 -0.4645
  164SOPE  H11A18370   0.436   4.167  10.471 -0.4393  0.7767 -0.3133
  164SOPE  H11B18371   0.550   4.122  10.606  0.1806  0.9697  0.6308
  164SOPE     P18372   0.301   4.357  10.624  0.0334  0.0937  0.1615
  164SOPE   O1318373   0.257   4.431  10.742  0.0328  0.0910  0.3611
  164SOPE   O1418374   0.195   4.308  10.535  0.0430  0.0073  0.3116
  164SOPE   O1218375   0.399   4.242  10.675  0.2391  0.2087  0.0688
  164SOPE   O1118376   0.408   4.441  10.543  0.1277  0.5330  0.0205
  164SOPE    C118377   0.414   4.434  10.396 -0.4651  0.4862 -0.8452
  164SOPE    HA18378   0.378   4.338  10.352 -0.0321 -0.2225  0.2853
  164SOPE    HB18379   0.523   4.444  10.376 -0.3693  1.0882 -0.0928
  164SOPE    C218380   0.352   4.559  10.331  0.3679 -0.2579 -0.1279
  164SOPE    HS18381   0.242   4.544  10.324  0.3025 -1.7607  2.5856
  164SOPE   O2118382   0.419   4.582  10.202 -0.7632  1.0382 -0.5563
  164SOPE   C2118383   0.355   4.510  10.109 -0.5767 -0.2439 -0.0470
  164SOPE   O2218384   0.267   4.431  10.123  0.3907  0.8402  0.3534
  164SOPE   C2218385   0.408   4.543   9.972  0.4167 -0.7262  0.3043
  164SOPE   H2R18386   0.518   4.560   9.975  0.1763  0.9791  0.8049
  164SOPE   H2S18387   0.359   4.639   9.944  0.5538 -0.3273  1.3976
  164SOPE    C318388   0.370   4.684  10.423  0.3689  0.3214 -1.0244
  164SOPE    HX18389   0.479   4.703  10.425  0.6869 -1.3996 -0.3845
  164SOPE    HY18390   0.335   4.668  10.527 -0.9370  0.7761 -1.3683
  164SOPE   O3118391   0.304   4.808  10.370  0.2416 -0.0609 -0.3683
  164SOPE   C3118392   0.171   4.802  10.379 -0.4112 -0.0653 -0.3444
  164SOPE   O3218393   0.106   4.704  10.419 -0.4574 -0.2640 -0.0808
  164SOPE   C3218394   0.109   4.931  10.323  0.3692  0.2644  0.3183
  164SOPE   H2X18395   0.137   5.002  10.404 -0.8864  0.7137  0.3758
  164SOPE   H2Y18396  -0.002   4.925  10.318  0.5000 -2.2787 -0.9921
  164SOPE   C2318397   0.382   4.443   9.847  0.0371  0.7284 -0.4844
  164SOPE   H3R18398   0.287   4.386   9.856  1.2104 -1.0926  1.5319
  164SOPE   H3S18399   0.464   4.367   9.853 -0.6346 -0.0846 -1.2220
  164SOPE   C2418400   0.385   4.520   9.717 -0.1542  0.3919  1.0263
  164SOPE   H4R18401   0.297   4.589   9.720 -0.1311  0.4893 -0.1714
  164SOPE   H4S18402   0.477   4.581   9.716 -1.0798  1.8497 -0.9014
  164SOPE   C2518403   0.396   4.439   9.591  0.0145 -0.0983 -0.4524
  164SOPE   H5R18404   0.466   4.353   9.599  0.4189  0.3269  0.6984
  164SOPE   H5S18405   0.293   4.400   9.577  0.2428 -0.7383 -0.3863
  164SOPE   C2618406   0.431   4.520   9.463  0.2967  0.4730  0.3700
  164SOPE   H6R18407   0.361   4.606   9.451  0.0032  0.2820  0.7129
  164SOPE   H6S18408   0.534   4.560   9.472 -0.0275  1.3662  0.2488
  164SOPE   C2718409   0.421   4.427   9.339  0.1188 -0.1873  0.3031
  164SOPE   H7R18410   0.492   4.347   9.370  3.9034  2.8588  0.1737
  164SOPE   H7S18411   0.312   4.406   9.330  0.2350 -0.9617  0.6573
  164SOPE   C2818412   0.480   4.491   9.212  0.2623  0.5246  0.0159
  164SOPE   H8R18413   0.471   4.407   9.140  1.3227 -1.2391  1.8481
  164SOPE   H8S18414   0.416   4.577   9.182 -1.7848 -0.9352  0.0260
  164SOPE   C2918415   0.623   4.532   9.218  0.4244 -0.1448  0.0108
  164SOPE   H9118416   0.676   4.468   9.290 -0.8211 -0.4799  0.6736
  164SOPE  C21018417   0.686   4.630   9.151  0.4432  0.3789 -0.1421
  164SOPE  H10118418   0.781   4.671   9.188  0.5142  3.1474 -2.9650
  164SOPE  C21118419   0.618   4.717   9.044 -0.3261 -0.4804 -0.3363
  164SOPE  H11R18420   0.631   4.825   9.067 -1.7623 -0.0048 -1.5880
  164SOPE  H11S18421   0.511   4.691   9.029  0.2376 -1.9378 -2.2317
  164SOPE  C21218422   0.683   4.703   8.906  0.3382 -0.2078 -0.3425
  164SOPE  H12R18423   0.680   4.594   8.886 -1.9424  0.0180 -1.5326
  164SOPE  H12S18424   0.792   4.723   8.911  0.2219  1.8519 -3.1159
  164SOPE  C21318425   0.622   4.773   8.784  0.0123  0.5863  0.0086
  164SOPE  H13R18426   0.581   4.874   8.808 -2.0953  0.1667 -1.5820
  164SOPE  H13S18427   0.529   4.723   8.750  0.4968  0.4133 -1.0860
  164SOPE  C21418428   0.720   4.780   8.665 -0.0101  0.4151 -0.3665
  164SOPE  H14R18429   0.755   4.675   8.658  0.4054  0.3745  1.6876
  164SOPE  H14S18430   0.811   4.837   8.691  0.5153 -0.3963 -0.3796
  164SOPE  C21518431   0.654   4.825   8.533 -0.1297 -0.0494 -0.4057
  164SOPE  H15R18432   0.596   4.919   8.546  0.0316 -0.1820  1.5377
  164SOPE  H15S18433   0.580   4.749   8.501 -0.3816 -0.3271  0.7684
  164SOPE  C21618434   0.760   4.856   8.425  0.1133  0.0617 -0.1507
  164SOPE  H16R18435   0.832   4.928   8.469  2.5051 -1.3364 -1.6042
  164SOPE  H16S18436   0.713   4.907   8.338  0.5415  1.1523  0.2365
  164SOPE  C21718437   0.847   4.734   8.381  0.3544 -0.0740  0.6133
  164SOPE  H17R18438   0.854   4.660   8.464  0.7698  1.8377  2.3663
  164SOPE  H17S18439   0.946   4.767   8.345 -0.8227  1.6464 -1.3052
  164SOPE  C21818440   0.779   4.671   8.254 -0.0723 -0.2179  1.0837
  164SOPE  H18R18441   0.669   4.657   8.256 -0.4965  0.7046 -4.0195
  164SOPE  H18S18442   0.831   4.576   8.232  0.8154  0.1523  1.5304
  164SOPE  H18T18443   0.794   4.736   8.165 -1.7935  0.0654  0.9576
  164SOPE   C3318444   0.162   4.963  10.184  0.3502 -0.4473 -0.5465
  164SOPE   H3X18445   0.139   4.882  10.112  3.1508 -2.0238  0.1666
  164SOPE   H3Y18446   0.273   4.957  10.182  0.3355 -0.8264 -0.3117
  164SOPE   C3418447   0.104   5.099  10.138 -0.3626  0.3485  0.6035
  164SOPE   H4X18448   0.129   5.170  10.219  1.4465  0.6039 -0.1211
  164SOPE   H4Y18449  -0.007   5.107  10.130 -0.4058 -0.0615  0.7809
  164SOPE   C3518450   0.160   5.168  10.013  0.2444  0.3855 -0.1257
  164SOPE   H5X18451   0.268   5.192  10.015  0.1005  1.0426  1.0103
  164SOPE   H5Y18452   0.106   5.265  10.009  0.1903  0.3318 -0.6971
  164SOPE   C3618453   0.145   5.083   9.883 -0.7202  0.5846  0.5111
  164SOPE   H6X18454   0.057   5.020   9.909 -0.9027  0.5343 -0.2233
  164SOPE   H6Y18455   0.232   5.016   9.869  1.2910  2.9844  0.7872
  164SOPE   C3718456   0.109   5.167   9.761 -0.6551  0.3518  0.3327
  164SOPE   H7X18457   0.191   5.239   9.739 -0.6046 -0.1474 -1.2516
  164SOPE   H7Y18458   0.019   5.229   9.781 -0.5616  0.7729 -0.5302
  164SOPE   C3818459   0.078   5.090   9.634 -0.1601  0.7284 -0.3505
  164SOPE   H8X18460  -0.008   5.022   9.648  0.8898 -0.4048  0.7672
  164SOPE   H8Y18461   0.162   5.021   9.611  1.5360  1.9760  1.7280
  164SOPE   C3918462   0.029   5.175   9.512  0.3274  0.2506  0.3462
  164SOPE   H9X18463   0.102   5.254   9.486  1.0349 -0.9615 -1.5652
  164SOPE   H9Y18464  -0.067   5.219   9.546 -0.2858 -0.2936 -0.6543
  164SOPE  C31018465  -0.004   5.100   9.378  0.0611 -0.6739  0.2640
  164SOPE  H10X18466  -0.078   5.018   9.390 -1.3355  0.2190 -1.5921
  164SOPE  H10Y18467   0.091   5.075   9.327  1.4401  0.1384  2.3242
  164SOPE  C31118468  -0.081   5.206   9.294  0.6054 -0.2008 -0.1831
  164SOPE  H11X18469  -0.054   5.313   9.302 -0.9278  0.1937 -0.0615
  164SOPE  H11Y18470  -0.188   5.203   9.321  0.7891 -0.6578  0.5264
  164SOPE  C31218471  -0.065   5.177   9.149 -0.1434  0.3260 -0.5801
  164SOPE  H12X18472  -0.097   5.073   9.123  0.6126  0.4204 -1.9665
  164SOPE  H12Y18473   0.033   5.202   9.104  0.5049  0.7429  0.9981
  164SOPE  C31318474  -0.163   5.250   9.060  0.5815 -0.4569  0.7402
  164SOPE  H13X18475  -0.126   5.353   9.039  1.1895 -0.4353  1.8342
  164SOPE  H13Y18476  -0.265   5.262   9.103 -0.2616 -1.8130 -0.7868
  164SOPE  C31418477  -0.170   5.183   8.926 -0.6676 -0.5730 -0.4528
  164SOPE  H14X18478  -0.068   5.159   8.891  0.2015  1.0471  0.8251
  164SOPE  H14Y18479  -0.216   5.252   8.851 -1.6295 -4.4291 -3.8121
  164SOPE  C31518480  -0.251   5.057   8.918  0.4738 -0.4429 -0.4077
  164SOPE  H15X18481  -0.340   5.074   8.983  1.0319  1.2936 -0.0257
  164SOPE  H15Y18482  -0.186   4.982   8.966  1.1099 -0.1008 -0.7242
  164SOPE  C31618483  -0.278   5.014   8.773 -0.5610  0.0984 -0.2725
  164SOPE  H16X18484  -0.364   5.074   8.736 -0.6787  0.1067  0.0124
  164SOPE  H16Y18485  -0.311   4.908   8.783 -0.1964 -0.0653 -0.7611
  164SOPE  C31718486  -0.155   5.036   8.669 -0.1911  0.0180  0.4521
  164SOPE  H17X18487  -0.064   4.989   8.712  1.0343  1.7792 -0.1422
  164SOPE  H17Y18488  -0.118   5.140   8.657  1.3630 -0.5945 -0.2973
  164SOPE  C31818489  -0.182   4.979   8.531  0.3561 -0.3805  0.3773
  164SOPE  H18X18490  -0.090   4.986   8.469 -0.7561  1.2370 -1.2274
  164SOPE  H18Y18491  -0.268   5.035   8.486  0.8566  0.0083 -0.1078
  164SOPE  H18Z18492  -0.230   4.879   8.532 -1.2035  0.2802 -1.2566
  165SOPE     N18493   5.842   3.529  11.115 -1.0777 -0.2724 -0.2821
  165SOPE   HN118494   5.881   3.520  11.212  1.4577 -1.2476 -1.3053
  165SOPE   HN218495   5.740   3.550  11.119 -1.0122 -0.0737  1.5792
  165SOPE   HN318496   5.855   3.432  11.082  3.0605 -0.4080  1.1379
  165SOPE   C1218497   5.919   3.627  11.020 -0.3775 -0.4013  0.0171
  165SOPE  H12A18498   6.025   3.595  11.006  0.8592  2.8426  0.9346
  165SOPE  H12B18499   5.913   3.729  11.064 -1.4203 -0.7991  0.8373
  165SOPE   C1118500   5.856   3.622  10.875  0.0633 -0.6719 -0.8428
  165SOPE  H11A18501   5.924   3.678  10.807 -1.3844  1.3898 -0.6951
  165SOPE  H11B18502   5.762   3.681  10.889  0.3415 -0.1796 -1.0213
  165SOPE     P18503   5.728   3.453  10.738  0.2018  0.0042 -0.3860
  165SOPE   O1318504   5.594   3.499  10.783 -0.2602 -0.0717 -0.4299
  165SOPE   O1418505   5.731   3.312  10.695 -0.1264 -0.1596  0.0378
  165SOPE   O1218506   5.838   3.485  10.839 -0.1958  0.3683  0.2504
  165SOPE   O1118507   5.761   3.538  10.612  0.5843 -0.2874 -0.5161
  165SOPE    C118508   5.886   3.530  10.550  0.3316 -0.4012 -0.1861
  165SOPE    HA18509   5.857   3.484  10.453 -0.9806  1.1664 -0.5895
  165SOPE    HB18510   5.963   3.472  10.604 -0.5614 -0.9284  0.5655
  165SOPE    C218511   5.938   3.664  10.516 -0.1342  0.5017 -0.8554
  165SOPE    HS18512   5.934   3.712  10.616 -2.6528  0.5005 -0.8964
  165SOPE   O2118513   5.851   3.727  10.421  0.4012 -0.1328  0.1929
  165SOPE   C2118514   5.866   3.858  10.421 -0.2255 -0.1897 -0.1506
  165SOPE   O2218515   5.917   3.927  10.504 -0.1306  0.4866  0.3365
  165SOPE   C2218516   5.778   3.924  10.305 -0.4322 -0.6619  0.0511
  165SOPE   H2R18517   5.698   3.980  10.357 -0.2070 -0.9079  0.6823
  165SOPE   H2S18518   5.722   3.844  10.251 -0.1681 -0.3905 -0.6305
  165SOPE    C318519   6.094   3.649  10.471  0.0772 -0.1790 -0.1530
  165SOPE    HX18520   6.151   3.575  10.531 -1.8596 -0.4816  1.4301
  165SOPE    HY18521   6.147   3.745  10.487  0.0920 -0.0485 -0.9744
  165SOPE   O3118522   6.101   3.608  10.334 -0.1795 -0.0332 -0.3210
  165SOPE   C3118523   6.106   3.706  10.241 -0.1991  0.0874  0.0073
  165SOPE   O3218524   6.129   3.821  10.260 -0.3166  0.8022  0.7468
  165SOPE   C3218525   6.081   3.641  10.110  0.4028  0.5086 -0.6021
  165SOPE   H2X18526   5.994   3.573  10.126  1.4203 -0.5600  0.6058
  165SOPE   H2Y18527   6.178   3.592  10.088  0.8657  0.7091  0.9051
  165SOPE   C2318528   5.847   4.026  10.207 -1.2142  1.2107 -1.3147
  165SOPE   H3R18529   5.928   3.965  10.162  1.0060  1.3461  2.1412
  165SOPE   H3S18530   5.897   4.106  10.266  2.4930 -2.2369  0.7777
  165SOPE   C2418531   5.759   4.091  10.099  0.0476  0.1336 -0.3901
  165SOPE   H4R18532   5.683   4.018  10.064  1.0738 -0.6556 -1.0385
  165SOPE   H4S18533   5.692   4.165  10.149 -1.2595 -0.5779 -1.0312
  165SOPE   C2518534   5.832   4.145   9.984 -0.4541 -0.3624  0.6973
  165SOPE   H5R18535   5.919   4.209  10.012 -1.0142  0.4786  0.5505
  165SOPE   H5S18536   5.868   4.064   9.918 -1.7431 -0.0333 -0.4421
  165SOPE   C2618537   5.733   4.237   9.914  0.1448 -0.1977 -0.4358
  165SOPE   H6R18538   5.677   4.298   9.988  0.6009  1.1905 -1.1901
  165SOPE   H6S18539   5.785   4.317   9.856 -0.6190 -0.5677 -1.6730
  165SOPE   C2718540   5.640   4.153   9.822 -0.0762 -0.1205 -0.6106
  165SOPE   H7R18541   5.713   4.096   9.762  0.7015  0.0575  0.1446
  165SOPE   H7S18542   5.585   4.080   9.885 -0.9384 -0.4914 -1.7605
  165SOPE   C2818543   5.567   4.236   9.720  0.2990  0.1772  0.3662
  165SOPE   H8R18544   5.501   4.313   9.766  0.6984 -0.3587  1.8726
  165SOPE   H8S18545   5.631   4.297   9.652  0.1493  1.9720  1.7625
  165SOPE   C2918546   5.473   4.140   9.644  0.2801 -0.6502 -0.1339
  165SOPE   H9118547   5.380   4.123   9.700  0.9320 -0.6213  0.9799
  165SOPE  C21018548   5.493   4.071   9.530 -0.5055 -0.4099  0.4723
  165SOPE  H10118549   5.414   4.009   9.486 -0.7388  1.4140 -1.8326
  165SOPE  C21118550   5.620   4.080   9.444  0.0705  0.6424  0.2189
  165SOPE  H11R18551   5.687   3.995   9.468 -0.0796 -0.3785 -2.6843
  165SOPE  H11S18552   5.676   4.173   9.471 -0.6163  0.7599  1.3305
  165SOPE  C21218553   5.584   4.085   9.298  0.1433 -0.3241  0.1968
  165SOPE  H12R18554   5.537   3.990   9.263 -1.9852 -0.1659  2.3651
  165SOPE  H12S18555   5.681   4.100   9.247  0.9945  2.5559  2.4106
  165SOPE  C21318556   5.495   4.210   9.256 -0.3513  0.6256 -0.8671
  165SOPE  H13R18557   5.537   4.313   9.267  2.0664 -0.3042 -0.7166
  165SOPE  H13S18558   5.403   4.216   9.318 -0.6757 -1.0760 -1.1494
  165SOPE  C21418559   5.436   4.193   9.116  0.0724 -0.5703 -0.1113
  165SOPE  H14R18560   5.392   4.288   9.078 -1.8759 -1.5033 -0.3182
  165SOPE  H14S18561   5.361   4.112   9.125 -0.8031  0.2212 -0.1510
  165SOPE  C21518562   5.541   4.159   9.005 -0.0092 -0.1354 -0.0174
  165SOPE  H15R18563   5.481   4.154   8.912  0.4595  2.7330 -0.5470
  165SOPE  H15S18564   5.587   4.059   9.019 -1.0830 -0.5065  1.0042
  165SOPE  C21618565   5.657   4.263   8.990  0.0649 -0.0821 -0.0727
  165SOPE  H16R18566   5.717   4.233   8.902  0.6906  1.9752 -0.3938
  165SOPE  H16S18567   5.720   4.253   9.081  1.6423 -0.6706 -1.2008
  165SOPE  C21718568   5.610   4.405   8.975 -0.2902 -0.0906 -0.2003
  165SOPE  H17R18569   5.533   4.441   9.047 -1.6228 -1.9345 -0.6299
  165SOPE  H17S18570   5.563   4.407   8.874 -0.3559 -0.3339 -0.1756
  165SOPE  C21818571   5.726   4.503   8.951 -0.0274  0.7807 -0.6421
  165SOPE  H18R18572   5.695   4.608   8.934  1.2535  0.9448 -2.1668
  165SOPE  H18S18573   5.788   4.468   8.866 -1.6181 -1.1396 -1.0853
  165SOPE  H18T18574   5.788   4.508   9.043 -0.4635 -0.1821 -0.2739
  165SOPE   C3318575   6.051   3.751  10.000 -0.4788 -0.1220 -0.1086
  165SOPE   H3X18576   6.137   3.821   9.998  0.1357 -0.8708 -0.9056
  165SOPE   H3Y18577   5.955   3.799  10.028 -0.0522 -0.7450  2.7518
  165SOPE   C3418578   6.029   3.691   9.860 -0.1131  0.4516  0.2840
  165SOPE   H4X18579   5.953   3.611   9.856  0.0769  0.2640  0.3980
  165SOPE   H4Y18580   6.122   3.638   9.827  0.5888  0.8798  1.5192
  165SOPE   C3518581   5.996   3.790   9.753  0.6019 -0.4909  0.0453
  165SOPE   H5X18582   6.071   3.870   9.767  2.2899 -2.1536  0.8367
  165SOPE   H5Y18583   5.898   3.842   9.766  0.7552 -0.3657  0.7335
  165SOPE   C3618584   6.019   3.755   9.608  0.2397 -0.0734 -0.6645
  165SOPE   H6X18585   5.960   3.667   9.578 -0.4397  0.3938 -0.7283
  165SOPE   H6Y18586   6.125   3.727   9.589  0.2425 -0.1190 -0.5841
  165SOPE   C3718587   5.967   3.861   9.507 -0.7607 -0.1188  0.4390
  165SOPE   H7X18588   5.998   3.961   9.544  1.5738 -0.6131 -0.0331
  165SOPE   H7Y18589   5.856   3.858   9.519 -0.6628  1.6365  2.2668
  165SOPE   C3818590   6.027   3.845   9.373  0.0732  0.4171 -0.2554
  165SOPE   H8X18591   6.026   3.734   9.365 -0.9992  0.2645  1.4311
  165SOPE   H8Y18592   6.133   3.879   9.373  0.5992 -1.1009 -1.4444
  165SOPE   C3918593   5.953   3.912   9.256 -0.7007 -1.0147  0.2605
  165SOPE   H9X18594   5.959   4.021   9.277  2.2588 -1.0469 -0.0736
  165SOPE   H9Y18595   5.848   3.876   9.264 -0.5144 -1.1156  2.8280
  165SOPE  C31018596   6.022   3.877   9.129 -0.1264 -0.5029  0.3302
  165SOPE  H10X18597   6.052   3.772   9.144 -0.6812 -0.4304  2.1495
  165SOPE  H10Y18598   6.124   3.920   9.122  1.0157 -2.9636  0.8874
  165SOPE  C31118599   5.950   3.894   8.989 -0.3008 -0.2917 -0.0577
  165SOPE  H11X18600   5.970   4.001   8.964 -2.1074  0.8473  2.7911
  165SOPE  H11Y18601   5.840   3.898   9.003 -0.4829 -0.5549 -1.2913
  165SOPE  C31218602   5.979   3.792   8.879  0.2966  0.3613 -0.3521
  165SOPE  H12X18603   5.928   3.697   8.905 -0.4831  1.1347  1.0761
  165SOPE  H12Y18604   6.090   3.783   8.879  0.3067  0.4219 -1.1854
  165SOPE  C31318605   5.938   3.843   8.741 -0.0037  0.7510 -0.3649
  165SOPE  H13X18606   5.977   3.944   8.715 -3.8057  1.9321 -2.1905
  165SOPE  H13Y18607   5.828   3.857   8.733 -0.4343 -0.5968  2.1539
  165SOPE  C31418608   5.985   3.745   8.624 -0.2689  0.2515  0.3521
  165SOPE  H14X18609   5.965   3.641   8.659  2.0779 -0.4864 -0.3055
  165SOPE  H14Y18610   6.095   3.753   8.627 -0.2380 -0.1649  0.3753
  165SOPE  C31518611   5.934   3.777   8.486 -0.5037 -0.2035  0.5937
  165SOPE  H15X18612   5.995   3.863   8.451 -0.9773 -0.5759 -1.2786
  165SOPE  H15Y18613   5.826   3.804   8.481 -0.0846  1.4245 -0.6220
  165SOPE  C31618614   5.961   3.668   8.378 -0.1534  0.8917 -0.1759
  165SOPE  H16X18615   5.918   3.699   8.281  1.7549  0.5731 -1.1841
  165SOPE  H16Y18616   5.924   3.567   8.407  0.0621  0.7919 -0.2403
  165SOPE  C31718617   6.111   3.648   8.342 -0.2754 -0.5045 -0.2222
  165SOPE  H17X18618   6.155   3.603   8.433 -1.4269 -1.2401 -0.0124
  165SOPE  H17Y18619   6.158   3.748   8.328  0.6474 -0.2259  3.6812
  165SOPE  C31818620   6.136   3.556   8.226 -0.3035  0.2744 -0.4004
  165SOPE  H18X18621   6.097   3.457   8.256  1.8599 -0.5855 -0.2504
  165SOPE  H18Y18622   6.244   3.534   8.208 -0.5683 -0.6897 -0.8641
  165SOPE  H18Z18623   6.106   3.590   8.125  1.5279  1.1992 -0.6815
  166SOPE     N18624   1.794   3.911  10.558 -0.3014 -0.1444 -0.1503
  166SOPE   HN118625   1.831   3.835  10.619  2.5209  1.1191 -0.1328
  166SOPE   HN218626   1.881   3.962  10.532 -0.5546  0.0235 -0.6863
  166SOPE   HN318627   1.734   3.969  10.620  1.5826 -0.1408  1.7901
  166SOPE   C1218628   1.732   3.838  10.443  1.0201 -0.8350 -0.8360
  166SOPE  H12A18629   1.820   3.789  10.397  1.6307  0.2619 -0.8641
  166SOPE  H12B18630   1.690   3.917  10.376 -1.7926 -0.5800  1.0536
  166SOPE   C1118631   1.617   3.734  10.477 -0.3826 -0.6414  0.2240
  166SOPE  H11A18632   1.669   3.663  10.545  2.7754  0.2490 -1.1027
  166SOPE  H11B18633   1.602   3.672  10.386  0.3787 -1.0342  0.3563
  166SOPE     P18634   1.458   3.756  10.676  0.0188 -0.0410 -0.0138
  166SOPE   O1318635   1.339   3.828  10.726 -0.1609  0.2298  0.3255
  166SOPE   O1418636   1.584   3.765  10.754  0.5704 -0.0301  0.1751
  166SOPE   O1218637   1.495   3.792  10.525 -0.4704 -0.0099 -0.2444
  166SOPE   O1118638   1.416   3.606  10.639  1.0584 -0.4075  0.2386
  166SOPE    C118639   1.293   3.571  10.583 -0.2846 -0.0092  0.3456
  166SOPE    HA18640   1.237   3.659  10.546  2.2073  1.1596 -0.9061
  166SOPE    HB18641   1.239   3.515  10.661  1.8631 -2.5530  0.1614
  166SOPE    C218642   1.314   3.496  10.451  0.0355  0.4739  0.2337
  166SOPE    HS18643   1.372   3.566  10.387  0.8879  0.4752  0.9830
  166SOPE   O2118644   1.187   3.453  10.382  0.1249 -0.0831 -0.2848
  166SOPE   C2118645   1.136   3.547  10.312  0.4440  0.2244 -0.3111
  166SOPE   O2218646   1.168   3.666  10.312 -0.1260 -0.0173  0.2606
  166SOPE   C2218647   1.010   3.486  10.239 -0.0285  0.4660  0.1988
  166SOPE   H2R18648   0.953   3.576  10.208 -0.4248  0.3029  0.4396
  166SOPE   H2S18649   0.954   3.424  10.313  0.7564 -0.4472  0.0504
  166SOPE    C318650   1.407   3.371  10.474 -0.3229 -0.1296  0.2726
  166SOPE    HX18651   1.358   3.320  10.560  0.7669 -0.1554  0.8851
  166SOPE    HY18652   1.502   3.420  10.504 -0.8651  1.3020 -0.2664
  166SOPE   O3118653   1.419   3.278  10.366 -0.1652 -0.6024  0.0787
  166SOPE   C3118654   1.511   3.324  10.278  0.1564 -0.2089 -0.0228
  166SOPE   O3218655   1.575   3.424  10.283 -0.0490 -0.2558  0.6004
  166SOPE   C3218656   1.516   3.237  10.159 -0.1603  0.4439 -0.1779
  166SOPE   H2X18657   1.414   3.230  10.115 -0.4966  0.1456  0.6228
  166SOPE   H2Y18658   1.541   3.133  10.190 -2.1611  0.3907  1.4533
  166SOPE   C2318659   1.063   3.410  10.118  0.2890 -0.1266 -1.1633
  166SOPE   H3R18660   1.151   3.349  10.146  0.6381 -0.4677 -2.9077
  166SOPE   H3S18661   1.088   3.482  10.038  0.8401  0.0963 -0.7936
  166SOPE   C2418662   0.958   3.307  10.073 -0.4007  0.7223 -0.2263
  166SOPE   H4R18663   0.918   3.243  10.154 -0.6415  0.1060 -0.8276
  166SOPE   H4S18664   0.872   3.365  10.032 -1.0210  1.0461  1.4760
  166SOPE   C2518665   1.022   3.200   9.985 -0.5685 -0.3026  0.8051
  166SOPE   H5R18666   1.099   3.143  10.040  0.0769  0.2727  0.5174
  166SOPE   H5S18667   0.942   3.127   9.960 -1.8126  1.0171  0.7680
  166SOPE   C2618668   1.093   3.265   9.862 -0.0202 -0.0972  0.4307
  166SOPE   H6R18669   1.036   3.351   9.820  1.2065  0.4719 -0.1442
  166SOPE   H6S18670   1.191   3.308   9.892  0.2264 -0.4442  0.1333
  166SOPE   C2718671   1.123   3.172   9.756  0.0104  0.3065 -0.6462
  166SOPE   H7R18672   1.184   3.089   9.798  1.3476  2.1877  1.3917
  166SOPE   H7S18673   1.034   3.120   9.713 -0.3325  0.1345  0.2447
  166SOPE   C2818674   1.193   3.232   9.626  0.7887  0.2387 -0.5709
  166SOPE   H8R18675   1.277   3.288   9.670  0.3836 -1.0665  2.1157
  166SOPE   H8S18676   1.235   3.157   9.555  2.1509  1.3142 -0.9314
  166SOPE   C2918677   1.120   3.334   9.542 -0.2818  0.4171  0.5867
  166SOPE   H9118678   1.140   3.441   9.559 -0.8818  0.5447  0.4936
  166SOPE  C21018679   1.035   3.295   9.445  0.3811  0.1346  0.3058
  166SOPE  H10118680   0.999   3.384   9.391  1.5044  1.7525  2.0985
  166SOPE  C21118681   1.003   3.153   9.413 -0.5346 -0.9168  0.8966
  166SOPE  H11R18682   0.999   3.079   9.496 -1.3069 -2.4451 -0.4427
  166SOPE  H11S18683   1.074   3.108   9.341  0.1979 -0.9213  1.6089
  166SOPE  C21218684   0.859   3.152   9.357  0.3792  0.2172 -0.5645
  166SOPE  H12R18685   0.785   3.204   9.421  0.1352 -0.3966 -0.3387
  166SOPE  H12S18686   0.830   3.045   9.364 -0.7034  0.5740  0.9312
  166SOPE  C21318687   0.847   3.189   9.210 -0.6816 -0.4279  0.5378
  166SOPE  H13R18688   0.896   3.287   9.194  1.8675 -1.9442 -1.8055
  166SOPE  H13S18689   0.739   3.194   9.181 -0.6493 -0.6897  0.3706
  166SOPE  C21418690   0.913   3.087   9.111 -0.3472 -0.1886  0.6297
  166SOPE  H14R18691   0.871   2.989   9.142  0.7277 -0.5149  1.0905
  166SOPE  H14S18692   1.023   3.094   9.122 -0.0071 -0.4900 -1.9073
  166SOPE  C21518693   0.875   3.101   8.959 -0.0409  0.2107 -0.1102
  166SOPE  H15R18694   0.931   3.185   8.913 -0.9337  0.1033 -1.4542
  166SOPE  H15S18695   0.768   3.116   8.933 -0.1023  3.4485  1.4783
  166SOPE  C21618696   0.923   2.977   8.877  0.5776 -0.0581 -0.1206
  166SOPE  H16R18697   1.026   2.966   8.918  1.4521 -1.4719 -2.4735
  166SOPE  H16S18698   0.938   3.007   8.771  0.5083  1.7316  0.3411
  166SOPE  C21718699   0.837   2.853   8.892  0.2916  0.3511  0.3651
  166SOPE  H17R18700   0.738   2.894   8.861  0.6096 -0.7491 -2.3183
  166SOPE  H17S18701   0.824   2.810   8.994  1.5341  2.0414  1.2893
  166SOPE  C21818702   0.884   2.743   8.796 -0.4119  0.5541  0.4972
  166SOPE  H18R18703   0.873   2.769   8.688 -0.9845 -1.5601 -0.0003
  166SOPE  H18S18704   0.837   2.648   8.829  0.6588 -0.2934 -0.3236
  166SOPE  H18T18705   0.993   2.730   8.811 -0.4863 -0.7882 -0.0354
  166SOPE   C3318706   1.625   3.282  10.057  0.1318  0.3187 -0.4983
  166SOPE   H3X18707   1.625   3.209   9.974 -4.3457 -1.2228  0.5548
  166SOPE   H3Y18708   1.722   3.291  10.110 -0.2473  2.6062 -0.0505
  166SOPE   C3418709   1.586   3.399   9.974  0.3946 -0.6481  0.5387
  166SOPE   H4X18710   1.678   3.438   9.925  0.1950 -1.5331 -0.5805
  166SOPE   H4Y18711   1.543   3.483  10.032 -1.2539 -1.4397  0.5187
  166SOPE   C3518712   1.475   3.376   9.873  0.1927 -0.1873  1.0349
  166SOPE   H5X18713   1.379   3.345   9.920 -0.4248 -1.1209 -0.7606
  166SOPE   H5Y18714   1.502   3.291   9.807 -1.7900 -1.0264  1.2172
  166SOPE   C3618715   1.449   3.499   9.781 -0.3156  0.0494 -0.3910
  166SOPE   H6X18716   1.390   3.457   9.696 -1.3124 -1.3833  0.9458
  166SOPE   H6Y18717   1.537   3.542   9.729 -0.2853  1.2669  0.6296
  166SOPE   C3718718   1.373   3.612   9.851  0.6636 -0.1631  0.3370
  166SOPE   H7X18719   1.430   3.650   9.938  0.3742 -2.0137  1.3909
  166SOPE   H7Y18720   1.274   3.572   9.883  0.6367  0.0191  0.4803
  166SOPE   C3818721   1.347   3.737   9.761  0.4264  0.3769 -0.4713
  166SOPE   H8X18722   1.444   3.789   9.747  0.9712 -0.6809 -0.7814
  166SOPE   H8Y18723   1.278   3.805   9.815  0.5437  0.2680 -0.1795
  166SOPE   C3918724   1.278   3.706   9.629 -0.6116  0.6550 -0.2161
  166SOPE   H9X18725   1.182   3.652   9.645 -0.8692  1.2624  0.3385
  166SOPE   H9Y18726   1.354   3.636   9.588  0.0122  1.6497 -0.7943
  166SOPE  C31018727   1.248   3.831   9.551  0.3502  0.2991  0.3482
  166SOPE  H10X18728   1.339   3.890   9.527  0.6259 -0.0407  0.5345
  166SOPE  H10Y18729   1.175   3.890   9.610  0.1861 -0.5373  1.0200
  166SOPE  C31118730   1.183   3.797   9.411  0.0247 -0.0908 -0.0835
  166SOPE  H11X18731   1.189   3.891   9.352 -0.1864  1.6140  2.4484
  166SOPE  H11Y18732   1.078   3.769   9.432  0.1453 -1.3095 -0.9946
  166SOPE  C31218733   1.255   3.684   9.329  0.0165 -0.1140  0.2162
  166SOPE  H12X18734   1.215   3.705   9.227 -0.5394  0.5889  0.5593
  166SOPE  H12Y18735   1.228   3.586   9.375 -0.2802 -0.1147  0.0439
  166SOPE  C31318736   1.406   3.693   9.320 -0.2985  0.1477  0.7042
  166SOPE  H13X18737   1.438   3.672   9.424  0.4009  1.1302  0.7050
  166SOPE  H13Y18738   1.439   3.798   9.303  0.8536 -0.4696 -1.1225
  166SOPE  C31418739   1.467   3.593   9.222  0.2626  0.3504 -0.4704
  166SOPE  H14X18740   1.417   3.609   9.124  1.4617  1.5258 -0.9140
  166SOPE  H14Y18741   1.443   3.490   9.257 -0.6309  0.5911 -0.3458
  166SOPE  C31518742   1.612   3.622   9.202 -0.0153 -0.6853 -0.0945
  166SOPE  H15X18743   1.673   3.632   9.294  1.1340 -0.8671 -0.8103
  166SOPE  H15Y18744   1.613   3.722   9.154  0.5073  0.5316  2.3086
  166SOPE  C31618745   1.675   3.534   9.092  0.0229  0.0429  0.6029
  166SOPE  H16X18746   1.624   3.542   8.994  0.1611  0.9996  0.5994
  166SOPE  H16Y18747   1.656   3.434   9.137 -0.9938 -1.0016 -1.9912
  166SOPE  C31718748   1.825   3.559   9.068 -0.1884  0.5692  0.3500
  166SOPE  H17X18749   1.852   3.627   9.152 -2.2451 -0.6653  2.0949
  166SOPE  H17Y18750   1.823   3.609   8.969 -0.0852  1.3792  0.7469
  166SOPE  C31818751   1.920   3.442   9.057  0.3885 -0.7206  0.1005
  166SOPE  H18X18752   1.920   3.390   9.155 -0.2006 -0.2308  0.3581
  166SOPE  H18Y18753   2.023   3.480   9.039  0.1480  1.8133  3.2879
  166SOPE  H18Z18754   1.888   3.364   8.984 -1.0361  0.4059 -0.5130
  167SOPE     N18755   3.762   2.304   5.617 -0.0023 -0.4880  0.5060
  167SOPE   HN118756   3.815   2.393   5.607  0.9984 -0.8644  2.1030
  167SOPE   HN218757   3.830   2.231   5.647  1.7779  1.3159  1.0839
  167SOPE   HN318758   3.734   2.272   5.522 -0.3891 -0.7082  0.6932
  167SOPE   C1218759   3.640   2.305   5.708 -0.0752 -0.7555 -0.1740
  167SOPE  H12A18760   3.589   2.208   5.687 -0.8551 -1.1005  2.8261
  167SOPE  H12B18761   3.568   2.380   5.670 -1.3930 -1.9568 -0.1324
  167SOPE   C1118762   3.660   2.349   5.856  0.8785  0.0297  0.4584
  167SOPE  H11A18763   3.561   2.345   5.905  0.2889 -3.2866 -0.7673
  167SOPE  H11B18764   3.704   2.451   5.865  2.2391 -0.6033  1.3257
  167SOPE     P18765   3.698   2.154   6.015  0.0245  0.2408  0.1979
  167SOPE   O1318766   3.805   2.096   6.101  0.0330 -0.1513 -0.4463
  167SOPE   O1418767   3.624   2.058   5.925  0.0538 -0.0393  0.1278
  167SOPE   O1218768   3.756   2.270   5.924 -0.1377  0.0267  0.2083
  167SOPE   O1118769   3.596   2.228   6.112 -0.4214  0.0384  0.5794
  167SOPE    C118770   3.630   2.338   6.193  0.3251 -0.6317 -0.2648
  167SOPE    HA18771   3.538   2.394   6.219  1.3718  0.6073  0.9644
  167SOPE    HB18772   3.690   2.410   6.132 -0.7954  0.2958 -0.2977
  167SOPE    C218773   3.722   2.302   6.317  1.2326  0.8585 -0.3799
  167SOPE    HS18774   3.810   2.242   6.285 -0.9577 -2.1742 -1.1929
  167SOPE   O2118775   3.644   2.236   6.421 -0.2752  0.0427  0.5711
  167SOPE   C2118776   3.702   2.128   6.468  0.0913 -0.1596 -1.0464
  167SOPE   O2218777   3.819   2.090   6.451 -0.2976 -0.6115  0.0325
  167SOPE   C2218778   3.606   2.049   6.559 -0.2252 -0.6225 -0.1660
  167SOPE   H2R18779   3.631   1.942   6.539  0.0484 -0.4373 -0.8507
  167SOPE   H2S18780   3.507   2.077   6.518 -0.0229 -1.2080 -1.0967
  167SOPE    C318781   3.770   2.433   6.381 -0.8299  0.0691  0.0914
  167SOPE    HX18782   3.687   2.508   6.379 -0.7968  0.2058  1.9609
  167SOPE    HY18783   3.850   2.464   6.311 -0.7078  0.7444  0.5152
  167SOPE   O3118784   3.822   2.421   6.514  0.3062  0.2615 -0.3911
  167SOPE   C3118785   3.932   2.497   6.543 -0.2203  0.3049  0.4124
  167SOPE   O3218786   3.954   2.598   6.482 -0.8556  0.1299  0.2755
  167SOPE   C3218787   4.011   2.443   6.664  0.7319 -0.2370  0.8440
  167SOPE   H2X18788   4.117   2.475   6.660  1.0881 -1.2514  1.9154
  167SOPE   H2Y18789   4.011   2.335   6.639  2.4324  0.3145 -2.0875
  167SOPE   C2318790   3.632   2.082   6.709  0.5588 -0.5326  0.3469
  167SOPE   H3R18791   3.738   2.074   6.738  1.1095 -0.2451 -1.4245
  167SOPE   H3S18792   3.581   1.998   6.761 -2.1277  0.4105 -0.5388
  167SOPE   C2418793   3.576   2.219   6.760 -0.2699  0.5351 -0.1560
  167SOPE   H4R18794   3.606   2.299   6.688 -0.8398 -0.4157 -1.4959
  167SOPE   H4S18795   3.466   2.215   6.779 -0.3272 -0.1781 -0.5952
  167SOPE   C2518796   3.637   2.251   6.899 -0.3277 -0.3926  0.2188
  167SOPE   H5R18797   3.746   2.232   6.897 -0.1015  0.8667 -0.0896
  167SOPE   H5S18798   3.612   2.357   6.921 -1.6101 -0.4739 -0.6928
  167SOPE   C2618799   3.574   2.166   7.009 -0.6201 -0.5937  0.5549
  167SOPE   H6R18800   3.467   2.191   7.029 -1.0813 -2.2488  0.2513
  167SOPE   H6S18801   3.572   2.061   6.975 -0.8643 -1.0266  1.8662
  167SOPE   C2718802   3.661   2.168   7.133 -0.0456  0.0578 -0.4125
  167SOPE   H7R18803   3.620   2.087   7.197 -2.1039 -0.3654 -2.1564
  167SOPE   H7S18804   3.764   2.136   7.108 -0.3644 -0.1827 -1.4617
  167SOPE   C2818805   3.677   2.298   7.219 -0.8441  0.8638 -0.0029
  167SOPE   H8R18806   3.762   2.282   7.290 -0.0864  0.6534 -0.9367
  167SOPE   H8S18807   3.713   2.373   7.145  1.4800 -0.5549 -0.4222
  167SOPE   C2918808   3.553   2.355   7.267  0.1205 -0.2178 -0.0609
  167SOPE   H9118809   3.475   2.363   7.190  0.1408  0.2216 -0.0367
  167SOPE  C21018810   3.525   2.386   7.394 -0.4525 -0.0458 -1.1480
  167SOPE  H10118811   3.427   2.435   7.410  0.2084  1.7733 -2.3368
  167SOPE  C21118812   3.612   2.367   7.523  0.1943  0.0863  0.7120
  167SOPE  H11R18813   3.656   2.467   7.545  1.1909 -0.1078 -0.3526
  167SOPE  H11S18814   3.702   2.307   7.499 -0.8815 -0.4264 -2.6400
  167SOPE  C21218815   3.526   2.309   7.640 -0.0759  0.1512  0.0967
  167SOPE  H12R18816   3.507   2.202   7.617  0.0356  0.2022 -0.2377
  167SOPE  H12S18817   3.430   2.365   7.646  0.7432  1.5104  0.8682
  167SOPE  C21318818   3.582   2.319   7.778  0.4141 -0.1685 -1.0049
  167SOPE  H13R18819   3.689   2.290   7.774  0.8398  1.2181 -0.3563
  167SOPE  H13S18820   3.527   2.260   7.854  0.1098  2.5474  1.0719
  167SOPE  C21418821   3.598   2.463   7.826  0.6001 -0.2298  0.2003
  167SOPE  H14R18822   3.497   2.508   7.833  1.0473  0.5461  1.9815
  167SOPE  H14S18823   3.660   2.528   7.761  1.9738 -1.8882 -0.2211
  167SOPE  C21518824   3.651   2.475   7.972 -0.3046 -0.2827  0.4055
  167SOPE  H15R18825   3.638   2.579   8.007 -2.0363 -0.8422  1.5329
  167SOPE  H15S18826   3.756   2.437   7.973 -0.6233 -1.2668  2.7227
  167SOPE  C21618827   3.571   2.377   8.072 -0.5221 -0.9046  0.5368
  167SOPE  H16R18828   3.617   2.278   8.051  3.6767  1.0067 -0.2566
  167SOPE  H16S18829   3.463   2.404   8.061  0.1320  1.2382 -1.6359
  167SOPE  C21718830   3.612   2.405   8.215 -0.5864  0.2410 -0.3673
  167SOPE  H17R18831   3.592   2.513   8.235 -0.7635  0.0449  0.5674
  167SOPE  H17S18832   3.721   2.393   8.235 -0.9055  0.7307  1.9975
  167SOPE  C21818833   3.533   2.318   8.315  0.4971  0.3933 -0.3499
  167SOPE  H18R18834   3.427   2.325   8.285 -0.0548  0.1027  1.4180
  167SOPE  H18S18835   3.557   2.357   8.416 -1.1586  1.1766 -0.2413
  167SOPE  H18T18836   3.564   2.211   8.322 -0.9416  0.0625  3.0077
  167SOPE   C3318837   3.944   2.456   6.801 -0.5300  0.0907 -0.7352
  167SOPE   H3X18838   3.989   2.376   6.864  1.0619  0.8065 -0.9027
  167SOPE   H3Y18839   3.834   2.440   6.800 -0.2881 -2.0185  0.5849
  167SOPE   C3418840   3.968   2.591   6.860 -0.9663  0.2449 -0.8826
  167SOPE   H4X18841   3.918   2.672   6.801  0.4098  1.3128 -0.6278
  167SOPE   H4Y18842   4.073   2.627   6.872 -0.7241 -0.3560 -1.1899
  167SOPE   C3518843   3.911   2.600   7.003  0.6639 -0.8399 -0.0923
  167SOPE   H5X18844   3.962   2.527   7.068 -0.2150 -0.0097  1.5848
  167SOPE   H5Y18845   3.800   2.599   6.999  0.6501  0.2594 -0.3955
  167SOPE   C3618846   3.943   2.748   7.054  0.6358 -0.1380 -0.2748
  167SOPE   H6X18847   3.894   2.821   6.986  1.0872  0.5247  0.1014
  167SOPE   H6Y18848   4.051   2.768   7.036  0.7423 -1.4670 -1.2928
  167SOPE   C3718849   3.905   2.771   7.196  0.4129  0.8177  0.6089
  167SOPE   H7X18850   3.979   2.747   7.275 -1.4468  2.1251  2.8612
  167SOPE   H7Y18851   3.808   2.721   7.220 -0.5111  3.2483  2.2962
  167SOPE   C3818852   3.893   2.923   7.209 -0.1978  0.0493 -0.3826
  167SOPE   H8X18853   3.822   2.960   7.132 -1.6752  3.2465  2.2362
  167SOPE   H8Y18854   3.986   2.972   7.173 -0.1110 -0.1935 -0.4857
  167SOPE   C3918855   3.851   2.973   7.340  0.4590 -0.2099  0.4976
  167SOPE   H9X18856   3.768   2.908   7.375  0.8290 -0.7242  0.4412
  167SOPE   H9Y18857   3.807   3.075   7.336 -0.0493 -0.4534 -0.2042
  167SOPE  C31018858   3.962   2.963   7.439 -0.0261  0.5047  0.4449
  167SOPE  H10X18859   4.048   3.010   7.386  1.9251 -1.3973  1.7077
  167SOPE  H10Y18860   3.994   2.860   7.470 -0.7702  0.0311 -0.3318
  167SOPE  C31118861   3.932   3.045   7.567 -0.0409 -0.3870 -0.1870
  167SOPE  H11X18862   3.882   3.137   7.531  1.2281 -0.0475 -1.1344
  167SOPE  H11Y18863   4.026   3.071   7.621 -1.2904 -0.6271  2.2595
  167SOPE  C31218864   3.826   2.986   7.663  0.3322 -0.1907  0.2999
  167SOPE  H12X18865   3.799   2.883   7.632  0.5010 -0.0459 -0.3400
  167SOPE  H12Y18866   3.736   3.049   7.647  1.9690  1.7400 -1.9692
  167SOPE  C31318867   3.881   2.991   7.809  0.2061  0.1682 -0.3011
  167SOPE  H13X18868   3.882   3.098   7.837 -2.0439  0.5901 -1.5763
  167SOPE  H13Y18869   3.990   2.971   7.803  0.2529  0.2302  0.2518
  167SOPE  C31418870   3.815   2.891   7.908 -0.5720  0.4514 -0.6995
  167SOPE  H14X18871   3.825   2.785   7.874  3.2084  0.3503  0.2114
  167SOPE  H14Y18872   3.714   2.924   7.940 -1.5926 -1.0638 -2.2056
  167SOPE  C31518873   3.889   2.874   8.042 -0.0790  0.0968  0.1447
  167SOPE  H15X18874   3.994   2.849   8.016  0.0082  1.2719 -0.7165
  167SOPE  H15Y18875   3.858   2.785   8.101  1.9329 -0.8587 -0.1717
  167SOPE  C31618876   3.871   2.994   8.140 -0.5032  0.3145 -0.7368
  167SOPE  H16X18877   3.769   2.994   8.185 -0.2359 -0.4162 -0.1098
  167SOPE  H16Y18878   3.877   3.083   8.074 -2.3708 -0.6507 -2.3024
  167SOPE  C31718879   3.972   3.011   8.253  0.2275  0.1396  0.1148
  167SOPE  H17X18880   4.068   2.995   8.200  1.1510  1.7374  1.1933
  167SOPE  H17Y18881   3.955   2.926   8.323 -0.4683 -0.0452 -0.2768
  167SOPE  C31818882   3.966   3.146   8.329  0.7377  0.4342  0.4634
  167SOPE  H18X18883   3.987   3.236   8.267 -1.1293  0.6766  0.1085
  167SOPE  H18Y18884   4.034   3.155   8.416  1.0345 -0.9246  0.3901
  167SOPE  H18Z18885   3.858   3.159   8.354  0.6113 -1.7328  1.2101
  168SOPE     N18886   2.077   5.418   6.430  0.2985  0.2126  0.3344
  168SOPE   HN118887   2.032   5.339   6.380 -1.2645 -0.4734  2.6768
  168SOPE   HN218888   2.035   5.504   6.388 -0.7974 -0.4181  0.1057
  168SOPE   HN318889   2.180   5.429   6.435  0.4106 -0.5983 -0.0618
  168SOPE   C1218890   2.000   5.411   6.564 -0.5419 -0.5914  0.1429
  168SOPE  H12A18891   2.041   5.493   6.627 -0.5923  0.5776 -1.2723
  168SOPE  H12B18892   2.016   5.310   6.607 -1.2915 -0.7296  0.0968
  168SOPE   C1118893   1.848   5.436   6.544 -0.1278  0.6201  0.5613
  168SOPE  H11A18894   1.789   5.449   6.637 -1.7614 -0.6083 -0.2514
  168SOPE  H11B18895   1.790   5.352   6.501 -0.4148  1.1429 -0.1015
  168SOPE     P18896   1.676   5.591   6.428 -0.0862 -0.0127 -0.0385
  168SOPE   O1318897   1.591   5.474   6.402  0.6201 -0.0422 -0.2984
  168SOPE   O1418898   1.680   5.698   6.321  0.1946 -0.0571 -0.0350
  168SOPE   O1218899   1.821   5.547   6.461  0.5438 -0.1363 -0.5670
  168SOPE   O1118900   1.618   5.656   6.563  0.5771 -0.1331  0.2223
  168SOPE    C118901   1.556   5.789   6.559  0.0821  0.3501  0.1923
  168SOPE    HA18902   1.451   5.767   6.533 -0.2492  2.5674 -0.5470
  168SOPE    HB18903   1.615   5.850   6.487  1.2773 -2.0948 -1.0611
  168SOPE    C218904   1.536   5.848   6.704 -0.5820  0.1014  0.6655
  168SOPE    HS18905   1.516   5.956   6.690 -1.8744 -0.2776 -0.8241
  168SOPE   O2118906   1.658   5.830   6.780  0.3967  0.5510 -0.1765
  168SOPE   C2118907   1.763   5.883   6.725  0.1996 -0.6336  0.2509
  168SOPE   O2218908   1.763   5.950   6.624  0.2921  0.1504 -0.3506
  168SOPE   C2218909   1.888   5.858   6.805 -0.0626 -0.0793 -0.1342
  168SOPE   H2R18910   1.968   5.918   6.756 -1.3558 -0.8684 -3.4871
  168SOPE   H2S18911   1.914   5.751   6.789 -1.4163 -0.6181  1.0128
  168SOPE    C318912   1.405   5.795   6.781 -0.1699 -0.8298  0.1307
  168SOPE    HX18913   1.402   5.684   6.776  3.0403 -0.9638 -1.4854
  168SOPE    HY18914   1.315   5.832   6.728 -0.9868 -0.3000  1.8339
  168SOPE   O3118915   1.391   5.838   6.923  0.0022 -0.2460 -0.4506
  168SOPE   C3118916   1.449   5.763   7.012 -0.1829 -0.3371 -0.0732
  168SOPE   O3218917   1.493   5.650   7.004 -0.6857 -0.0938  0.7898
  168SOPE   C3218918   1.456   5.848   7.137 -0.0347 -0.0840 -0.4568
  168SOPE   H2X18919   1.356   5.881   7.172 -0.0796  1.4702 -1.9102
  168SOPE   H2Y18920   1.512   5.942   7.123 -0.6552  0.4803  0.7261
  168SOPE   C2318921   1.878   5.877   6.952  0.6176  0.1237 -0.1886
  168SOPE   H3R18922   1.971   5.841   7.000  0.0683 -0.2171  0.6391
  168SOPE   H3S18923   1.795   5.819   6.998 -0.4392 -0.2841 -2.4477
  168SOPE   C2418924   1.862   6.026   6.977  0.4873  0.4229 -0.5283
  168SOPE   H4R18925   1.953   6.078   6.939 -0.8331  3.7433  0.4870
  168SOPE   H4S18926   1.776   6.062   6.917  0.6927 -0.3541 -1.3131
  168SOPE   C2518927   1.835   6.050   7.131  0.2747 -0.2824 -0.1694
  168SOPE   H5R18928   1.800   5.957   7.180  1.0751 -0.2032  0.5852
  168SOPE   H5S18929   1.931   6.086   7.176 -0.1084  1.2748 -0.5315
  168SOPE   C2618930   1.720   6.151   7.154  0.7799 -0.3963 -0.2443
  168SOPE   H6R18931   1.657   6.153   7.063  0.9564  1.1590 -0.3467
  168SOPE   H6S18932   1.650   6.115   7.233  0.0073 -0.0877 -0.7804
  168SOPE   C2718933   1.769   6.295   7.193  0.5543 -0.8092  0.1242
  168SOPE   H7R18934   1.859   6.322   7.135  0.8934 -0.5110  0.7864
  168SOPE   H7S18935   1.686   6.350   7.142  0.7620 -0.0456  0.5979
  168SOPE   C2818936   1.781   6.326   7.349  0.6766  0.8683  0.8055
  168SOPE   H8R18937   1.684   6.355   7.394 -0.4565  0.2422 -1.1237
  168SOPE   H8S18938   1.817   6.228   7.389  1.4060 -0.5587 -2.9118
  168SOPE   C2918939   1.898   6.419   7.367 -0.0588  0.9633 -1.3098
  168SOPE   H9118940   1.928   6.470   7.275  1.2850 -1.2056 -2.1436
  168SOPE  C21018941   1.987   6.425   7.472 -0.1434 -0.0727  0.5823
  168SOPE  H10118942   2.063   6.504   7.481  1.0494 -1.3122  1.9119
  168SOPE  C21118943   1.998   6.348   7.600  1.4570 -0.6460 -0.4973
  168SOPE  H11R18944   1.924   6.266   7.605  2.2558 -1.4359 -1.3024
  168SOPE  H11S18945   1.951   6.400   7.686 -0.2755 -2.4540 -0.2764
  168SOPE  C21218946   2.134   6.293   7.636 -0.4085 -0.1961 -0.1321
  168SOPE  H12R18947   2.157   6.206   7.572 -0.2732  0.3953 -0.9071
  168SOPE  H12S18948   2.127   6.243   7.735  1.3813  1.4214  0.8727
  168SOPE  C21318949   2.255   6.394   7.637 -0.1580 -0.5231  0.6822
  168SOPE  H13R18950   2.224   6.483   7.695 -0.3208  0.5608 -1.0276
  168SOPE  H13S18951   2.279   6.428   7.534 -0.7920 -0.8533  0.4148
  168SOPE  C21418952   2.393   6.348   7.702  0.4050  1.1019  0.2580
  168SOPE  H14R18953   2.439   6.262   7.649 -1.1200 -0.0494  0.7356
  168SOPE  H14S18954   2.361   6.314   7.803 -0.0587  0.1084 -0.2059
  168SOPE  C21518955   2.498   6.456   7.721 -0.2888  0.3542  0.4402
  168SOPE  H15R18956   2.462   6.545   7.779 -2.3139 -1.5271  2.2815
  168SOPE  H15S18957   2.521   6.497   7.621  3.1134 -2.2356 -0.0121
  168SOPE  C21618958   2.630   6.391   7.777  0.0135  0.0855 -0.2764
  168SOPE  H16R18959   2.657   6.305   7.711 -1.0210 -0.6531  0.2352
  168SOPE  H16S18960   2.606   6.339   7.872  1.1871  2.0115  1.1626
  168SOPE  C21718961   2.738   6.499   7.787 -0.7520 -0.9047 -0.4572
  168SOPE  H17R18962   2.693   6.579   7.850  1.0371 -0.5591  0.4511
  168SOPE  H17S18963   2.749   6.545   7.686  0.5969 -0.7992 -0.2795
  168SOPE  C21818964   2.875   6.467   7.851 -0.3446  0.2564  0.0640
  168SOPE  H18R18965   2.936   6.401   7.786 -1.7067 -0.9510 -0.0551
  168SOPE  H18S18966   2.851   6.405   7.941 -1.1802 -2.0678 -1.6616
  168SOPE  H18T18967   2.917   6.559   7.896 -2.5692  1.4649 -0.1877
  168SOPE   C3318968   1.531   5.776   7.254  0.1856 -0.8795  0.4703
  168SOPE   H3X18969   1.627   5.738   7.211  0.7546  0.5589  0.4365
  168SOPE   H3Y18970   1.468   5.685   7.269 -1.2940  0.1755  0.8500
  168SOPE   C3418971   1.534   5.874   7.369 -0.3951  0.7383 -0.8611
  168SOPE   H4X18972   1.434   5.869   7.418  0.1958 -1.7611  0.2243
  168SOPE   H4Y18973   1.548   5.981   7.342  1.0257  0.9380  0.5104
  168SOPE   C3518974   1.641   5.837   7.470 -0.1020 -0.2109 -0.1510
  168SOPE   H5X18975   1.739   5.835   7.418  0.1403  0.0193  0.2952
  168SOPE   H5Y18976   1.615   5.733   7.501  0.5634 -0.6743 -1.0759
  168SOPE   C3618977   1.653   5.934   7.589 -0.4044  0.1268  0.2998
  168SOPE   H6X18978   1.549   5.952   7.624 -0.2305  0.5854  0.5886
  168SOPE   H6Y18979   1.697   6.030   7.555  0.7030 -0.9315 -1.4234
  168SOPE   C3718980   1.749   5.874   7.692 -0.2533  0.4546 -0.7994
  168SOPE   H7X18981   1.825   5.808   7.645 -1.0290 -0.1836 -1.1914
  168SOPE   H7Y18982   1.686   5.800   7.746  0.6154 -1.0193 -1.7463
  168SOPE   C3818983   1.816   5.968   7.792 -0.3005  0.3970 -0.5789
  168SOPE   H8X18984   1.739   6.044   7.816 -0.9130 -0.7850  1.3984
  168SOPE   H8Y18985   1.894   6.029   7.742 -1.2909  3.0910  0.9502
  168SOPE   C3918986   1.864   5.888   7.913  0.0094  0.0217 -0.1975
  168SOPE   H9X18987   1.918   5.799   7.874  2.5497  1.8824 -1.1853
  168SOPE   H9Y18988   1.788   5.862   7.990  2.2221  1.2597  2.5898
  168SOPE  C31018989   1.958   5.973   7.992 -0.3487 -0.0876  0.7204
  168SOPE  H10X18990   1.893   6.033   8.058  0.2250  1.5799 -0.1768
  168SOPE  H10Y18991   2.018   6.045   7.932  0.1706  1.3425  2.8327
  168SOPE  C31118992   2.049   5.887   8.080 -0.3845 -0.2023 -0.5155
  168SOPE  H11X18993   2.132   5.851   8.016  1.2566  1.8089  0.3974
  168SOPE  H11Y18994   2.002   5.792   8.116  2.3669 -0.8110  1.7648
  168SOPE  C31218995   2.112   5.958   8.199 -0.1533  0.3213 -0.6822
  168SOPE  H12X18996   2.031   6.013   8.252 -2.5299 -0.9043 -2.8027
  168SOPE  H12Y18997   2.194   6.026   8.167  1.5236 -0.6774  1.3006
  168SOPE  C31318998   2.175   5.858   8.295 -0.3683  0.3513 -0.4350
  168SOPE  H13X18999   2.266   5.806   8.258 -0.3825  0.8557 -1.2249
  168SOPE  H13Y19000   2.112   5.767   8.300  1.3786 -0.9800 -1.3941
  168SOPE  C31419001   2.181   5.917   8.431 -0.2856 -0.3569 -0.0000
  168SOPE  H14X19002   2.088   5.969   8.465 -0.1379  0.7241 -1.1563
  168SOPE  H14Y19003   2.257   5.998   8.429  0.2240 -0.6059  3.3491
  168SOPE  C31519004   2.214   5.816   8.544 -0.6695 -0.5343 -0.0661
  168SOPE  H15X19005   2.241   5.880   8.631  2.0996 -0.7737 -0.6503
  168SOPE  H15Y19006   2.299   5.751   8.514 -0.7019 -0.5572 -0.1103
  168SOPE  C31619007   2.097   5.731   8.591 -0.0086  0.1641  0.2779
  168SOPE  H16X19008   2.045   5.669   8.514  0.2713 -2.5155  2.1115
  168SOPE  H16Y19009   2.023   5.811   8.616  1.3043  1.0904  1.3209
  168SOPE  C31719010   2.129   5.632   8.702 -0.7557  0.1780 -0.4312
  168SOPE  H17X19011   2.235   5.601   8.691 -0.1387  2.0189 -0.0855
  168SOPE  H17Y19012   2.064   5.544   8.686 -4.4162  2.6175 -0.3248
  168SOPE  C31819013   2.106   5.691   8.841  0.1130 -0.7119 -0.4409
  168SOPE  H18X19014   2.169   5.783   8.845 -0.3344 -0.2788 -2.2630
  168SOPE  H18Y19015   2.133   5.628   8.928 -4.1633 -0.8054  1.0120
  168SOPE  H18Z19016   2.004   5.734   8.848  0.0640 -1.1269  2.2853
  169SOPE     N19017   5.243   1.491   6.162 -0.3011  0.4156 -0.0538
  169SOPE   HN119018   5.253   1.565   6.091  0.5417 -1.1371 -1.6219
  169SOPE   HN219019   5.337   1.462   6.196 -1.1274 -0.6699  1.4516
  169SOPE   HN319020   5.190   1.413   6.118  1.1356  1.1391 -3.2632
  169SOPE   C1219021   5.154   1.557   6.265  0.0878  0.2147 -0.8979
  169SOPE  H12A19022   5.088   1.472   6.292  0.0806 -0.9263 -4.1496
  169SOPE  H12B19023   5.096   1.642   6.222 -0.7105  0.3182  0.3201
  169SOPE   C1119024   5.245   1.613   6.373 -0.2185  0.4471 -0.4608
  169SOPE  H11A19025   5.306   1.538   6.428 -0.0136  1.5308  0.8579
  169SOPE  H11B19026   5.179   1.654   6.452 -0.8806 -1.5108  0.0642
  169SOPE     P19027   5.311   1.858   6.304 -0.3453 -0.5542 -0.1948
  169SOPE   O1319028   5.186   1.897   6.231 -0.0877  0.3505  0.7254
  169SOPE   O1419029   5.436   1.922   6.250  0.1348 -0.3812 -0.2170
  169SOPE   O1219030   5.328   1.703   6.310 -0.6684 -0.5563  0.4885
  169SOPE   O1119031   5.297   1.908   6.453  0.3119  0.0652 -0.4025
  169SOPE    C119032   5.374   1.868   6.570  0.3001  0.1273  0.1511
  169SOPE    HA19033   5.414   1.764   6.563 -1.2122 -0.4432 -0.4384
  169SOPE    HB19034   5.302   1.853   6.654  0.8767 -1.9660  0.3422
  169SOPE    C219035   5.491   1.971   6.595  0.1738 -0.3440 -0.1386
  169SOPE    HS19036   5.538   2.004   6.500 -1.6074  0.1850 -0.8771
  169SOPE   O2119037   5.585   1.907   6.673 -0.0393 -0.6399 -0.7151
  169SOPE   C2119038   5.712   1.950   6.676  0.1255  0.1112 -0.0416
  169SOPE   O2219039   5.761   2.038   6.606 -0.5928  0.0870 -0.2674
  169SOPE   C2219040   5.798   1.861   6.765 -0.4821  0.9239  0.1090
  169SOPE   H2R19041   5.906   1.871   6.742 -0.4825 -4.0940 -3.7315
  169SOPE   H2S19042   5.774   1.755   6.740  0.6282  0.9365 -1.1034
  169SOPE    C319043   5.434   2.100   6.659 -0.2908 -0.1996 -0.0380
  169SOPE    HX19044   5.362   2.145   6.588  1.2443  1.3225 -0.7204
  169SOPE    HY19045   5.526   2.163   6.660  0.4763 -1.2130  2.3658
  169SOPE   O3119046   5.373   2.067   6.783  0.1387  0.0552 -0.4890
  169SOPE   C3119047   5.437   2.104   6.899 -0.8116  0.3967  0.2277
  169SOPE   O3219048   5.556   2.134   6.905  0.3413  0.2513  0.2638
  169SOPE   C3219049   5.344   2.081   7.019 -0.0142 -0.0573 -0.5799
  169SOPE   H2X19050   5.344   1.977   7.058 -0.3007 -0.1641 -0.8556
  169SOPE   H2Y19051   5.240   2.112   6.995 -0.3395 -0.5713  0.1386
  169SOPE   C2319052   5.780   1.895   6.922 -0.4938 -0.1715  0.3471
  169SOPE   H3R19053   5.672   1.881   6.943 -1.0082 -0.3775 -2.1113
  169SOPE   H3S19054   5.817   2.000   6.934  0.0171 -0.0675 -1.7780
  169SOPE   C2419055   5.855   1.812   7.017 -0.4074 -0.1602 -0.4328
  169SOPE   H4R19056   5.816   1.709   7.025 -0.5345 -0.0266  1.0279
  169SOPE   H4S19057   5.965   1.809   7.003 -0.3604 -1.8239  0.0907
  169SOPE   C2519058   5.829   1.871   7.162  0.2401  0.1114  1.0785
  169SOPE   H5R19059   5.909   1.838   7.232  3.4801  1.7661 -1.5473
  169SOPE   H5S19060   5.831   1.982   7.161  0.1554  0.1388 -1.1561
  169SOPE   C2619061   5.689   1.823   7.218 -0.8311  0.0632 -0.0411
  169SOPE   H6R19062   5.601   1.855   7.159 -0.8264  0.3830  0.1202
  169SOPE   H6S19063   5.700   1.713   7.218  0.4287  0.1790  0.1733
  169SOPE   C2719064   5.676   1.880   7.364 -1.1519 -0.7946  0.2987
  169SOPE   H7R19065   5.772   1.872   7.419 -1.1599 -0.5341  0.3541
  169SOPE   H7S19066   5.665   1.989   7.344  0.0934 -1.0257 -1.9135
  169SOPE   C2819067   5.556   1.817   7.434  0.2323  0.0971 -0.9964
  169SOPE   H8R19068   5.550   1.889   7.519  0.5180  1.9127 -2.4537
  169SOPE   H8S19069   5.464   1.832   7.373  0.3171 -1.9562 -1.7285
  169SOPE   C2919070   5.577   1.680   7.478  0.6733 -0.3299  0.9646
  169SOPE   H9119071   5.563   1.609   7.395  3.4949  0.0809  0.0078
  169SOPE  C21019072   5.589   1.633   7.601  0.3151 -0.2971  0.4794
  169SOPE  H10119073   5.601   1.524   7.612  0.9274 -0.3205 -0.3155
  169SOPE  C21119074   5.601   1.712   7.728  0.0610  0.0807  0.4395
  169SOPE  H11R19075   5.534   1.666   7.804  0.8739 -1.5151  0.2328
  169SOPE  H11S19076   5.547   1.806   7.707  1.9043  1.1281  0.1875
  169SOPE  C21219077   5.738   1.746   7.783  0.0882 -0.0460 -0.2992
  169SOPE  H12R19078   5.716   1.837   7.843 -1.6450  0.1438 -1.1510
  169SOPE  H12S19079   5.823   1.771   7.716  2.9360 -1.5668  2.5072
  169SOPE  C21319080   5.784   1.636   7.880 -0.4750  0.1989  0.9421
  169SOPE  H13R19081   5.807   1.547   7.816  0.5327  2.2318 -1.7525
  169SOPE  H13S19082   5.699   1.603   7.943 -0.2941 -0.2341  0.9642
  169SOPE  C21419083   5.907   1.670   7.966  0.2129  0.4340  0.3268
  169SOPE  H14R19084   5.993   1.661   7.896  0.0154  2.3522 -0.2312
  169SOPE  H14S19085   5.917   1.599   8.050  0.3910 -0.7511 -0.6669
  169SOPE  C21519086   5.919   1.814   8.014  0.0637 -0.3067 -0.3768
  169SOPE  H15R19087   5.837   1.851   8.079  1.3966 -1.7711  2.2835
  169SOPE  H15S19088   5.932   1.881   7.925  2.5333 -0.8744 -0.5187
  169SOPE  C21619089   6.049   1.842   8.097  0.3683 -0.7526  0.3159
  169SOPE  H16R19090   6.035   1.801   8.199 -2.6662  1.0314  0.7257
  169SOPE  H16S19091   6.063   1.953   8.101  0.3320 -0.5377 -2.8270
  169SOPE  C21719092   6.180   1.777   8.041 -0.0977 -0.7950  0.2739
  169SOPE  H17R19093   6.180   1.791   7.931  3.2293 -1.9491  0.0170
  169SOPE  H17S19094   6.174   1.667   8.055  0.5011 -0.7931  0.6075
  169SOPE  C21819095   6.307   1.821   8.118  0.1682 -1.3849 -0.8525
  169SOPE  H18R19096   6.284   1.812   8.226 -0.4123 -1.3408 -0.9689
  169SOPE  H18S19097   6.324   1.928   8.093  1.8022 -0.8846  2.0140
  169SOPE  H18T19098   6.394   1.760   8.086  0.1306 -1.3724 -0.9789
  169SOPE   C3319099   5.394   2.170   7.142 -0.1690  0.8037  0.5115
  169SOPE   H3X19100   5.383   2.278   7.116 -1.6068  0.3373 -0.9476
  169SOPE   H3Y19101   5.504   2.160   7.151 -0.0466  0.9880 -0.6592
  169SOPE   C3419102   5.309   2.138   7.266 -0.0146 -0.4569  0.7077
  169SOPE   H4X19103   5.289   2.029   7.276  1.5632 -0.9088 -0.5691
  169SOPE   H4Y19104   5.209   2.183   7.246  0.5706  0.0875 -1.2200
  169SOPE   C3519105   5.364   2.190   7.400 -0.0020 -0.5317 -0.7266
  169SOPE   H5X19106   5.368   2.301   7.394  0.6799 -0.5406 -0.5358
  169SOPE   H5Y19107   5.456   2.142   7.438 -2.1951 -1.1791  4.6503
  169SOPE   C3619108   5.260   2.163   7.513  0.0613  0.2424  0.2329
  169SOPE   H6X19109   5.258   2.054   7.535  0.8738  0.7707  3.5683
  169SOPE   H6Y19110   5.159   2.187   7.472 -1.0472 -1.2617  1.9201
  169SOPE   C3719111   5.279   2.237   7.641 -0.2447 -0.1049 -0.1938
  169SOPE   H7X19112   5.175   2.243   7.680 -0.1470 -2.2282  0.5177
  169SOPE   H7Y19113   5.316   2.341   7.634  1.5022 -0.5570  1.6326
  169SOPE   C3819114   5.366   2.156   7.736 -0.3876  0.4201  0.1970
  169SOPE   H8X19115   5.319   2.056   7.748 -2.3190  1.5256  2.6336
  169SOPE   H8Y19116   5.464   2.129   7.689 -2.1058 -1.9454 -2.3300
  169SOPE   C3919117   5.375   2.208   7.881  0.1248  1.0622 -0.0438
  169SOPE   H9X19118   5.271   2.211   7.921 -0.1119  2.8502 -0.6703
  169SOPE   H9Y19119   5.410   2.314   7.878 -0.0375  1.1184 -3.2912
  169SOPE  C31019120   5.464   2.114   7.966 -0.6263  0.5168 -0.5217
  169SOPE  H10X19121   5.554   2.180   7.974 -1.2249  1.1967  0.9733
  169SOPE  H10Y19122   5.487   2.024   7.906  0.4186 -1.4504  2.5852
  169SOPE  C31119123   5.416   2.076   8.109  0.4920  0.1846  0.5040
  169SOPE  H11X19124   5.329   2.006   8.106 -0.0056  0.8254 -1.3837
  169SOPE  H11Y19125   5.385   2.167   8.164 -0.2526 -0.3548  1.0006
  169SOPE  C31219126   5.532   2.016   8.187 -0.2369  0.3377 -1.6091
  169SOPE  H12X19127   5.599   2.103   8.175 -0.2775  0.2963 -2.1872
  169SOPE  H12Y19128   5.575   1.923   8.144  0.6751  0.5497 -1.1822
  169SOPE  C31319129   5.501   2.002   8.338  0.3581  0.1633  0.5508
  169SOPE  H13X19130   5.449   1.907   8.363 -0.4216  0.6927  1.0070
  169SOPE  H13Y19131   5.430   2.080   8.373  1.6248  1.0523  1.2286
  169SOPE  C31419132   5.620   2.011   8.433  0.0751  0.3034  0.5237
  169SOPE  H14X19133   5.578   1.979   8.531 -1.5243 -5.5957 -1.6352
  169SOPE  H14Y19134   5.649   2.118   8.434  0.3640  0.2598 -0.9737
  169SOPE  C31519135   5.743   1.928   8.394 -0.4981  0.0425 -0.1904
  169SOPE  H15X19136   5.798   1.963   8.305  0.4899 -0.6839  0.1148
  169SOPE  H15Y19137   5.712   1.821   8.388 -0.9062  0.0711  1.0716
  169SOPE  C31619138   5.853   1.922   8.501 -0.3949  0.1395  0.0955
  169SOPE  H16X19139   5.812   1.881   8.595  0.0123 -0.2615  0.1011
  169SOPE  H16Y19140   5.890   2.024   8.527 -1.9012  0.8882 -0.5994
  169SOPE  C31719141   5.969   1.834   8.464  0.2478  0.5057 -0.2417
  169SOPE  H17X19142   6.013   1.876   8.371  0.8285  0.4383  0.0039
  169SOPE  H17Y19143   5.943   1.729   8.437  0.1745  0.0979  1.3550
  169SOPE  C31819144   6.085   1.834   8.557 -0.4512 -0.2227 -0.6493
  169SOPE  H18X19145   6.129   1.935   8.566  0.1185 -0.3403 -1.8676
  169SOPE  H18Y19146   6.161   1.766   8.514  0.4038  0.7131 -0.6463
  169SOPE  H18Z19147   6.056   1.794   8.656  1.9372 -1.6706 -0.4555
  170SOPE     N19148   5.099   0.517   6.098 -0.1129 -0.3272 -0.3989
  170SOPE   HN119149   5.178   0.552   6.156  1.0227 -1.7893 -0.9973
  170SOPE   HN219150   5.037   0.470   6.166  2.2449  1.3128  3.2042
  170SOPE   HN319151   5.138   0.447   6.032  2.4596  0.9266 -0.3671
  170SOPE   C1219152   5.050   0.645   6.040 -0.5767 -0.3025 -0.4156
  170SOPE  H12A19153   4.960   0.663   6.102  0.6274  0.2076  1.2693
  170SOPE  H12B19154   5.032   0.634   5.931 -0.4080  3.3910 -0.9257
  170SOPE   C1119155   5.148   0.759   6.068  0.3665  0.0574 -0.5391
  170SOPE  H11A19156   5.126   0.837   5.992  2.2519 -1.3267 -2.6614
  170SOPE  H11B19157   5.256   0.734   6.058  0.5425  0.2241  0.7789
  170SOPE     P19158   5.033   0.919   6.251 -0.1215  0.3467 -0.0616
  170SOPE   O1319159   4.907   0.899   6.179  0.3317 -0.3758 -0.5057
  170SOPE   O1419160   5.094   1.050   6.233  0.4635 -0.0119  0.2666
  170SOPE   O1219161   5.139   0.810   6.204 -0.4988 -0.0874  0.7631
  170SOPE   O1119162   5.009   0.883   6.408 -0.1971  0.2768  0.5869
  170SOPE    C119163   4.953   0.751   6.432 -0.2700 -0.1994 -0.6576
  170SOPE    HA19164   5.025   0.668   6.412 -0.2890 -0.3420 -0.1521
  170SOPE    HB19165   4.857   0.744   6.377  0.5190  0.0739 -2.1144
  170SOPE    C219166   4.929   0.733   6.584 -0.0815  0.1299 -0.2768
  170SOPE    HS19167   4.915   0.626   6.610  1.0471  0.3420  1.4172
  170SOPE   O2119168   4.802   0.797   6.614 -0.4804 -0.1772 -0.6224
  170SOPE   C2119169   4.713   0.730   6.690  0.3009  0.0321 -0.6943
  170SOPE   O2219170   4.736   0.623   6.749  0.1197  0.5578 -0.1773
  170SOPE   C2219171   4.579   0.804   6.697 -0.1671 -1.0386  0.0277
  170SOPE   H2R19172   4.504   0.742   6.751 -1.3446  1.2924  1.1744
  170SOPE   H2S19173   4.542   0.839   6.598 -1.4783  1.1098  1.2252
  170SOPE    C319174   5.055   0.775   6.663 -0.0673 -0.1830  0.3154
  170SOPE    HX19175   5.067   0.882   6.636 -1.1202  0.1430  1.0763
  170SOPE    HY19176   5.140   0.710   6.634  0.2442 -0.3538  1.5718
  170SOPE   O3119177   5.036   0.766   6.803  0.4732  0.7858  0.1422
  170SOPE   C3119178   5.048   0.641   6.853  0.1259  0.0304 -0.0532
  170SOPE   O3219179   5.078   0.542   6.794 -0.3628 -0.6231  0.1610
  170SOPE   C3219180   5.031   0.647   7.008 -0.0489 -0.3398  0.1919
  170SOPE   H2X19181   4.930   0.690   7.021  0.7844  1.3032  1.6523
  170SOPE   H2Y19182   5.100   0.718   7.059 -0.1073 -0.4373  0.4114
  170SOPE   C2319183   4.597   0.937   6.780 -0.5140 -0.2708 -0.2437
  170SOPE   H3R19184   4.526   1.014   6.742  0.5335  1.1214  0.5355
  170SOPE   H3S19185   4.700   0.978   6.766 -0.0222 -1.0935  0.8138
  170SOPE   C2419186   4.558   0.931   6.930 -0.1919  0.1148 -0.3815
  170SOPE   H4R19187   4.514   1.031   6.947  2.0250  1.8789 -3.9449
  170SOPE   H4S19188   4.476   0.856   6.937 -1.4613  1.4278 -0.8640
  170SOPE   C2519189   4.669   0.904   7.028  0.1620 -0.1322  0.0325
  170SOPE   H5R19190   4.748   0.836   6.990 -0.2011 -0.5483  0.0172
  170SOPE   H5S19191   4.723   0.997   7.054  0.0643 -0.3899  1.2183
  170SOPE   C2619192   4.615   0.833   7.155 -0.0115 -0.4572  0.0829
  170SOPE   H6R19193   4.569   0.734   7.134  0.1338 -1.1390  2.6856
  170SOPE   H6S19194   4.710   0.812   7.208  0.3242  2.3707  0.7604
  170SOPE   C2719195   4.515   0.909   7.235  0.3283  0.0225  0.4500
  170SOPE   H7R19196   4.428   0.932   7.171  0.8350  2.8202  0.6117
  170SOPE   H7S19197   4.475   0.849   7.320 -1.2404 -1.4557 -1.2624
  170SOPE   C2819198   4.564   1.054   7.287  0.6043 -0.0199 -0.1061
  170SOPE   H8R19199   4.555   1.056   7.398  0.8187  0.5692 -0.0914
  170SOPE   H8S19200   4.673   1.072   7.273  0.3677  0.9215 -0.8421
  170SOPE   C2919201   4.496   1.172   7.216 -0.2953 -0.2352  0.2510
  170SOPE   H9119202   4.547   1.207   7.125 -2.9401  0.9441 -0.8831
  170SOPE  C21019203   4.376   1.229   7.245 -0.1930 -0.1046 -0.2657
  170SOPE  H10119204   4.352   1.325   7.198 -2.1245 -0.3165  0.2054
  170SOPE  C21119205   4.278   1.178   7.353 -0.7196 -0.1707 -0.0139
  170SOPE  H11R19206   4.284   1.068   7.365 -0.9844 -0.2033 -0.1789
  170SOPE  H11S19207   4.180   1.210   7.313 -0.3838 -0.4661 -1.1125
  170SOPE  C21219208   4.309   1.246   7.480  1.5254  0.4181 -1.4821
  170SOPE  H12R19209   4.274   1.351   7.470 -0.0256  0.1743  0.6861
  170SOPE  H12S19210   4.416   1.237   7.510  1.7240 -1.5239 -2.6214
  170SOPE  C21319211   4.239   1.193   7.614  0.3726 -0.2798  0.5792
  170SOPE  H13R19212   4.263   1.085   7.624  1.3010 -0.4150 -2.2157
  170SOPE  H13S19213   4.130   1.210   7.600  0.7545  1.0936 -1.0907
  170SOPE  C21419214   4.284   1.270   7.736  0.1987 -0.3623 -0.9187
  170SOPE  H14R19215   4.286   1.381   7.725  2.1732  0.0566  2.3453
  170SOPE  H14S19216   4.389   1.240   7.758 -0.3573 -2.1628 -0.5903
  170SOPE  C21519217   4.213   1.234   7.867  0.0350  0.1018 -0.0459
  170SOPE  H15R19218   4.213   1.123   7.867  0.2106  0.1033  0.2307
  170SOPE  H15S19219   4.110   1.273   7.851  0.0805  0.1853 -0.1403
  170SOPE  C21619220   4.294   1.282   7.994  0.9924 -0.1834  0.2689
  170SOPE  H16R19221   4.302   1.392   7.998  0.6697 -0.1943  2.2456
  170SOPE  H16S19222   4.398   1.243   7.995 -0.0064 -3.1146  1.1105
  170SOPE  C21719223   4.214   1.249   8.121 -0.7237  0.8626 -0.4345
  170SOPE  H17R19224   4.191   1.140   8.119 -1.1767  0.9556 -0.5018
  170SOPE  H17S19225   4.110   1.289   8.118 -0.8072  1.2095  2.9080
  170SOPE  C21819226   4.279   1.285   8.255  0.9975 -0.5338 -0.3623
  170SOPE  H18R19227   4.197   1.268   8.328  1.0140 -0.9211 -0.4328
  170SOPE  H18S19228   4.286   1.396   8.254  0.5013 -0.4041  2.5865
  170SOPE  H18T19229   4.380   1.246   8.278  1.4583  0.9303  0.2781
  170SOPE   C3319230   5.045   0.509   7.077  0.0075 -0.4185  0.3192
  170SOPE   H3X19231   5.151   0.476   7.069 -0.2062 -1.2777  0.8632
  170SOPE   H3Y19232   4.976   0.435   7.031  0.7658 -0.4953 -0.7195
  170SOPE   C3419233   5.028   0.524   7.227 -0.3084  0.4739  0.7995
  170SOPE   H4X19234   5.097   0.604   7.260  1.8417  0.0803 -2.2591
  170SOPE   H4Y19235   5.072   0.428   7.263 -3.4455 -1.2503  0.4699
  170SOPE   C3519236   4.893   0.538   7.289 -0.0412  0.3733  1.0780
  170SOPE   H5X19237   4.826   0.456   7.256  1.4631 -0.2280 -0.5894
  170SOPE   H5Y19238   4.851   0.638   7.263 -1.9695 -0.4653  0.8187
  170SOPE   C3619239   4.884   0.544   7.445  0.9965  0.4459 -0.9038
  170SOPE   H6X19240   4.780   0.565   7.479  1.8193  1.1994  1.3253
  170SOPE   H6Y19241   4.955   0.624   7.476  0.1519  1.2007 -0.8677
  170SOPE   C3719242   4.920   0.409   7.511 -0.2458  0.6462 -1.1183
  170SOPE   H7X19243   4.998   0.362   7.447 -0.6984 -1.6176 -0.0977
  170SOPE   H7Y19244   4.828   0.347   7.510  0.4726 -0.4829  0.2706
  170SOPE   C3819245   4.962   0.423   7.659  0.2314 -0.5547  0.0464
  170SOPE   H8X19246   5.044   0.499   7.661  1.1201 -1.5002  0.0298
  170SOPE   H8Y19247   5.001   0.325   7.692  1.3036 -0.4151 -0.7457
  170SOPE   C3919248   4.841   0.466   7.748  0.6928 -0.8705 -0.1585
  170SOPE   H9X19249   4.756   0.400   7.719 -0.3654  0.1722  0.4563
  170SOPE   H9Y19250   4.817   0.564   7.703 -1.0511 -0.2955  1.8864
  170SOPE  C31019251   4.875   0.492   7.900 -0.0827 -0.2534 -0.1317
  170SOPE  H10X19252   4.865   0.386   7.932  0.7260 -0.0879  0.7109
  170SOPE  H10Y19253   4.795   0.546   7.954 -0.9232 -0.6427 -0.9409
  170SOPE  C31119254   5.007   0.545   7.946  0.2504 -0.1005 -0.0747
  170SOPE  H11X19255   5.084   0.478   7.902 -0.9526 -1.5243 -0.1153
  170SOPE  H11Y19256   5.011   0.542   8.057  2.0476 -0.4337 -0.1234
  170SOPE  C31219257   5.017   0.691   7.903  0.4298 -0.2712 -0.2841
  170SOPE  H12X19258   4.952   0.742   7.977  1.6389  1.0890 -0.1140
  170SOPE  H12Y19259   4.975   0.699   7.801 -1.8603 -3.8156  0.1865
  170SOPE  C31319260   5.152   0.757   7.920 -0.3920 -0.0753  0.3816
  170SOPE  H13X19261   5.183   0.749   8.027  0.9495  1.6127  0.1748
  170SOPE  H13Y19262   5.145   0.867   7.902  1.4049  0.0090  0.0168
  170SOPE  C31419263   5.256   0.724   7.812  0.0580  0.1929 -0.3651
  170SOPE  H14X19264   5.214   0.725   7.709  2.7436  0.6091 -1.5287
  170SOPE  H14Y19265   5.291   0.618   7.823 -0.2314 -0.2373 -3.0653
  170SOPE  C31519266   5.384   0.809   7.822 -0.6963 -0.1284 -0.0551
  170SOPE  H15X19267   5.440   0.793   7.916  0.9525  3.5002 -0.2766
  170SOPE  H15Y19268   5.341   0.909   7.844 -0.1623 -0.2439  1.6331
  170SOPE  C31619269   5.474   0.800   7.702 -0.2578  0.5557 -0.3201
  170SOPE  H16X19270   5.478   0.691   7.680 -3.3604  0.4416 -0.8301
  170SOPE  H16Y19271   5.575   0.838   7.726  1.9039 -3.4168 -2.1464
  170SOPE  C31719272   5.420   0.872   7.578 -0.1943  0.2899  0.3434
  170SOPE  H17X19273   5.435   0.980   7.598 -2.4246  0.5451  0.9241
  170SOPE  H17Y19274   5.311   0.853   7.563  0.6589 -3.8129 -2.6092
  170SOPE  C31819275   5.481   0.830   7.436  0.4250  1.2048 -0.4719
  170SOPE  H18X19276   5.588   0.803   7.453  0.4946  0.1981 -2.2784
  170SOPE  H18Y19277   5.464   0.917   7.369 -0.3222  2.5864  1.4307
  170SOPE  H18Z19278   5.418   0.745   7.401  1.3222  1.1986 -2.1513
  171SOPE     N19279   0.831   2.479   6.316 -0.5013 -0.7947  0.3465
  171SOPE   HN119280   0.863   2.501   6.219  0.4289  2.1715  1.2239
  171SOPE   HN219281   0.803   2.378   6.317  0.8613 -1.1906  1.6016
  171SOPE   HN319282   0.745   2.535   6.330  0.3015  0.1103  1.8898
  171SOPE   C1219283   0.937   2.492   6.424  0.3200 -0.0951  0.3647
  171SOPE  H12A19284   1.024   2.424   6.405  1.5490  0.7284  2.6661
  171SOPE  H12B19285   0.889   2.443   6.511  0.6365 -1.3859 -0.1576
  171SOPE   C1119286   0.983   2.633   6.458 -0.4528 -0.5924  0.3428
  171SOPE  H11A19287   1.071   2.619   6.523  1.4726  1.4041 -1.6744
  171SOPE  H11B19288   0.906   2.693   6.512  0.0796  3.6302 -3.0556
  171SOPE     P19289   1.072   2.858   6.359  0.0427 -0.0232  0.1511
  171SOPE   O1319290   1.024   2.942   6.246 -0.4964 -0.5617 -0.1690
  171SOPE   O1419291   1.218   2.856   6.383 -0.3779 -0.4017  0.0328
  171SOPE   O1219292   1.023   2.710   6.342  0.5498 -0.8238  0.2581
  171SOPE   O1119293   1.002   2.910   6.489 -0.1317 -0.6299 -0.7439
  171SOPE    C119294   0.872   2.971   6.483  0.0680  1.0202 -0.4770
  171SOPE    HA19295   0.798   2.903   6.438  0.0487  2.0458 -2.0686
  171SOPE    HB19296   0.883   3.075   6.445  0.6063  1.4813  0.8807
  171SOPE    C219297   0.812   2.999   6.628 -0.4376  0.2725  0.2275
  171SOPE    HS19298   0.732   3.075   6.612  1.0137  2.3807  2.2334
  171SOPE   O2119299   0.910   3.034   6.721 -0.0748 -0.5463 -0.0921
  171SOPE   C2119300   0.972   3.148   6.710 -0.7907  0.2034 -0.4056
  171SOPE   O2219301   0.951   3.237   6.632  0.2000  0.4545  0.6090
  171SOPE   C2219302   1.069   3.153   6.834  0.0616  0.4883 -0.4421
  171SOPE   H2R19303   1.085   3.050   6.872 -1.5783  1.5114  3.4359
  171SOPE   H2S19304   0.999   3.199   6.907 -0.1339  0.8092 -0.8269
  171SOPE    C319305   0.736   2.868   6.679 -0.4006 -0.4620  0.3202
  171SOPE    HX19306   0.815   2.789   6.672  0.7218  0.6948 -0.4633
  171SOPE    HY19307   0.659   2.830   6.609 -0.0892 -1.3801  0.4515
  171SOPE   O3119308   0.680   2.878   6.809  0.4664  0.2954  0.1846
  171SOPE   C3119309   0.758   2.833   6.914  0.8264 -0.1852 -0.6638
  171SOPE   O3219310   0.862   2.775   6.905 -0.4286 -0.3317  0.8170
  171SOPE   C3219311   0.688   2.870   7.044 -0.2241 -0.4108 -0.1725
  171SOPE   H2X19312   0.589   2.819   7.043 -0.7756  0.6368 -0.9582
  171SOPE   H2Y19313   0.671   2.980   7.039 -2.2480 -0.7029 -0.5429
  171SOPE   C2319314   1.203   3.234   6.819  1.2047 -0.1065  0.4919
  171SOPE   H3R19315   1.177   3.323   6.757 -0.4036  0.0805  1.3745
  171SOPE   H3S19316   1.276   3.171   6.765  1.1035 -1.1358  1.5142
  171SOPE   C2419317   1.272   3.284   6.947  0.3805  0.2935  0.1536
  171SOPE   H4R19318   1.295   3.195   7.009  2.3872  0.7921  0.2116
  171SOPE   H4S19319   1.371   3.327   6.920 -0.6200  1.5074 -1.8777
  171SOPE   C2519320   1.199   3.398   7.025 -0.1827 -0.2351 -0.1988
  171SOPE   H5R19321   1.173   3.472   6.947 -1.3736 -3.7189 -3.4253
  171SOPE   H5S19322   1.105   3.354   7.065 -0.9350  1.9320  0.5354
  171SOPE   C2619323   1.276   3.466   7.135 -0.6161  0.5618 -0.0079
  171SOPE   H6R19324   1.357   3.521   7.085 -2.4606 -0.2327 -4.3168
  171SOPE   H6S19325   1.211   3.542   7.184  0.2583  1.3234 -0.0075
  171SOPE   C2719326   1.335   3.378   7.249  0.0781  0.5018 -0.0127
  171SOPE   H7R19327   1.252   3.328   7.303 -0.1633  0.1525 -0.6927
  171SOPE   H7S19328   1.394   3.292   7.209 -0.1911  0.3445 -0.0723
  171SOPE   C2819329   1.425   3.459   7.346 -0.5680 -0.6424  0.4858
  171SOPE   H8R19330   1.505   3.509   7.288 -0.9807 -1.0336 -0.4441
  171SOPE   H8S19331   1.357   3.529   7.400  0.0438  1.1551 -0.9434
  171SOPE   C2919332   1.480   3.370   7.456 -0.4308  0.5442 -0.3485
  171SOPE   H9119333   1.572   3.322   7.421 -1.4650 -0.0769 -2.3854
  171SOPE  C21019334   1.434   3.345   7.581  0.1812  0.1362  0.0311
  171SOPE  H10119335   1.491   3.288   7.656 -1.5093  2.4089  3.3148
  171SOPE  C21119336   1.312   3.398   7.651 -0.0503 -0.1987  0.1259
  171SOPE  H11R19337   1.255   3.317   7.703  0.7338  0.4782  2.1354
  171SOPE  H11S19338   1.245   3.446   7.576  3.2365  0.6731 -2.4877
  171SOPE  C21219339   1.344   3.515   7.742 -0.0078 -0.0033  0.2291
  171SOPE  H12R19340   1.250   3.542   7.795 -3.1259 -0.2311 -4.6194
  171SOPE  H12S19341   1.390   3.599   7.686  2.5128 -1.1847  0.3569
  171SOPE  C21319342   1.447   3.466   7.845 -0.1007 -0.3871  0.3590
  171SOPE  H13R19343   1.546   3.467   7.795 -0.6072  1.5906 -0.7051
  171SOPE  H13S19344   1.416   3.361   7.863 -1.1657  0.2224  2.3795
  171SOPE  C21419345   1.444   3.553   7.969 -0.3728 -0.1229 -0.4428
  171SOPE  H14R19346   1.343   3.579   8.006 -0.3048 -0.4716 -0.0135
  171SOPE  H14S19347   1.488   3.653   7.952 -0.7849  0.2816  0.8057
  171SOPE  C21519348   1.519   3.486   8.081 -0.3134  0.8111 -0.2205
  171SOPE  H15R19349   1.567   3.561   8.148  1.1308 -0.6086  0.4256
  171SOPE  H15S19350   1.605   3.424   8.047 -2.3584 -1.6311 -1.2127
  171SOPE  C21619351   1.442   3.381   8.161 -0.3057  0.3670  0.0737
  171SOPE  H16R19352   1.429   3.287   8.103 -0.7970  0.3510  0.1999
  171SOPE  H16S19353   1.337   3.416   8.169 -0.8595 -0.8084 -1.4668
  171SOPE  C21719354   1.498   3.353   8.300  0.2045 -0.5109  0.2195
  171SOPE  H17R19355   1.507   3.454   8.346 -0.4374 -0.6479  0.6697
  171SOPE  H17S19356   1.599   3.309   8.307 -0.2251 -1.7864 -1.1351
  171SOPE  C21819357   1.410   3.265   8.385  0.3187  0.5489  0.9147
  171SOPE  H18R19358   1.360   3.191   8.318  1.1955 -1.5481  2.4421
  171SOPE  H18S19359   1.320   3.320   8.420 -1.0221 -1.0023  0.0708
  171SOPE  H18T19360   1.459   3.211   8.469 -2.2408 -1.5685  1.1752
  171SOPE   C3319361   0.769   2.843   7.180 -0.1042 -0.2167  0.0195
  171SOPE   H3X19362   0.755   2.933   7.245  1.1431  0.6202 -0.8279
  171SOPE   H3Y19363   0.880   2.850   7.178 -0.1237  0.6701  0.9664
  171SOPE   C3419364   0.731   2.719   7.260 -0.3982  0.3650 -0.0551
  171SOPE   H4X19365   0.774   2.632   7.206  0.2849  1.7148 -1.7864
  171SOPE   H4Y19366   0.620   2.708   7.265 -0.7016  2.6701 -0.3554
  171SOPE   C3519367   0.801   2.714   7.399  0.3606 -0.2940  0.4244
  171SOPE   H5X19368   0.903   2.756   7.389  0.1560 -0.3574 -4.0300
  171SOPE   H5Y19369   0.814   2.608   7.429  1.4378 -0.3858 -0.3105
  171SOPE   C3619370   0.718   2.796   7.505  0.2025 -0.0233  0.5441
  171SOPE   H6X19371   0.617   2.752   7.518  1.2372 -3.2486 -1.2915
  171SOPE   H6Y19372   0.705   2.903   7.477 -1.1489 -0.6092 -1.2457
  171SOPE   C3719373   0.786   2.798   7.638  0.3016 -0.8649 -0.1464
  171SOPE   H7X19374   0.889   2.838   7.628  0.0027  0.3231  1.2136
  171SOPE   H7Y19375   0.789   2.691   7.669  0.9983 -0.2291  2.1126
  171SOPE   C3819376   0.699   2.870   7.753 -0.7804  0.1765 -0.4076
  171SOPE   H8X19377   0.612   2.801   7.765 -1.9273  1.1202 -2.6413
  171SOPE   H8Y19378   0.657   2.964   7.711 -0.7637  0.7022  0.7139
  171SOPE   C3919379   0.775   2.902   7.892  0.9903  0.2867  0.0138
  171SOPE   H9X19380   0.708   2.960   7.959  0.9078  1.4308 -1.0183
  171SOPE   H9Y19381   0.859   2.973   7.876  1.8378 -0.9177 -1.0753
  171SOPE  C31019382   0.842   2.776   7.958  0.3540 -0.2312  0.0872
  171SOPE  H10X19383   0.908   2.730   7.882  3.1730  0.2095  2.1039
  171SOPE  H10Y19384   0.762   2.701   7.979 -0.8293  1.2322  0.9534
  171SOPE  C31119385   0.923   2.814   8.083  0.0157  0.3443  0.5469
  171SOPE  H11X19386   0.860   2.886   8.138  0.5626  0.8068  0.5790
  171SOPE  H11Y19387   1.015   2.864   8.047  1.2082 -1.8382  0.3819
  171SOPE  C31219388   0.963   2.685   8.153 -0.2743  0.3965  0.1264
  171SOPE  H12X19389   1.008   2.617   8.078  0.4221  0.4502  0.4876
  171SOPE  H12Y19390   0.872   2.627   8.183 -1.8559  2.6086 -0.1137
  171SOPE  C31319391   1.075   2.706   8.254  0.1983 -1.1673  0.6403
  171SOPE  H13X19392   1.153   2.768   8.203 -0.0555  1.9548  3.6415
  171SOPE  H13Y19393   1.107   2.608   8.295  1.3524 -0.2540  2.0422
  171SOPE  C31419394   1.022   2.783   8.383  0.5816 -0.8104 -0.0136
  171SOPE  H14X19395   0.922   2.748   8.414 -0.2738  2.3348  1.1557
  171SOPE  H14Y19396   1.002   2.887   8.349 -0.1029 -1.0674 -0.4120
  171SOPE  C31519397   1.126   2.787   8.501 -0.4461 -0.2922 -0.3877
  171SOPE  H15X19398   1.172   2.691   8.532  0.9105  0.9893  1.7707
  171SOPE  H15Y19399   1.077   2.822   8.595  2.8896  1.1469  0.9532
  171SOPE  C31619400   1.227   2.897   8.475  0.1125  0.2704 -0.3753
  171SOPE  H16X19401   1.178   2.988   8.434 -0.4623  0.3226  0.3938
  171SOPE  H16Y19402   1.298   2.864   8.397  1.2029 -0.1428  0.7526
  171SOPE  C31719403   1.318   2.944   8.595  0.5334  0.0736  0.8802
  171SOPE  H17X19404   1.249   3.012   8.650 -0.4063  2.3226 -2.7585
  171SOPE  H17Y19405   1.401   3.005   8.553 -0.2500  0.2848 -0.4120
  171SOPE  C31819406   1.374   2.820   8.671 -0.3435 -0.9123  0.3763
  171SOPE  H18X19407   1.422   2.860   8.763 -2.6461  0.4538  1.0608
  171SOPE  H18Y19408   1.457   2.765   8.621  2.4390  0.9907  2.5898
  171SOPE  H18Z19409   1.300   2.740   8.694  0.1083 -1.2903  0.5300
  172SOPE     N19410   6.227   4.505   6.526  0.1007 -0.6251  0.4870
  172SOPE   HN119411   6.254   4.412   6.488  0.9733  0.7142 -2.5268
  172SOPE   HN219412   6.289   4.530   6.606  1.5593 -0.4064 -0.6585
  172SOPE   HN319413   6.127   4.524   6.549  0.3908  1.8977  0.0372
  172SOPE   C1219414   6.274   4.602   6.426  0.3514 -0.2467 -0.1085
  172SOPE  H12A19415   6.263   4.705   6.465  0.6690  0.2489 -1.2774
  172SOPE  H12B19416   6.205   4.601   6.339 -0.9902  0.9462  0.8964
  172SOPE   C1119417   6.425   4.571   6.389 -0.3461  0.0945  0.6138
  172SOPE  H11A19418   6.449   4.624   6.294 -2.8488 -0.5399 -0.4638
  172SOPE  H11B19419   6.436   4.466   6.354  2.1625  0.3011  0.5926
  172SOPE     P19420   6.596   4.701   6.520 -0.1133 -0.0357  0.0251
  172SOPE   O1319421   6.504   4.812   6.555 -0.1363 -0.0048  0.2622
  172SOPE   O1419422   6.683   4.725   6.403  0.2491  0.5775 -0.2610
  172SOPE   O1219423   6.510   4.582   6.504  0.1459  0.6270 -0.0264
  172SOPE   O1119424   6.696   4.672   6.643  0.3417 -0.1772  0.1138
  172SOPE    C119425   6.730   4.540   6.686 -0.1935  0.1756  0.1677
  172SOPE    HA19426   6.827   4.542   6.740 -1.2043  0.7111  2.0297
  172SOPE    HB19427   6.747   4.475   6.597  0.4927  0.6502 -0.0519
  172SOPE    C219428   6.631   4.482   6.787 -0.4397 -0.1270 -0.3397
  172SOPE    HS19429   6.526   4.482   6.751 -0.6894  0.7012  0.3403
  172SOPE   O2119430   6.629   4.568   6.902 -0.3794  0.1222  0.2830
  172SOPE   C2119431   6.523   4.563   6.984  0.1118  0.2659  0.5059
  172SOPE   O2219432   6.418   4.504   6.964  0.2610  0.3174  1.1425
  172SOPE   C2219433   6.566   4.629   7.116  0.6253 -0.0543 -0.0450
  172SOPE   H2R19434   6.599   4.731   7.084 -0.2940  1.3273  3.0165
  172SOPE   H2S19435   6.641   4.568   7.171  0.7760  0.9790  0.9489
  172SOPE    C319436   6.671   4.328   6.816 -0.2700 -0.3683 -0.5746
  172SOPE    HX19437   6.772   4.322   6.862 -0.1480  0.3864 -0.7231
  172SOPE    HY19438   6.678   4.272   6.720  0.9130  0.5383 -1.0532
  172SOPE   O3119439   6.593   4.265   6.914  0.1902  0.4954  0.0397
  172SOPE   C3119440   6.469   4.233   6.871 -0.0770  0.3311  0.3195
  172SOPE   O3219441   6.427   4.262   6.764  0.5563  0.1103  0.0789
  172SOPE   C3219442   6.385   4.152   6.968 -1.0912  0.5101  0.1029
  172SOPE   H2X19443   6.326   4.085   6.903 -2.3799  0.8538  0.8823
  172SOPE   H2Y19444   6.321   4.224   7.023 -1.8509  0.6666 -0.9611
  172SOPE   C2319445   6.435   4.641   7.209 -0.1792 -0.4236 -0.9246
  172SOPE   H3R19446   6.393   4.538   7.205  1.1238 -0.9294 -3.0959
  172SOPE   H3S19447   6.368   4.725   7.180 -0.9316  0.1334  2.1001
  172SOPE   C2419448   6.464   4.663   7.368  0.3751 -0.3534 -0.1299
  172SOPE   H4R19449   6.512   4.761   7.387  2.2241 -1.1867 -0.3470
  172SOPE   H4S19450   6.364   4.663   7.417 -0.0963  0.8806 -1.0319
  172SOPE   C2519451   6.555   4.554   7.422 -0.3402  0.1399 -0.3637
  172SOPE   H5R19452   6.528   4.450   7.393  0.8418 -0.4556  0.5483
  172SOPE   H5S19453   6.655   4.568   7.376 -0.2575 -0.9931 -0.5669
  172SOPE   C2619454   6.589   4.562   7.567 -0.5883  0.0623 -0.3291
  172SOPE   H6R19455   6.601   4.668   7.600  0.4631  0.8761 -3.0790
  172SOPE   H6S19456   6.510   4.509   7.626 -1.5055 -0.0647 -1.6251
  172SOPE   C2719457   6.713   4.475   7.599 -0.5675 -0.6964  0.3738
  172SOPE   H7R19458   6.693   4.371   7.566  0.2717 -0.0260 -2.5730
  172SOPE   H7S19459   6.797   4.503   7.532 -0.9747  0.9419  0.5044
  172SOPE   C2819460   6.752   4.468   7.748 -0.4691 -0.4699  0.2256
  172SOPE   H8R19461   6.677   4.417   7.811 -0.6352  0.5581  0.8717
  172SOPE   H8S19462   6.844   4.405   7.747 -0.5417 -0.5732 -0.4992
  172SOPE   C2919463   6.780   4.597   7.817 -0.0266 -1.0596  0.7331
  172SOPE   H9119464   6.697   4.669   7.823 -0.0587 -1.1510  1.4809
  172SOPE  C21019465   6.901   4.624   7.865 -0.1700 -0.2538 -0.7897
  172SOPE  H10119466   6.909   4.722   7.914  2.1034 -1.0925  0.6756
  172SOPE  C21119467   7.027   4.549   7.875  0.0505 -0.3160  0.1787
  172SOPE  H11R19468   7.102   4.595   7.807  0.6085  1.5957  1.9556
  172SOPE  H11S19469   7.007   4.447   7.837  0.5103  0.6255 -2.9000
  172SOPE  C21219470   7.076   4.544   8.022  0.4057 -0.1724 -0.2219
  172SOPE  H12R19471   7.004   4.484   8.082  0.3941  0.3746  0.3241
  172SOPE  H12S19472   7.078   4.648   8.062  1.3046 -0.0710 -0.5131
  172SOPE  C21319473   7.220   4.491   8.042 -0.2603 -0.8065 -0.0505
  172SOPE  H13R19474   7.238   4.385   8.010 -1.2887 -0.6841 -1.0984
  172SOPE  H13S19475   7.230   4.484   8.152 -1.0371 -0.1770  0.0664
  172SOPE  C21419476   7.329   4.582   7.987 -0.0381 -0.8741  0.0825
  172SOPE  H14R19477   7.362   4.660   8.059 -0.2550 -0.9844  0.3027
  172SOPE  H14S19478   7.289   4.642   7.902  1.7797  1.0905  0.5354
  172SOPE  C21519479   7.451   4.494   7.932  0.2355  0.2354  0.8348
  172SOPE  H15R19480   7.409   4.425   7.856  2.5212  0.6298 -0.9019
  172SOPE  H15S19481   7.475   4.432   8.021  0.3838  0.1067  0.7034
  172SOPE  C21619482   7.574   4.568   7.872  0.6307 -0.6269 -0.0534
  172SOPE  H16R19483   7.598   4.637   7.955 -4.1733 -1.0962  2.0684
  172SOPE  H16S19484   7.571   4.620   7.774 -1.1874 -2.4668 -1.0679
  172SOPE  C21719485   7.693   4.479   7.869  0.6941 -0.2490  0.4841
  172SOPE  H17R19486   7.698   4.431   7.969 -3.1807  1.7048  1.8139
  172SOPE  H17S19487   7.787   4.531   7.840  1.9713 -0.9935  3.0740
  172SOPE  C21819488   7.682   4.363   7.765  0.0690 -1.0656 -1.0914
  172SOPE  H18R19489   7.677   4.408   7.664 -3.0123  4.1858  1.0060
  172SOPE  H18S19490   7.596   4.295   7.781  0.1153 -1.3656 -2.0674
  172SOPE  H18T19491   7.774   4.302   7.778 -0.0427 -1.2504 -1.1670
  172SOPE   C3319492   6.466   4.070   7.074 -0.2669  0.2110 -0.0035
  172SOPE   H3X19493   6.552   4.017   7.028  1.0743  0.9397  1.5517
  172SOPE   H3Y19494   6.403   3.992   7.124 -0.0111  0.1917  0.2917
  172SOPE   C3419495   6.514   4.154   7.187 -0.1115  0.2556 -0.4351
  172SOPE   H4X19496   6.427   4.209   7.231 -1.1547 -0.0918 -1.9713
  172SOPE   H4Y19497   6.583   4.234   7.154  0.1288 -0.0929 -0.7800
  172SOPE   C3519498   6.584   4.064   7.291 -0.2583  0.4519 -0.8589
  172SOPE   H5X19499   6.675   4.019   7.246 -0.2603 -1.2340  0.6885
  172SOPE   H5Y19500   6.514   3.984   7.325 -0.7842  0.6128 -1.5532
  172SOPE   C3619501   6.628   4.134   7.419 -0.0715 -1.4225  0.9812
  172SOPE   H6X19502   6.540   4.176   7.473  0.6437  0.6237  0.6464
  172SOPE   H6Y19503   6.701   4.212   7.388 -1.2639 -0.2174  1.1324
  172SOPE   C3719504   6.708   4.050   7.512 -0.0818 -0.4957 -0.7529
  172SOPE   H7X19505   6.784   3.985   7.464 -0.1598 -0.0872 -1.4383
  172SOPE   H7Y19506   6.640   3.979   7.563 -0.0404  0.5545  0.8448
  172SOPE   C3819507   6.782   4.120   7.633  0.3582  0.0668  0.4205
  172SOPE   H8X19508   6.694   4.171   7.679 -1.6646 -2.9971  0.3034
  172SOPE   H8Y19509   6.863   4.191   7.608  1.2266 -1.0391  0.0229
  172SOPE   C3919510   6.836   4.010   7.727 -0.0144 -0.1225 -0.0417
  172SOPE   H9X19511   6.930   3.961   7.694  1.2943  1.7367  0.7610
  172SOPE   H9Y19512   6.752   3.938   7.735  0.6868 -0.6974  4.4651
  172SOPE  C31019513   6.854   4.080   7.868  0.0595  0.3962  0.1842
  172SOPE  H10X19514   6.766   4.144   7.890  1.4451  1.9878  1.3419
  172SOPE  H10Y19515   6.940   4.145   7.841  1.8584 -1.5352  1.0260
  172SOPE  C31119516   6.901   3.983   7.979 -0.0009  0.0497  0.1676
  172SOPE  H11X19517   6.999   3.943   7.947  0.3708  1.5542 -0.6564
  172SOPE  H11Y19518   6.832   3.897   7.985  1.4145 -1.2039 -0.8376
  172SOPE  C31219519   6.910   4.053   8.113 -0.1184 -0.1011  0.5477
  172SOPE  H12X19520   6.958   3.984   8.186  1.7395  0.0608 -0.4632
  172SOPE  H12Y19521   6.807   4.075   8.150 -1.5722 -2.5909 -1.6446
  172SOPE  C31319522   7.001   4.177   8.129 -0.5511 -0.4593  0.7403
  172SOPE  H13X19523   6.971   4.256   8.056 -0.7909 -1.2987 -0.0847
  172SOPE  H13Y19524   7.099   4.133   8.101 -1.6624 -1.6318 -1.5874
  172SOPE  C31419525   6.997   4.243   8.265 -0.3500  0.3753 -0.6910
  172SOPE  H14X19526   7.037   4.346   8.251  1.4245  0.0543  1.6196
  172SOPE  H14Y19527   7.056   4.187   8.340 -0.4537 -0.0492 -0.9224
  172SOPE  C31519528   6.860   4.255   8.339 -0.2270  0.4860 -0.0851
  172SOPE  H15X19529   6.840   4.147   8.355 -0.2481  0.4009 -0.6532
  172SOPE  H15Y19530   6.778   4.273   8.267  2.4779  1.6028 -3.1310
  172SOPE  C31619531   6.858   4.341   8.462 -0.3725 -0.1228 -0.7211
  172SOPE  H16X19532   6.890   4.445   8.436  0.3697  0.2075  1.3483
  172SOPE  H16Y19533   6.933   4.306   8.536  0.0901  1.5672 -0.3383
  172SOPE  C31719534   6.728   4.326   8.536  0.5825  0.3396 -0.0088
  172SOPE  H17X19535   6.709   4.219   8.560 -0.5609  0.7484  0.9889
  172SOPE  H17Y19536   6.653   4.367   8.465  0.6272 -0.3684 -0.4829
  172SOPE  C31819537   6.723   4.399   8.672 -0.2047 -0.1751  0.9972
  172SOPE  H18X19538   6.795   4.358   8.747  0.4860 -1.5885 -0.4000
  172SOPE  H18Y19539   6.622   4.394   8.717 -0.0625  0.5515  1.4167
  172SOPE  H18Z19540   6.742   4.506   8.648  0.5965 -0.9361 -2.2827
  173SAPI   C1219541   2.747   2.018  10.575  0.1216 -0.1104 -0.6713
  173SAPI    H219542   2.826   1.961  10.522  0.0668 -2.0468  1.2041
  173SAPI    O219543   2.786   2.011  10.717  0.4025 -0.2144  0.1831
  173SAPI   HO219544   2.871   1.968  10.721 -1.4069 -4.1580  1.2279
  173SAPI   C1319545   2.746   2.155  10.517  0.4891  0.0654  0.7674
  173SAPI    H319546   2.710   2.147  10.412  3.1149 -1.8119 -0.0721
  173SAPI    O319547   2.878   2.215  10.504 -0.3627  0.1106 -0.1626
  173SAPI   HO319548   2.874   2.280  10.434 -1.4234 -0.3810 -0.5738
  173SAPI   C1419549   2.651   2.236  10.598  0.5007  0.1205  0.4716
  173SAPI    H419550   2.698   2.238  10.699 -1.5339  1.6342  1.4647
  173SAPI    O419551   2.639   2.369  10.547  0.1992  0.1035 -0.6568
  173SAPI   HO419552   2.656   2.434  10.615  0.0935  2.2563 -2.5790
  173SAPI   C1519553   2.511   2.173  10.593 -0.6062 -0.8162 -0.3769
  173SAPI    H519554   2.477   2.183  10.488 -2.6131  2.9651  0.4482
  173SAPI    O519555   2.420   2.257  10.666  0.3911 -0.4527 -0.0772
  173SAPI   HO519556   2.380   2.199  10.731 -1.3967  1.1445  0.3303
  173SAPI   C1619557   2.512   2.021  10.635  0.2968  0.4533  0.5041
  173SAPI    H619558   2.515   2.009  10.745  1.3295 -1.1362  0.3218
  173SAPI    O619559   2.376   1.971  10.599  0.4909  0.1219 -0.2735
  173SAPI   HO619560   2.377   1.903  10.531  0.0509  0.1113 -0.2731
  173SAPI   C1119561   2.613   1.946  10.557 -0.3436  0.0773 -0.0400
  173SAPI    H119562   2.575   1.964  10.454 -0.6025 -0.5870 -0.0665
  173SAPI     P19563   2.591   1.675  10.496 -0.3892 -0.3337  0.4434
  173SAPI   O1319564   2.448   1.688  10.463 -0.0148  0.0512 -0.1680
  173SAPI   O1419565   2.636   1.558  10.565 -0.3606 -0.2879  0.4005
  173SAPI   O1219566   2.617   1.804  10.600  0.2068 -0.7378  0.2359
  173SAPI   O1119567   2.688   1.700  10.378 -0.6176 -0.5510  0.4438
  173SAPI    C119568   2.828   1.717  10.389 -0.0802 -0.7247 -0.5529
  173SAPI    HA19569   2.854   1.767  10.485  2.3260 -0.9455 -1.0198
  173SAPI    HB19570   2.876   1.617  10.400 -0.2396 -0.7062  0.3834
  173SAPI    C219571   2.881   1.786  10.266 -0.4008 -0.2921 -0.0034
  173SAPI    HS19572   2.991   1.796  10.278 -0.6057 -0.0941  1.8912
  173SAPI   O2119573   2.821   1.915  10.261 -0.2909 -0.1419 -0.0670
  173SAPI   C2119574   2.901   2.007  10.209 -0.2451  1.0931 -0.2390
  173SAPI   O2219575   3.025   2.007  10.206  0.0885  0.1549  0.2255
  173SAPI   C2219576   2.810   2.116  10.139 -0.1998 -0.0478 -0.4341
  173SAPI   H2R19577   2.708   2.110  10.183  0.3749 -0.3707  0.8965
  173SAPI   H2S19578   2.862   2.210  10.166 -0.2255 -0.6269  1.8257
  173SAPI    C319579   2.842   1.706  10.133 -0.4368 -0.2093  0.6046
  173SAPI    HX19580   2.734   1.727  10.119  0.0449  2.7799  0.6616
  173SAPI    HY19581   2.853   1.596  10.143 -0.6244 -0.2676  0.1671
  173SAPI   O3119582   2.925   1.744  10.021 -0.6013 -0.2534  0.0205
  173SAPI   C3119583   2.852   1.725   9.909 -0.5999  0.7694 -0.5493
  173SAPI   O3219584   2.746   1.663   9.908  0.5777  0.5224 -0.0309
  173SAPI   C3219585   2.918   1.771   9.778  0.3254  0.4988  0.2127
  173SAPI   H2X19586   2.985   1.692   9.737 -2.4736 -1.0568 -1.6571
  173SAPI   H2Y19587   2.980   1.858   9.808 -0.2130  0.6364  0.9630
  173SAPI   C2319588   2.801   2.092   9.985  0.3031  0.4688  0.4536
  173SAPI   H3R19589   2.760   1.990   9.973  0.1566  0.1049  3.3719
  173SAPI   H3S19590   2.906   2.095   9.947 -0.0685 -0.7299 -0.7375
  173SAPI   C2419591   2.724   2.203   9.916 -0.1629  0.5148 -0.0811
  173SAPI   H4R19592   2.784   2.296   9.918  1.9119 -0.7448  0.1560
  173SAPI   H4S19593   2.627   2.212   9.969 -0.1558  0.2345 -0.0149
  173SAPI   C2519594   2.691   2.163   9.776 -0.3012  0.3496 -0.7530
  173SAPI   H5R19595   2.593   2.115   9.762 -0.0990 -0.6000  0.8437
  173SAPI   C2619596   2.766   2.188   9.670 -0.9261 -0.6651  0.8404
  173SAPI   H6R19597   2.719   2.157   9.576  1.1295 -1.6110  0.0391
  173SAPI   C2719598   2.899   2.266   9.682  0.2797  0.4591 -0.4727
  173SAPI   H7R19599   2.935   2.261   9.786  1.3395 -2.1347 -0.8954
  173SAPI   H7S19600   2.879   2.374   9.665  0.4612  0.7562  1.0863
  173SAPI   C2819601   3.016   2.229   9.596  0.4484 -0.7737 -0.3327
  173SAPI   H8R19602   3.019   2.123   9.568  1.1188 -0.6099 -0.9026
  173SAPI   C2919603   3.105   2.313   9.544 -0.8213 -0.4368  0.3623
  173SAPI   H9R19604   3.185   2.270   9.483  0.0720  0.9312  0.5374
  173SAPI  C21019605   3.113   2.466   9.566  0.4763 -0.3899 -0.6226
  173SAPI  H10R19606   3.147   2.482   9.671  1.7563 -2.0369 -0.7480
  173SAPI  H10S19607   3.011   2.504   9.548  0.5335 -0.0025 -0.1436
  173SAPI  C21119608   3.219   2.556   9.499  0.4221  0.3669 -0.2109
  173SAPI  H11R19609   3.319   2.559   9.544  1.6570 -0.7882 -2.7105
  173SAPI  C21219610   3.198   2.621   9.381 -1.2959 -0.4189 -0.0273
  173SAPI  H12R19611   3.284   2.673   9.339 -2.0505  0.6692 -0.2742
  173SAPI  C21319612   3.066   2.632   9.305  0.8605  0.4467  0.5164
  173SAPI  H13R19613   2.979   2.649   9.372 -0.8975 -2.8420 -0.6624
  173SAPI  H13S19614   3.047   2.531   9.261 -0.9533  1.1767 -0.5309
  173SAPI  C21419615   3.069   2.747   9.206  0.5631  0.7471  0.3510
  173SAPI  H14R19616   3.086   2.845   9.253  0.1674 -0.1084  2.3710
  173SAPI  C21519617   3.044   2.746   9.072  0.4883  0.4803  0.3524
  173SAPI  H15R19618   3.053   2.837   9.011  2.0393 -0.4364 -0.8515
  173SAPI  C21619619   3.016   2.620   8.987 -0.6839 -0.2296 -0.1755
  173SAPI  H16R19620   2.910   2.629   8.952 -1.0935 -0.6308  0.9111
  173SAPI  H16S19621   3.025   2.528   9.049  0.4754  0.5778  0.9078
  173SAPI  C21719622   3.111   2.596   8.864 -0.0858 -0.3156  0.2924
  173SAPI  H17R19623   3.218   2.589   8.893  0.2894  0.3850 -0.8787
  173SAPI  H17S19624   3.099   2.691   8.809 -2.1770 -1.5199 -1.4901
  173SAPI  C21819625   3.076   2.476   8.782 -0.3368  0.0966  0.5313
  173SAPI  H18R19626   2.970   2.480   8.748 -0.7917  0.1439  1.9120
  173SAPI  H18S19627   3.080   2.380   8.838  0.2759 -1.1881 -1.5733
  173SAPI  C21919628   3.165   2.473   8.660 -0.0111  0.6523 -0.0915
  173SAPI  H19R19629   3.272   2.453   8.681  0.4014  1.1069 -1.6390
  173SAPI  H19S19630   3.163   2.576   8.618 -0.7790  0.8646  0.4531
  173SAPI  C22019631   3.138   2.366   8.554 -0.1349 -0.6228  0.3488
  173SAPI  H20R19632   3.050   2.397   8.494  2.1786  1.2106 -2.3070
  173SAPI  H20S19633   3.118   2.264   8.594 -1.8153 -0.6732 -0.5217
  173SAPI  H20T19634   3.226   2.356   8.487 -0.1756 -1.5281  0.4285
  173SAPI   C3319635   2.816   1.802   9.673  0.8344  0.2336  0.3473
  173SAPI   H3X19636   2.743   1.874   9.716  1.0922  0.2485  0.7746
  173SAPI   H3Y19637   2.755   1.714   9.646 -1.1615  1.9223 -0.8956
  173SAPI   C3419638   2.857   1.857   9.533 -0.1287  0.1808  0.4251
  173SAPI   H4X19639   2.940   1.930   9.545  1.1316 -1.3366  1.5112
  173SAPI   H4Y19640   2.763   1.900   9.494 -0.8775 -0.3243  1.6408
  173SAPI   C3519641   2.899   1.747   9.441 -0.6538  0.2198  0.0807
  173SAPI   H5X19642   2.808   1.684   9.432 -0.8498  0.5295 -0.1173
  173SAPI   H5Y19643   2.976   1.685   9.491 -0.3580  1.2599  0.9639
  173SAPI   C3619644   2.925   1.800   9.301 -0.8914  0.0905 -0.6320
  173SAPI   H6X19645   3.015   1.865   9.305 -0.4186 -0.6071  2.0641
  173SAPI   H6Y19646   2.841   1.861   9.262 -0.2159  1.9656  0.7035
  173SAPI   C3719647   2.942   1.689   9.198 -0.2077  0.0785 -0.1402
  173SAPI   H7X19648   2.849   1.637   9.168 -0.5940  1.0782 -0.7426
  173SAPI   H7Y19649   3.002   1.616   9.256 -0.0629  0.4986  0.2383
  173SAPI   C3819650   3.015   1.725   9.064  0.1764  0.5128  0.5758
  173SAPI   H8X19651   3.121   1.746   9.092  0.6268 -0.8997  0.0067
  173SAPI   H8Y19652   2.964   1.809   9.011 -0.7245 -0.6903 -0.5207
  173SAPI   C3919653   3.038   1.604   8.968 -0.6846  0.8098  0.0481
  173SAPI   H9X19654   2.942   1.557   8.939 -0.9197 -0.5722  2.7401
  173SAPI   H9Y19655   3.098   1.535   9.031  0.2775  1.4186 -0.1667
  173SAPI  C31019656   3.095   1.629   8.831 -0.2673 -0.1745 -0.4683
  173SAPI  H10X19657   3.034   1.704   8.777 -2.0304  0.2869  1.9528
  173SAPI  H10Y19658   3.082   1.543   8.761  1.9793  1.7730 -3.5207
  173SAPI  C31119659   3.239   1.677   8.847  0.2544 -0.0534  0.1222
  173SAPI  H11X19660   3.300   1.620   8.921 -0.0171 -1.0425 -0.3878
  173SAPI  H11Y19661   3.231   1.781   8.885 -0.4733 -0.1450  0.2431
  173SAPI  C31219662   3.312   1.668   8.716  0.3021  0.3009 -0.0416
  173SAPI  H12X19663   3.253   1.724   8.640 -1.1626 -0.6332  0.3620
  173SAPI  H12Y19664   3.320   1.565   8.676  0.2746  0.4861 -0.5263
  173SAPI  C31319665   3.451   1.727   8.715 -0.0173  0.5549  0.3291
  173SAPI  H13X19666   3.512   1.677   8.792  0.1166  1.6648  0.9577
  173SAPI  H13Y19667   3.446   1.836   8.736 -0.0145  0.4044  1.1311
  173SAPI  C31419668   3.530   1.695   8.585  0.1363  0.3100  0.0494
  173SAPI  H14X19669   3.628   1.741   8.611  0.4413 -1.2649  1.9038
  173SAPI  H14Y19670   3.487   1.752   8.500 -0.7096 -0.8901 -0.3562
  173SAPI  C31519671   3.561   1.544   8.551  0.2219 -0.3644  0.6190
  173SAPI  H15X19672   3.474   1.481   8.576  0.5331  0.3333  4.0212
  173SAPI  H15Y19673   3.645   1.532   8.623 -0.5317  1.2444  1.8335
  173SAPI  C31619674   3.615   1.521   8.407  0.2643 -0.5743  0.3058
  173SAPI  H16X19675   3.701   1.586   8.382 -0.9696  2.2788  2.8350
  173SAPI  H16Y19676   3.533   1.544   8.336 -0.1267 -1.9020  0.2997
  173SAPI  C31719677   3.645   1.368   8.387 -0.0978 -0.1143  0.4241
  173SAPI  H17X19678   3.551   1.316   8.416  0.2447 -0.1533  1.4966
  173SAPI  H17Y19679   3.727   1.336   8.455  1.1500  3.1963  0.6830
  173SAPI  C31819680   3.683   1.325   8.245  0.0097 -0.5589 -0.3542
  173SAPI  H18X19681   3.764   1.392   8.210 -1.4073  1.4745  0.0701
  173SAPI  H18Y19682   3.594   1.337   8.179 -0.6189 -2.7218  0.0490
  173SAPI  H18Z19683   3.718   1.220   8.238  1.1080 -0.1681 -1.1500
  174SAPI   C1219684   5.973   2.586  10.760 -0.5033  1.0116  0.5030
  174SAPI    H219685   5.937   2.685  10.726  0.5056  1.3689  0.4241
  174SAPI    O219686   6.042   2.531  10.645  0.1757  0.0914  0.4067
  174SAPI   HO219687   5.975   2.486  10.594 -0.0301 -0.3682  1.0837
  174SAPI   C1319688   6.054   2.591  10.888  0.0394  0.0555 -0.0069
  174SAPI    H319689   5.990   2.623  10.972  0.7047  2.0970 -0.2214
  174SAPI    O319690   6.166   2.680  10.866 -0.1656 -0.4881 -0.2095
  174SAPI   HO319691   6.138   2.763  10.907  0.0293  0.4703 -1.9417
  174SAPI   C1419692   6.100   2.449  10.924  0.2902 -0.5334 -0.2212
  174SAPI    H419693   6.170   2.424  10.842 -1.0957  0.8718 -1.9268
  174SAPI    O419694   6.180   2.443  11.043 -0.6992  0.2122 -0.7401
  174SAPI   HO419695   6.131   2.396  11.110 -1.5453 -0.6322 -1.9041
  174SAPI   C1519696   5.986   2.349  10.936  0.0400 -0.1635 -1.1989
  174SAPI    H519697   5.938   2.372  11.034  1.0601  0.2306 -0.7800
  174SAPI    O519698   6.040   2.221  10.948 -0.6592 -0.2225  0.1760
  174SAPI   HO519699   6.062   2.181  10.864  2.5383  2.5867 -0.5049
  174SAPI   C1619700   5.885   2.355  10.823 -0.6225  0.4308 -0.0604
  174SAPI    H619701   5.934   2.312  10.733  0.0613  1.0317  0.0134
  174SAPI    O619702   5.762   2.277  10.842 -0.6541  0.0765 -0.1713
  174SAPI   HO619703   5.704   2.330  10.787  1.1822  1.3924 -0.9616
  174SAPI   C1119704   5.845   2.502  10.786  0.1925 -0.4472  0.1233
  174SAPI    H119705   5.802   2.544  10.879 -1.3585 -0.5277 -0.5314
  174SAPI     P19706   5.677   2.623  10.616 -0.0929 -0.2631  0.3072
  174SAPI   O1319707   5.631   2.718  10.724  0.1450 -0.0330 -0.4667
  174SAPI   O1419708   5.575   2.553  10.536 -0.1441  0.3539  0.0652
  174SAPI   O1219709   5.758   2.498  10.674  0.1793 -0.4691  0.1195
  174SAPI   O1119710   5.775   2.678  10.510 -0.2651 -0.3474  0.0794
  174SAPI    C119711   5.795   2.818  10.496 -0.1943 -0.4306  0.0601
  174SAPI    HA19712   5.693   2.859  10.479  0.2409  1.0034  0.7968
  174SAPI    HB19713   5.839   2.862  10.587  0.5103 -1.7573  0.3904
  174SAPI    C219714   5.884   2.864  10.378 -0.4016 -0.1852 -0.3203
  174SAPI    HS19715   5.858   2.966  10.343  3.1873  0.4255 -1.6784
  174SAPI   O2119716   5.892   2.772  10.269  0.5758 -0.2368  0.0770
  174SAPI   C2119717   5.778   2.762  10.208 -0.3785  0.2142  0.9947
  174SAPI   O2219718   5.680   2.835  10.222  0.3128 -0.0089 -0.0697
  174SAPI   C2219719   5.783   2.642  10.102 -0.2666  0.0669 -0.0634
  174SAPI   H2R19720   5.888   2.606  10.107  0.4046  2.0547  1.4392
  174SAPI   H2S19721   5.711   2.563  10.133 -1.3527  0.6533 -1.0079
  174SAPI    C319722   6.028   2.874  10.437  0.7237 -0.0894 -0.2155
  174SAPI    HX19723   6.052   2.790  10.506  0.2053 -0.2639 -0.2451
  174SAPI    HY19724   6.020   2.962  10.504  0.3617  0.7152 -1.2873
  174SAPI   O3119725   6.129   2.893  10.341 -0.1591 -0.6144 -0.5785
  174SAPI   C3119726   6.213   2.794  10.316  0.3922  0.3950  0.8543
  174SAPI   O3219727   6.229   2.693  10.378  0.4745  1.2700 -0.1374
  174SAPI   C3219728   6.285   2.809  10.181 -0.1954  0.1566 -0.4408
  174SAPI   H2X19729   6.350   2.720  10.169 -1.3972 -0.8884  0.5638
  174SAPI   H2Y19730   6.362   2.888  10.194  1.4448 -0.9526 -2.7366
  174SAPI   C2319731   5.749   2.696   9.963  0.2877 -0.4868 -0.1702
  174SAPI   H3R19732   5.813   2.778   9.923  1.3841  0.1379  2.6184
  174SAPI   H3S19733   5.645   2.731   9.976 -0.6517 -3.6197  1.7137
  174SAPI   C2419734   5.727   2.585   9.861  0.2871 -0.4566  0.2662
  174SAPI   H4R19735   5.653   2.616   9.784  1.5850  0.1536 -0.7588
  174SAPI   H4S19736   5.683   2.494   9.907  2.8807  0.6351  5.6529
  174SAPI   C2519737   5.851   2.539   9.791  0.5275  0.0226 -0.1788
  174SAPI   H5R19738   5.927   2.491   9.855  2.3323  2.1697 -0.5863
  174SAPI   C2619739   5.877   2.554   9.657  0.7861  0.2583 -0.1861
  174SAPI   H6R19740   5.969   2.513   9.615 -0.0102 -1.6780 -0.1261
  174SAPI   C2719741   5.784   2.633   9.559  0.1620 -0.0725 -0.9630
  174SAPI   H7R19742   5.849   2.678   9.481  1.8285  0.6848  0.7596
  174SAPI   H7S19743   5.739   2.718   9.615 -1.5316 -0.6845 -1.3602
  174SAPI   C2819744   5.684   2.531   9.508 -0.3359  0.1605 -0.1251
  174SAPI   H8R19745   5.615   2.493   9.584 -0.0221 -0.0279  0.0654
  174SAPI   C2919746   5.673   2.484   9.382 -0.5789 -0.5895 -0.4756
  174SAPI   H9R19747   5.595   2.410   9.359  0.1711 -1.5237 -0.1033
  174SAPI  C21019748   5.768   2.538   9.275 -0.1864 -0.2492  0.2947
  174SAPI  H10R19749   5.876   2.534   9.302  0.3099  0.2489 -1.4871
  174SAPI  H10S19750   5.747   2.644   9.248  0.6867  0.7319  3.1370
  174SAPI  C21119751   5.768   2.463   9.143 -0.3680  0.0726 -1.0657
  174SAPI  H11R19752   5.713   2.368   9.144  0.9981 -0.7432 -0.0428
  174SAPI  C21219753   5.812   2.505   9.029 -0.3650  0.1387  0.5720
  174SAPI  H12R19754   5.799   2.437   8.944 -2.4728  0.8017  0.2865
  174SAPI  C21319755   5.882   2.635   9.008  0.4946 -0.2639  0.8261
  174SAPI  H13R19756   5.968   2.622   8.939  1.4699  1.1203  1.7441
  174SAPI  H13S19757   5.922   2.682   9.100  1.2534  0.6098  0.0660
  174SAPI  C21419758   5.774   2.725   8.947  0.7533  0.3212 -0.3317
  174SAPI  H14R19759   5.701   2.760   9.022  0.6668  0.2572 -0.3851
  174SAPI  C21519760   5.753   2.756   8.819 -0.6084 -0.4518  0.0159
  174SAPI  H15R19761   5.668   2.820   8.790 -0.3397  0.6123  1.4280
  174SAPI  C21619762   5.839   2.720   8.703 -0.5758 -0.3202  0.2888
  174SAPI  H16R19763   5.812   2.634   8.638  0.9935  0.9996 -2.2827
  174SAPI  H16S19764   5.946   2.709   8.727 -0.4999  1.4378  0.8901
  174SAPI  C21719765   5.837   2.835   8.596 -0.1509 -0.5973  0.8233
  174SAPI  H17R19766   5.737   2.855   8.550 -0.3694 -0.8876  1.1754
  174SAPI  H17S19767   5.903   2.803   8.512  1.4479 -0.1122  1.8494
  174SAPI  C21819768   5.895   2.972   8.644 -0.3935  0.1202 -0.0491
  174SAPI  H18R19769   5.936   2.965   8.747 -1.9410 -0.3910  0.5724
  174SAPI  H18S19770   5.810   3.042   8.658  0.9082  1.5052  1.3844
  174SAPI  C21919771   6.000   3.037   8.551 -0.2975  0.7860 -0.4102
  174SAPI  H19R19772   5.998   3.147   8.567 -1.0490  0.6394  0.6119
  174SAPI  H19S19773   5.985   3.019   8.443 -0.4525  0.1587 -0.2849
  174SAPI  C22019774   6.145   2.986   8.563  0.8227  0.2231 -0.0528
  174SAPI  H20R19775   6.154   2.875   8.569 -2.1697 -0.0626  0.9726
  174SAPI  H20S19776   6.167   3.016   8.668 -0.5680 -1.2110  0.6814
  174SAPI  H20T19777   6.217   3.040   8.497 -1.2800  2.1051 -0.9089
  174SAPI   C3319778   6.200   2.812  10.056 -0.1162 -0.1423 -0.0553
  174SAPI   H3X19779   6.146   2.910  10.053  0.0722 -0.0433 -0.1552
  174SAPI   H3Y19780   6.125   2.730  10.064  0.5085 -0.7053  0.1230
  174SAPI   C3419781   6.280   2.784   9.939 -0.2461  0.0364  0.3940
  174SAPI   H4X19782   6.334   2.691   9.969 -2.4826 -1.1759  0.9240
  174SAPI   H4Y19783   6.353   2.867   9.926 -0.3216 -0.1872 -2.0215
  174SAPI   C3519784   6.191   2.765   9.814  0.0670 -0.4334  0.3771
  174SAPI   H5X19785   6.121   2.851   9.805  1.0074  0.2614 -0.5764
  174SAPI   H5Y19786   6.147   2.663   9.815  2.4081 -1.5034  0.2199
  174SAPI   C3619787   6.278   2.775   9.687 -0.5621 -0.5629  0.0438
  174SAPI   H6X19788   6.343   2.686   9.680 -0.0040 -0.0531 -1.6767
  174SAPI   H6Y19789   6.347   2.861   9.675 -2.2798  0.7300 -1.0877
  174SAPI   C3719790   6.197   2.778   9.555  0.2370 -0.3147  0.5160
  174SAPI   H7X19791   6.115   2.853   9.556 -0.4954 -1.1060  1.5626
  174SAPI   H7Y19792   6.135   2.686   9.549  0.9463 -0.7676 -0.1774
  174SAPI   C3819793   6.275   2.798   9.421 -0.4508 -0.1757  0.9949
  174SAPI   H8X19794   6.347   2.715   9.408  1.1553  1.2984  0.0385
  174SAPI   H8Y19795   6.333   2.892   9.421  0.4060 -0.6790 -0.4740
  174SAPI   C3919796   6.190   2.795   9.295 -0.0811 -0.0393 -0.0961
  174SAPI   H9X19797   6.119   2.879   9.295 -2.5301 -1.9876 -1.0240
  174SAPI   H9Y19798   6.131   2.701   9.292  0.0292 -0.0877 -1.0525
  174SAPI  C31019799   6.274   2.787   9.166  0.4340  0.0593 -0.7634
  174SAPI  H10X19800   6.321   2.686   9.174 -0.5588 -0.4294 -0.8947
  174SAPI  H10Y19801   6.357   2.861   9.164 -0.4258  1.0583 -0.3267
  174SAPI  C31119802   6.189   2.794   9.036 -0.4571 -0.3482  0.5048
  174SAPI  H11X19803   6.108   2.870   9.035 -2.8264 -2.7464 -0.0293
  174SAPI  H11Y19804   6.131   2.700   9.034 -2.6022  0.9003 -1.3349
  174SAPI  C31219805   6.277   2.817   8.909  0.3488  0.4006  0.2316
  174SAPI  H12X19806   6.326   2.916   8.908 -0.1600  0.7032 -2.3971
  174SAPI  H12Y19807   6.205   2.806   8.825 -1.9169 -0.7408  2.1948
  174SAPI  C31319808   6.382   2.710   8.885 -0.9920 -0.2816 -0.3986
  174SAPI  H13X19809   6.452   2.714   8.971  0.0542  0.1917 -1.2415
  174SAPI  H13Y19810   6.440   2.741   8.795 -3.3992  1.0363 -1.5940
  174SAPI  C31419811   6.327   2.565   8.869 -0.0048 -0.2585 -0.0732
  174SAPI  H14X19812   6.282   2.535   8.967 -1.7107 -1.3073 -1.1140
  174SAPI  H14Y19813   6.417   2.506   8.844  1.0137  2.2149 -2.7200
  174SAPI  C31519814   6.222   2.534   8.766 -0.7511 -0.4477 -0.7450
  174SAPI  H15X19815   6.126   2.590   8.775 -2.6897 -3.4754 -1.2000
  174SAPI  H15Y19816   6.203   2.425   8.772 -0.2672 -0.4671  2.8319
  174SAPI  C31619817   6.266   2.570   8.620 -0.5211  0.5521 -0.1304
  174SAPI  H16X19818   6.353   2.507   8.592 -0.5503  0.2332  0.4779
  174SAPI  H16Y19819   6.311   2.671   8.626  1.4413 -0.2919 -0.0309
  174SAPI  C31719820   6.162   2.562   8.514 -0.3807 -0.3922  0.7479
  174SAPI  H17X19821   6.079   2.630   8.539 -0.3938 -0.5772  1.2095
  174SAPI  H17Y19822   6.117   2.461   8.528  1.5179 -1.6067 -1.2056
  174SAPI  C31819823   6.214   2.581   8.368  0.4985  0.3026 -0.2496
  174SAPI  H18X19824   6.254   2.684   8.354 -1.5626  0.9061 -2.3451
  174SAPI  H18Y19825   6.134   2.566   8.293  1.8031 -1.2473 -1.4148
  174SAPI  H18Z19826   6.290   2.504   8.342 -1.2597 -1.0579 -1.6377
  175SAPI   C1219827   0.755   2.125   5.815  0.2297 -0.2157 -0.5571
  175SAPI    H219828   0.825   2.053   5.862  0.1078  1.5436  2.6071
  175SAPI    O219829   0.804   2.256   5.803  0.1338  0.4925 -0.1450
  175SAPI   HO219830   0.821   2.276   5.895  1.9242 -2.6062  0.3278
  175SAPI   C1319831   0.711   2.068   5.686 -0.8182  0.0419  0.3995
  175SAPI    H319832   0.682   1.965   5.713 -1.8193  0.1028 -0.3991
  175SAPI    O319833   0.825   2.044   5.596  0.1859  0.0035  0.2519
  175SAPI   HO319834   0.880   1.972   5.628  2.1385  0.7123 -1.2994
  175SAPI   C1419835   0.592   2.141   5.622  0.0821 -0.2850  0.5484
  175SAPI    H419836   0.617   2.245   5.594 -2.8958  0.2843 -0.2494
  175SAPI    O419837   0.567   2.074   5.500  0.3233 -0.0735 -0.0360
  175SAPI   HO419838   0.590   1.982   5.517  2.1682  0.7024  2.0483
  175SAPI   C1519839   0.472   2.149   5.724 -0.1649  0.3710 -0.1442
  175SAPI    H519840   0.436   2.048   5.751  1.4577  0.0703  1.0661
  175SAPI    O519841   0.359   2.210   5.664 -0.9664 -0.2556 -0.7848
  175SAPI   HO519842   0.387   2.293   5.626  0.0753  0.1622  0.7956
  175SAPI   C1619843   0.513   2.210   5.854 -0.1127  0.1177  0.5226
  175SAPI    H619844   0.539   2.316   5.837  0.1452 -0.1636 -1.0420
  175SAPI    O619845   0.408   2.208   5.954 -0.0492 -0.4198 -0.0358
  175SAPI   HO619846   0.458   2.232   6.032 -0.8327 -1.4821  0.8403
  175SAPI   C1119847   0.637   2.134   5.905 -0.0687  0.1711 -0.2034
  175SAPI    H119848   0.600   2.030   5.917  3.5348 -1.2140  0.2174
  175SAPI     P19849   0.727   2.119   6.158  0.5150 -0.4123 -0.2130
  175SAPI   O1319850   0.792   2.208   6.251  0.1024 -0.4711  0.0866
  175SAPI   O1419851   0.798   1.997   6.116 -0.1093 -0.2068  0.6555
  175SAPI   O1219852   0.670   2.199   6.029 -0.8996 -0.1598 -0.0138
  175SAPI   O1119853   0.593   2.070   6.236  0.1653  0.0889  0.0708
  175SAPI    C119854   0.492   2.164   6.276 -0.3691 -0.5977  0.2106
  175SAPI    HA19855   0.484   2.251   6.207 -1.2261  0.0626  1.1175
  175SAPI    HB19856   0.392   2.118   6.282 -1.0375  0.8990  1.2178
  175SAPI    C219857   0.519   2.218   6.422  0.6478  0.2112  0.3358
  175SAPI    HS19858   0.620   2.265   6.421 -0.1504  2.2140 -2.7714
  175SAPI   O2119859   0.507   2.109   6.511  0.1593  0.0426  0.4617
  175SAPI   C2119860   0.607   2.084   6.589 -0.5125 -0.3792  0.4811
  175SAPI   O2219861   0.710   2.157   6.592 -0.0387  0.2066 -0.2044
  175SAPI   C2219862   0.579   1.958   6.657 -0.5599  0.1873 -0.9471
  175SAPI   H2R19863   0.477   1.953   6.702  0.0923 -2.3047  0.4523
  175SAPI   H2S19864   0.590   1.884   6.575 -0.8402 -0.1076 -0.7236
  175SAPI    C319865   0.424   2.334   6.465 -0.1754  0.1343 -0.2448
  175SAPI    HX19866   0.314   2.327   6.455 -0.2860  1.4532 -0.0815
  175SAPI    HY19867   0.452   2.421   6.402  1.6354 -0.1844  0.0636
  175SAPI   O3119868   0.442   2.376   6.600 -0.7003  0.4340  0.2419
  175SAPI   C3119869   0.552   2.436   6.645 -0.0575 -0.2207 -0.1510
  175SAPI   O3219870   0.652   2.457   6.581  0.0947  0.2013  0.5554
  175SAPI   C3219871   0.522   2.478   6.782  0.1318 -0.2647 -0.0567
  175SAPI   H2X19872   0.422   2.439   6.810  0.8091 -0.4775  2.3538
  175SAPI   H2Y19873   0.528   2.588   6.795  0.1215 -0.1869 -0.7168
  175SAPI   C2319874   0.674   1.925   6.779 -0.2883  0.3569  0.2491
  175SAPI   H3R19875   0.668   2.004   6.856  0.5597  0.1908  0.5029
  175SAPI   H3S19876   0.779   1.937   6.742 -0.6297 -1.8681 -1.6587
  175SAPI   C2419877   0.657   1.784   6.834  0.2857  0.1952  0.6429
  175SAPI   H4R19878   0.738   1.741   6.897  0.2220  0.5835  0.9966
  175SAPI   H4S19879   0.629   1.715   6.752 -0.2722  1.7705 -0.5263
  175SAPI   C2519880   0.533   1.784   6.918 -0.1950  0.3506 -1.1002
  175SAPI   H5R19881   0.436   1.759   6.873 -0.6822  0.4954 -0.1652
  175SAPI   C2619882   0.527   1.826   7.050 -0.8799  0.9082  0.8103
  175SAPI   H6R19883   0.427   1.813   7.096 -1.0635  1.4365  0.5657
  175SAPI   C2719884   0.639   1.880   7.137 -0.1684  0.0470  0.1833
  175SAPI   H7R19885   0.604   1.972   7.190  1.4102  0.8161 -0.0540
  175SAPI   H7S19886   0.719   1.927   7.076 -0.9392  0.5144 -0.4866
  175SAPI   C2819887   0.686   1.765   7.224 -0.4549 -0.4738  0.6209
  175SAPI   H8R19888   0.731   1.689   7.159 -1.2827  2.3519 -3.6964
  175SAPI   C2919889   0.697   1.766   7.357 -0.1536  0.8136  0.1912
  175SAPI   H9R19890   0.751   1.684   7.407  1.4070  1.7282  0.0632
  175SAPI  C21019891   0.654   1.866   7.459  0.1862  0.5749  0.3530
  175SAPI  H10R19892   0.603   1.950   7.406  0.5328 -0.4786 -1.7446
  175SAPI  H10S19893   0.743   1.905   7.513  2.0899 -1.4396 -1.1536
  175SAPI  C21119894   0.559   1.812   7.563 -0.3235 -0.2163 -0.1228
  175SAPI  H11R19895   0.459   1.790   7.522  0.0292  0.4871 -1.3925
  175SAPI  C21219896   0.581   1.801   7.690  0.1052 -0.2132 -0.5558
  175SAPI  H12R19897   0.503   1.765   7.759 -0.7399 -0.5571 -1.6626
  175SAPI  C21319898   0.713   1.828   7.766 -0.3377 -1.1446 -0.2033
  175SAPI  H13R19899   0.691   1.899   7.849  0.7553 -1.0832  0.0366
  175SAPI  H13S19900   0.792   1.876   7.704 -0.3329 -0.5792  0.2340
  175SAPI  C21419901   0.774   1.693   7.817 -0.0435 -0.4624 -0.1176
  175SAPI  H14R19902   0.812   1.628   7.737 -0.5769  0.7792 -1.4300
  175SAPI  C21519903   0.809   1.666   7.943  0.3156 -0.2460 -0.4114
  175SAPI  H15R19904   0.865   1.573   7.957 -0.0943 -0.3116  0.8758
  175SAPI  C21619905   0.798   1.758   8.066  0.1264 -0.0093  0.1419
  175SAPI  H16R19906   0.714   1.724   8.132  0.3682  0.4453  0.6931
  175SAPI  H16S19907   0.780   1.861   8.031 -0.8648  1.2437  3.8592
  175SAPI  C21719908   0.927   1.747   8.150  0.0989  0.5563  0.6388
  175SAPI  H17R19909   1.014   1.761   8.081  0.7876  1.3593  1.6308
  175SAPI  H17S19910   0.922   1.645   8.194 -1.7307  0.6519  0.7260
  175SAPI  C21819911   0.956   1.840   8.265 -0.0351  0.4770  0.5521
  175SAPI  H18R19912   0.868   1.852   8.332 -0.5137 -2.1005  0.4834
  175SAPI  H18S19913   0.980   1.942   8.229 -5.1632  1.4817 -0.8706
  175SAPI  C21919914   1.067   1.777   8.355 -0.8513 -0.0551 -0.4674
  175SAPI  H19R19915   1.149   1.757   8.283 -0.0350 -1.7495  0.8636
  175SAPI  H19S19916   1.024   1.681   8.392 -2.1560  0.3043 -0.9789
  175SAPI  C22019917   1.112   1.857   8.481  0.2518 -0.4161 -0.2436
  175SAPI  H20R19918   1.149   1.957   8.450 -1.4691 -0.4680 -2.7826
  175SAPI  H20S19919   1.190   1.801   8.537 -0.2903 -2.5816 -1.5401
  175SAPI  H20T19920   1.020   1.877   8.541 -0.2062 -0.2130 -1.0077
  175SAPI   C3319921   0.613   2.407   6.884  0.0096 -0.9609  0.5571
  175SAPI   H3X19922   0.712   2.459   6.889 -1.1199  1.6272 -1.3699
  175SAPI   H3Y19923   0.626   2.302   6.851  1.0048 -0.6456 -0.1140
  175SAPI   C3419924   0.559   2.411   7.031  0.4462 -0.4453 -0.3819
  175SAPI   H4X19925   0.458   2.365   7.027  0.1035  0.1861  0.6214
  175SAPI   H4Y19926   0.536   2.518   7.053 -1.0049 -0.8531  0.1991
  175SAPI   C3519927   0.651   2.342   7.128 -0.6372 -0.3090  0.6381
  175SAPI   H5X19928   0.758   2.373   7.119 -1.3299  2.7031  1.6917
  175SAPI   H5Y19929   0.644   2.231   7.119  1.2553 -0.4421  0.2044
  175SAPI   C3619930   0.594   2.375   7.269 -0.4793  0.6131  0.3893
  175SAPI   H6X19931   0.495   2.327   7.281 -0.1970 -0.4707 -1.3214
  175SAPI   H6Y19932   0.575   2.485   7.264  1.5789  1.0464  0.9949
  175SAPI   C3719933   0.689   2.352   7.393 -0.3336 -0.4969  0.9414
  175SAPI   H7X19934   0.785   2.404   7.373 -0.8057  0.4548  1.0747
  175SAPI   H7Y19935   0.699   2.241   7.394  1.9469 -0.3740 -1.1906
  175SAPI   C3819936   0.638   2.383   7.537  0.0204 -0.5722  0.4271
  175SAPI   H8X19937   0.527   2.372   7.542 -0.0143 -0.5538 -0.2728
  175SAPI   H8Y19938   0.658   2.489   7.562 -2.8342 -0.5276  3.2044
  175SAPI   C3919939   0.694   2.296   7.647 -0.2080 -0.6295  0.5771
  175SAPI   H9X19940   0.802   2.320   7.646 -0.5980  1.3994 -1.6927
  175SAPI   H9Y19941   0.698   2.186   7.629  2.2820 -0.5234  0.2053
  175SAPI  C31019942   0.630   2.319   7.786 -0.3889  0.5664 -0.6210
  175SAPI  H10X19943   0.520   2.308   7.788 -0.5830  1.6229 -2.5479
  175SAPI  H10Y19944   0.646   2.426   7.813 -0.3830  0.4931 -0.3338
  175SAPI  C31119945   0.677   2.224   7.893 -0.5599  0.3982 -0.4316
  175SAPI  H11X19946   0.780   2.247   7.929  0.1657 -1.5835 -1.1563
  175SAPI  H11Y19947   0.677   2.117   7.863  0.3056 -0.1484  1.3940
  175SAPI  C31219948   0.587   2.242   8.015 -0.5399 -0.2646  0.0220
  175SAPI  H12X19949   0.482   2.219   7.985 -0.6800  0.6528 -0.2430
  175SAPI  H12Y19950   0.587   2.346   8.055 -0.5185  0.1507 -1.0206
  175SAPI  C31319951   0.614   2.134   8.124 -0.1017 -0.6069  0.2268
  175SAPI  H13X19952   0.640   2.052   8.054  0.7842  0.8169 -1.1644
  175SAPI  H13Y19953   0.531   2.091   8.185 -0.9298  0.4303 -0.1327
  175SAPI  C31419954   0.746   2.145   8.194 -0.7558 -0.0252 -0.2827
  175SAPI  H14X19955   0.828   2.185   8.130  1.3848 -2.6234  0.6373
  175SAPI  H14Y19956   0.776   2.042   8.224  2.0207  1.3711  2.2922
  175SAPI  C31519957   0.746   2.223   8.322  0.0015 -0.1603 -0.3299
  175SAPI  H15X19958   0.676   2.173   8.393 -0.6506 -0.9893 -1.5221
  175SAPI  H15Y19959   0.702   2.323   8.306  0.2543  0.1785  0.9476
  175SAPI  C31619960   0.894   2.230   8.383  0.1986  0.3378  0.1521
  175SAPI  H16X19961   0.945   2.294   8.308 -2.0063  1.2026 -0.7032
  175SAPI  H16Y19962   0.934   2.127   8.388 -0.7846 -0.1726 -1.6243
  175SAPI  C31719963   0.891   2.309   8.514 -0.2871  1.1984  0.3075
  175SAPI  H17X19964   0.997   2.317   8.547 -0.4949  2.0921  0.7927
  175SAPI  H17Y19965   0.840   2.245   8.588 -0.7311  1.3985  0.1753
  175SAPI  C31819966   0.843   2.459   8.501 -0.0804  0.2922  0.1261
  175SAPI  H18X19967   0.912   2.521   8.439  0.1931 -1.3888 -1.3364
  175SAPI  H18Y19968   0.830   2.499   8.604 -0.7234  1.0785 -0.2491
  175SAPI  H18Z19969   0.742   2.464   8.455  0.1023  1.5235 -0.1665
  176SAPI   C1219970   6.302   6.449   6.621  0.1276 -0.3407  0.3805
  176SAPI    H219971   6.233   6.374   6.666  0.7884  0.6356  3.2578
  176SAPI    O219972   6.233   6.541   6.543  0.4226 -0.0243 -0.3834
  176SAPI   HO219973   6.151   6.502   6.511 -1.0344  1.2266  1.5599
  176SAPI   C1319974   6.359   6.519   6.738 -0.2309  0.3826 -0.4735
  176SAPI    H319975   6.415   6.454   6.809  1.2261  0.1431 -1.7835
  176SAPI    O319976   6.258   6.589   6.812 -0.0871  0.4149  0.2557
  176SAPI   HO319977   6.213   6.651   6.753  0.2659  1.1203  0.7035
  176SAPI   C1419978   6.455   6.619   6.684 -0.1095  0.5980  0.2094
  176SAPI    H419979   6.409   6.690   6.612 -0.3169 -0.6168 -0.8791
  176SAPI    O419980   6.518   6.701   6.783 -0.2776  0.1670 -0.6827
  176SAPI   HO419981   6.469   6.671   6.860  0.0552 -2.4664 -1.3781
  176SAPI   C1519982   6.573   6.549   6.615 -0.2160  0.2608  0.0850
  176SAPI    H519983   6.622   6.480   6.687  0.5504  0.5153 -0.1859
  176SAPI    O519984   6.681   6.632   6.575  0.3533 -0.5401 -0.2313
  176SAPI   HO519985   6.660   6.715   6.617 -3.0477 -1.0517 -0.6314
  176SAPI   C1619986   6.514   6.472   6.492  0.0513  0.5907 -0.2110
  176SAPI    H619987   6.473   6.543   6.417 -0.8967  0.0459 -0.2215
  176SAPI    O619988   6.619   6.403   6.420  0.4235 -0.6457 -1.0141
  176SAPI   HO619989   6.591   6.376   6.333 -2.6628 -0.5403 -0.1814
  176SAPI   C1119990   6.411   6.375   6.541  0.5294  0.3624 -0.0854
  176SAPI    H119991   6.455   6.299   6.610  0.1850 -1.6868 -2.0073
  176SAPI     P19992   6.284   6.156   6.449  0.0339 -0.6888  0.0236
  176SAPI   O1319993   6.362   6.082   6.545  0.7547  0.4723 -0.2044
  176SAPI   O1419994   6.269   6.106   6.316 -0.1817 -0.5456  0.0981
  176SAPI   O1219995   6.344   6.316   6.431 -0.1052  0.2573  0.2191
  176SAPI   O1119996   6.142   6.178   6.504  0.2170 -0.5939 -0.4729
  176SAPI    C119997   6.041   6.081   6.536 -0.5441 -0.4097  0.1817
  176SAPI    HA19998   5.963   6.094   6.458 -0.0786  2.0249  0.0526
  176SAPI    HB19999   6.081   5.979   6.555  1.3042  0.2046 -0.2161
  176SAPI    C220000   5.982   6.121   6.674 -0.0469  0.5767  0.1063
  176SAPI    HS20001   5.917   6.043   6.719  0.3655  1.0919  1.6456
  176SAPI   O2120002   5.921   6.247   6.679 -0.0062  0.3145 -0.0373
  176SAPI   C2120003   5.822   6.278   6.767  0.2558  0.1686  0.1962
  176SAPI   O2220004   5.774   6.197   6.839  0.1558  0.5994 -0.2350
  176SAPI   C2220005   5.794   6.428   6.772 -0.5833 -0.3806  0.2506
  176SAPI   H2R20006   5.794   6.465   6.668 -0.6901 -1.4718 -0.1449
  176SAPI   H2S20007   5.690   6.428   6.812 -2.2325  1.9815 -3.5502
  176SAPI    C320008   6.094   6.122   6.774 -0.0293 -0.0382  0.0280
  176SAPI    HX20009   6.167   6.198   6.740 -1.4231  0.4179 -2.1587
  176SAPI    HY20010   6.142   6.022   6.764 -0.1442 -0.0340 -0.6612
  176SAPI   O3120011   6.045   6.138   6.907 -0.2912  0.0685 -0.0851
  176SAPI   C3120012   6.013   6.028   6.975 -1.1583 -0.3390 -0.4183
  176SAPI   O3220013   6.043   5.918   6.938  0.2921 -0.0747  0.1695
  176SAPI   C3220014   5.950   6.061   7.110  0.1487 -0.6445  0.2758
  176SAPI   H2X20015   5.880   5.981   7.142 -1.0701  0.6430  0.9638
  176SAPI   H2Y20016   5.877   6.143   7.091  0.7540  0.3317  1.8850
  176SAPI   C2320017   5.895   6.504   6.868 -0.0158 -0.3794  0.1510
  176SAPI   H3R20018   5.856   6.608   6.879  0.7262  0.0053 -0.6961
  176SAPI   H3S20019   5.991   6.516   6.813 -0.6176  2.2394 -0.5232
  176SAPI   C2420020   5.919   6.451   7.011 -0.4461 -0.2799  0.3969
  176SAPI   H4R20021   5.929   6.341   6.999  2.1669 -0.1853  1.0316
  176SAPI   H4S20022   5.819   6.457   7.060 -1.3333 -0.5069 -1.3180
  176SAPI   C2520023   6.032   6.519   7.087 -0.1544 -0.2480  0.4158
  176SAPI   H5R20024   6.110   6.558   7.020 -2.2301  0.9325 -1.4593
  176SAPI   C2620025   6.043   6.547   7.219  0.0456  0.6135 -0.0846
  176SAPI   H6R20026   6.137   6.586   7.263 -0.3538  1.2605  0.2079
  176SAPI   C2720027   5.943   6.518   7.329  0.1131  0.4425 -0.3260
  176SAPI   H7R20028   5.843   6.494   7.288  0.1979  1.8045 -1.4092
  176SAPI   H7S20029   5.926   6.613   7.385 -0.0851 -0.4643  1.1929
  176SAPI   C2820030   5.992   6.416   7.432  0.0548 -0.0552  0.0464
  176SAPI   H8R20031   6.049   6.334   7.385 -0.9999 -0.3259 -0.7950
  176SAPI   C2920032   5.972   6.420   7.565  0.1727  0.6902  0.7316
  176SAPI   H9R20033   6.013   6.329   7.613  1.1084 -1.6931 -4.0001
  176SAPI  C21020034   5.905   6.525   7.646 -0.0425  0.3336  0.5457
  176SAPI  H10R20035   5.885   6.617   7.586  1.5610 -0.6773 -1.6849
  176SAPI  H10S20036   5.973   6.570   7.722 -1.4145 -0.1408  2.1041
  176SAPI  C21120037   5.779   6.475   7.714  0.4062  0.7549 -0.1936
  176SAPI  H11R20038   5.694   6.452   7.648  2.4187 -1.1192 -2.3184
  176SAPI  C21220039   5.767   6.445   7.842  0.4583 -0.3993  0.1456
  176SAPI  H12R20040   5.667   6.417   7.878 -0.3855 -0.8131 -2.3016
  176SAPI  C21320041   5.864   6.462   7.952  0.5676 -0.0842  1.7015
  176SAPI  H13R20042   5.968   6.486   7.923  0.4115  0.0645  1.2573
  176SAPI  H13S20043   5.875   6.357   7.988  1.7345 -0.7310 -0.3859
  176SAPI  C21420044   5.830   6.555   8.059  0.2792  0.1042  0.9832
  176SAPI  H14R20045   5.729   6.541   8.102 -0.0428 -0.0864  0.1750
  176SAPI  C21520046   5.903   6.658   8.103 -0.1611  1.1119 -0.1095
  176SAPI  H15R20047   5.881   6.716   8.194  1.3165  0.2281  0.8405
  176SAPI  C21620048   6.033   6.706   8.049 -0.1964  0.2041 -0.7780
  176SAPI  H16R20049   6.021   6.813   8.019 -0.7237  1.3124  2.9541
  176SAPI  H16S20050   6.075   6.658   7.957 -0.4953 -1.1521 -0.2286
  176SAPI  C21720051   6.156   6.690   8.149  0.2825  0.6311  0.3763
  176SAPI  H17R20052   6.181   6.582   8.155 -0.1955  0.3299 -2.1028
  176SAPI  H17S20053   6.119   6.732   8.245 -0.3360  2.3473 -0.5504
  176SAPI  C21820054   6.286   6.758   8.103  0.0112 -0.6638 -0.2983
  176SAPI  H18R20055   6.266   6.866   8.116  0.9006 -0.5886  0.5127
  176SAPI  H18S20056   6.308   6.734   7.997 -0.8736  2.7216 -1.3789
  176SAPI  C21920057   6.402   6.720   8.195 -0.3543 -0.5636 -0.2320
  176SAPI  H19R20058   6.502   6.763   8.172 -0.2915 -0.4019  0.3325
  176SAPI  H19S20059   6.417   6.610   8.200  0.7383 -0.3863  0.9126
  176SAPI  C22020060   6.377   6.770   8.334 -0.5615  0.5511 -0.4784
  176SAPI  H20R20061   6.467   6.763   8.399 -1.4139  2.1415  0.9789
  176SAPI  H20S20062   6.292   6.714   8.379 -0.6559 -1.2341 -2.7472
  176SAPI  H20T20063   6.350   6.878   8.331 -0.0263  0.7813  1.4978
  176SAPI   C3320064   6.036   6.102   7.227 -0.3064 -0.2219  0.2485
  176SAPI   H3X20065   5.963   6.126   7.307  0.3061  0.5557  0.5815
  176SAPI   H3Y20066   6.101   6.188   7.202 -1.2396  0.2602 -0.6125
  176SAPI   C3420067   6.124   5.981   7.278  0.4906 -0.3981  0.0077
  176SAPI   H4X20068   6.214   5.966   7.214  0.8537  0.1780  0.3778
  176SAPI   H4Y20069   6.071   5.884   7.283  1.6345 -1.0896 -0.7831
  176SAPI   C3520070   6.181   6.014   7.418  0.3828  0.0736 -0.1098
  176SAPI   H5X20071   6.226   6.116   7.417 -2.1737  1.2833 -0.9238
  176SAPI   H5Y20072   6.258   5.939   7.443 -0.5341 -1.7394 -2.3785
  176SAPI   C3620073   6.073   6.010   7.525  0.5918 -0.0734 -0.4334
  176SAPI   H6X20074   6.023   5.911   7.535 -0.0941  0.3740  0.7759
  176SAPI   H6Y20075   5.990   6.084   7.524  0.1168 -0.5750  0.6111
  176SAPI   C3720076   6.138   6.043   7.664  0.2463  0.0506  0.8889
  176SAPI   H7X20077   6.054   6.059   7.736  0.5209  0.7331  1.0640
  176SAPI   H7Y20078   6.193   6.139   7.653 -2.1477  1.2279 -2.2194
  176SAPI   C3820079   6.233   5.931   7.716 -0.3048 -0.6313  0.5373
  176SAPI   H8X20080   6.327   5.946   7.659 -1.3993  2.9182 -0.5751
  176SAPI   H8Y20081   6.187   5.834   7.688 -1.2514  0.6402 -2.7953
  176SAPI   C3920082   6.258   5.938   7.866  0.1503 -0.0581 -0.0532
  176SAPI   H9X20083   6.170   5.933   7.933  1.3382 -1.0471  1.5111
  176SAPI   H9Y20084   6.310   6.035   7.886 -0.5810  0.6510 -1.4573
  176SAPI  C31020085   6.358   5.830   7.917  0.6390 -0.5818  0.3744
  176SAPI  H10X20086   6.447   5.855   7.855 -1.1978  1.5493 -1.6042
  176SAPI  H10Y20087   6.317   5.729   7.893  1.7045 -1.1011  0.6853
  176SAPI  C31120088   6.401   5.832   8.067  0.6784 -0.0050 -0.2385
  176SAPI  H11X20089   6.308   5.804   8.120  1.4605 -3.1905 -0.3383
  176SAPI  H11Y20090   6.438   5.933   8.095 -0.8986  0.6403 -0.4090
  176SAPI  C31220091   6.496   5.726   8.108 -0.7526  0.0797 -0.7744
  176SAPI  H12X20092   6.560   5.709   8.019 -1.3369  1.7066 -1.5436
  176SAPI  H12Y20093   6.443   5.637   8.147 -1.0552  0.5879  0.0105
  176SAPI  C31320094   6.577   5.780   8.230  0.1416  0.3197  0.5410
  176SAPI  H13X20095   6.499   5.799   8.307 -3.4633  0.0613 -2.7248
  176SAPI  H13Y20096   6.625   5.878   8.208 -1.0632  1.1990  1.6268
  176SAPI  C31420097   6.692   5.689   8.270 -0.5975 -0.8511  0.2239
  176SAPI  H14X20098   6.768   5.663   8.194 -0.3706 -2.6948  1.0251
  176SAPI  H14Y20099   6.655   5.586   8.291  1.0067 -1.0582  2.3281
  176SAPI  C31520100   6.758   5.735   8.401 -0.0182  0.3443  0.1496
  176SAPI  H15X20101   6.692   5.817   8.435 -0.7401 -0.4349  0.6581
  176SAPI  H15Y20102   6.858   5.774   8.373 -0.1368 -0.2767 -1.2060
  176SAPI  C31620103   6.756   5.630   8.515  0.3959 -0.9570  0.2693
  176SAPI  H16X20104   6.803   5.672   8.607  1.2097 -2.4318  0.5535
  176SAPI  H16Y20105   6.817   5.540   8.493  2.7277 -0.1503  2.8065
  176SAPI  C31720106   6.614   5.597   8.561  1.2858  0.3195  0.6667
  176SAPI  H17X20107   6.569   5.545   8.474  1.0897  1.9307 -0.2416
  176SAPI  H17Y20108   6.563   5.693   8.584  1.5273  0.6505 -0.1306
  176SAPI  C31820109   6.604   5.512   8.683 -0.7077 -0.0128  0.3345
  176SAPI  H18X20110   6.498   5.513   8.716 -0.5901 -0.7962  0.7674
  176SAPI  H18Y20111   6.673   5.555   8.758 -0.8393 -0.8951  0.9811
  176SAPI  H18Z20112   6.632   5.406   8.664 -0.0600 -0.1364  1.8093
  177SLPC     N20113   0.883   4.570  11.049 -0.4330 -1.0535  0.4271
  177SLPC   C1320114   0.780   4.480  11.111 -0.1591  0.3572 -0.1915
  177SLPC  H13A20115   0.700   4.529  11.165 -1.9277 -0.9178 -1.5499
  177SLPC  H13B20116   0.737   4.414  11.038  0.5784  2.1546 -2.3541
  177SLPC  H13C20117   0.829   4.409  11.176 -2.1376  0.2259  1.2458
  177SLPC   C1420118   0.994   4.492  10.985  0.0137 -0.4028 -0.0583
  177SLPC  H14A20119   1.033   4.413  11.047  0.5911 -0.3716 -0.3717
  177SLPC  H14B20120   0.958   4.440  10.898  0.3191  0.6284 -0.8289
  177SLPC  H14C20121   1.074   4.552  10.943  3.0492 -2.9344  1.7341
  177SLPC   C1520122   0.945   4.663  11.144  0.1542 -0.4833 -0.5243
  177SLPC  H15A20123   1.005   4.604  11.211 -0.3847 -1.5224 -0.9293
  177SLPC  H15B20124   1.019   4.724  11.094  0.1322 -0.3140 -0.3487
  177SLPC  H15C20125   0.877   4.724  11.201 -2.7248 -2.2619 -1.7990
  177SLPC   C1220126   0.807   4.647  10.942 -0.5055 -0.2676 -0.0897
  177SLPC  H12A20127   0.721   4.693  10.987  0.6624  0.5557  1.3948
  177SLPC  H12B20128   0.763   4.572  10.878  0.0872 -0.2460 -0.5367
  177SLPC   C1120129   0.879   4.736  10.842  0.1346  0.5867  0.4241
  177SLPC  H11A20130   0.808   4.772  10.765  0.3342 -2.4653 -1.3412
  177SLPC  H11B20131   0.956   4.675  10.789  0.2240  1.2561 -0.2274
  177SLPC     P20132   1.078   4.893  10.885  0.5596  0.0229 -0.8486
  177SLPC   O1320133   1.096   5.032  10.938  0.5043 -0.0837 -0.5992
  177SLPC   O1420134   1.170   4.791  10.944  0.1336  0.0173  0.5120
  177SLPC   O1220135   0.932   4.849  10.902 -0.1494  0.7936  1.1723
  177SLPC   O1120136   1.087   4.901  10.729 -0.0962  0.0551 -0.4223
  177SLPC    C120137   1.029   5.001  10.648 -0.1125  0.0231 -0.2365
  177SLPC    HA20138   0.952   5.061  10.702 -1.0737 -1.7772  0.4571
  177SLPC    HB20139   1.108   5.078  10.629 -0.7396  0.0384 -3.2213
  177SLPC    C220140   0.971   4.940  10.518 -0.2938  0.5622  0.0371
  177SLPC    HS20141   0.905   4.864  10.563 -1.8829  0.5357 -2.1947
  177SLPC   O2120142   1.080   4.876  10.447 -0.4007  0.0710  0.4215
  177SLPC   C2120143   1.033   4.780  10.365 -0.0318 -0.1532  0.4900
  177SLPC   O2220144   0.926   4.720  10.374  0.0251 -0.4703 -0.0101
  177SLPC   C2220145   1.131   4.766  10.248 -0.3646 -0.0075  1.1319
  177SLPC   H2R20146   1.224   4.818  10.281 -0.3437  0.0287  1.0186
  177SLPC   H2S20147   1.146   4.658  10.228 -0.6200 -0.3470  2.6618
  177SLPC    C320148   0.879   5.038  10.438  0.2596  0.5078  0.0887
  177SLPC    HX20149   0.944   5.117  10.395  0.8671  0.0793  0.2031
  177SLPC    HY20150   0.818   5.082  10.519 -0.7352  0.1903 -0.4633
  177SLPC   O3120151   0.803   4.978  10.329 -0.2537 -0.3028 -0.6015
  177SLPC   C3120152   0.695   4.918  10.372 -0.3809  0.8505  0.0501
  177SLPC   O3220153   0.643   4.924  10.480  0.5898  0.1319  0.0353
  177SLPC   C3220154   0.634   4.851  10.247 -0.2701 -0.3212 -0.3920
  177SLPC   H2X20155   0.525   4.857  10.270  0.0892  3.1041  1.0412
  177SLPC   H2Y20156   0.667   4.747  10.228  2.3855  0.4670 -0.4492
  177SLPC   C2320157   1.096   4.837  10.111  0.0281  0.1516  0.5616
  177SLPC   H3R20158   1.001   4.797  10.069 -0.1995  0.3362  0.8881
  177SLPC   H3S20159   1.180   4.811  10.044  1.7070 -0.4786  2.8006
  177SLPC   C2420160   1.081   4.988  10.126 -0.1688 -0.4217 -0.3019
  177SLPC   H4R20161   1.164   5.019  10.193  0.1316  0.1497 -0.9239
  177SLPC   H4S20162   0.989   5.017  10.181  1.9191  4.3977  1.2793
  177SLPC   C2520163   1.097   5.065   9.989 -0.1446 -0.1719  0.0041
  177SLPC   H5R20164   1.198   5.041   9.949  0.4293  1.4722  0.3902
  177SLPC   H5S20165   1.106   5.174  10.009  1.8799  0.1561 -2.2463
  177SLPC   C2620166   0.991   5.041   9.885  0.4855 -0.4453  0.2320
  177SLPC   H6R20167   0.894   5.068   9.933  1.0913 -0.5808  1.5614
  177SLPC   H6S20168   0.989   4.932   9.864 -3.2780 -0.7497  1.3831
  177SLPC   C2720169   1.003   5.127   9.761  0.3278  0.1571 -0.0392
  177SLPC   H7R20170   0.975   5.233   9.783 -0.2197 -0.4197  2.3459
  177SLPC   H7S20171   0.937   5.091   9.679  0.8821 -1.8394  0.3437
  177SLPC   C2820172   1.151   5.109   9.706  0.3370  0.3051  0.0028
  177SLPC   H8R20173   1.223   5.129   9.788 -0.3645 -2.1206  1.3019
  177SLPC   H8S20174   1.166   5.180   9.621  0.2006 -0.4539 -0.6652
  177SLPC   C2920175   1.188   4.971   9.652 -0.1199 -0.5982  0.0703
  177SLPC   H9R20176   1.235   4.906   9.726  0.5053  0.0503  0.2534
  177SLPC  C21020177   1.151   4.922   9.530 -0.0944  0.4234 -0.6783
  177SLPC  H10R20178   1.198   4.826   9.502 -2.5777 -0.9896 -0.2739
  177SLPC  C21120179   1.079   4.994   9.423 -0.3929  0.7000 -0.3676
  177SLPC  H11R20180   1.077   5.102   9.448  1.3642  0.6629  0.1101
  177SLPC  H11S20181   1.134   4.988   9.326  2.4069  0.8275  1.1095
  177SLPC  C21220182   0.941   4.941   9.407 -0.2488 -0.3482  0.3134
  177SLPC  H12R20183   0.891   4.929   9.504 -0.6484  2.2687  0.5225
  177SLPC  C21320184   0.864   4.927   9.294  0.1796 -0.4400  0.0610
  177SLPC  H13R20185   0.762   4.890   9.309 -0.5694  1.1432 -0.8715
  177SLPC  C21420186   0.906   4.961   9.147  0.8046 -0.0834  0.0709
  177SLPC  H14R20187   0.893   4.868   9.087 -1.7961  0.7558 -0.7839
  177SLPC  H14S20188   1.012   4.997   9.142  0.2622  1.6555  0.3522
  177SLPC  C21520189   0.806   5.072   9.089  0.6953  0.2477  0.0366
  177SLPC  H15R20190   0.826   5.160   9.154  0.3407  0.1836  0.2337
  177SLPC  H15S20191   0.704   5.032   9.105 -0.4125  2.9765  0.1592
  177SLPC  C21620192   0.819   5.095   8.943 -0.8801 -0.3028  0.3096
  177SLPC  H16R20193   0.792   5.004   8.886 -1.5412  0.1310 -0.0930
  177SLPC  H16S20194   0.927   5.119   8.937 -1.4308  2.1666 -2.8461
  177SLPC  C21720195   0.746   5.215   8.880 -0.3278  0.3086  0.0732
  177SLPC  H17R20196   0.787   5.303   8.933  2.4402 -2.1955  2.4031
  177SLPC  H17S20197   0.639   5.196   8.904 -0.4082 -1.9716 -1.6750
  177SLPC  C21820198   0.762   5.233   8.725  0.0173  0.3104  0.0461
  177SLPC  H18R20199   0.721   5.142   8.677  0.4528 -0.5398  1.2268
  177SLPC  H18S20200   0.866   5.233   8.688 -0.8517 -1.0381 -2.6246
  177SLPC  H18T20201   0.711   5.327   8.696  0.6477  0.4367 -0.6755
  177SLPC   C3320202   0.644   4.930  10.116 -0.3424  0.1465  0.0920
  177SLPC   H3X20203   0.752   4.935  10.089  0.3844  1.0109  2.8538
  177SLPC   H3Y20204   0.618   5.038  10.113  1.5671  0.6374 -1.1012
  177SLPC   C3420205   0.573   4.864   9.997 -0.7293 -0.6228  0.4974
  177SLPC   H4X20206   0.477   4.814  10.023  0.4875 -2.0108  2.6713
  177SLPC   H4Y20207   0.652   4.790   9.973  0.4499  0.1181  1.9083
  177SLPC   C3520208   0.560   4.962   9.885  0.9344 -0.1859  1.0912
  177SLPC   H5X20209   0.651   5.026   9.878  0.4555  0.6928  2.4703
  177SLPC   H5Y20210   0.478   5.026   9.926  1.0570 -0.6640  2.1033
  177SLPC   C3620211   0.497   4.900   9.758  0.2644 -0.4610 -0.3283
  177SLPC   H6X20212   0.418   4.838   9.804  0.5829  0.3393  1.3754
  177SLPC   H6Y20213   0.572   4.826   9.723  0.3102 -1.0590  0.9975
  177SLPC   C3720214   0.454   4.996   9.649  0.1611 -0.9358 -0.4294
  177SLPC   H7X20215   0.548   5.051   9.625  1.7193 -3.0140  0.4905
  177SLPC   H7Y20216   0.372   5.061   9.686  1.7791 -0.7577  3.2765
  177SLPC   C3820217   0.421   4.922   9.520 -0.4858  0.1053 -0.0786
  177SLPC   H8X20218   0.344   4.845   9.541 -0.4140  0.4764  1.7050
  177SLPC   H8Y20219   0.510   4.856   9.507 -1.3110 -1.4007  1.5232
  177SLPC   C3920220   0.399   5.004   9.391  0.3835  0.7524  0.0165
  177SLPC   H9X20221   0.482   5.068   9.356  1.3361 -1.4677 -2.0900
  177SLPC   H9Y20222   0.305   5.060   9.413 -0.8440 -1.8687  2.0080
  177SLPC  C31020223   0.371   4.917   9.264  0.3365  0.5793 -0.2682
  177SLPC  H10X20224   0.297   4.837   9.288 -0.0283  0.2178 -2.4492
  177SLPC  H10Y20225   0.461   4.861   9.231  0.2193 -0.4873  1.1050
  177SLPC  C31120226   0.315   5.000   9.148  0.0524  0.7297  0.1404
  177SLPC  H11X20227   0.371   5.095   9.140 -0.0401  0.9737  1.9484
  177SLPC  H11Y20228   0.210   5.030   9.169 -0.1248 -0.3713  0.9339
  177SLPC  C31220229   0.310   4.921   9.011 -0.6216 -0.3682  0.4515
  177SLPC  H12X20230   0.253   4.829   9.034 -0.7386  0.0167  1.8126
  177SLPC  H12Y20231   0.417   4.898   8.992 -0.9170 -1.2596 -0.1733
  177SLPC  C31320232   0.235   4.995   8.901  0.2133 -0.1089 -0.2589
  177SLPC  H13X20233   0.276   5.098   8.896  2.8925 -1.1355 -1.3768
  177SLPC  H13Y20234   0.126   4.983   8.921  0.6932 -0.5745  2.5431
  177SLPC  C31420235   0.250   4.925   8.766 -0.5025  0.1445  0.1353
  177SLPC  H14X20236   0.356   4.945   8.741 -1.4654  2.1583 -2.9839
  177SLPC  H14Y20237   0.177   4.979   8.702 -0.8250  0.0476  0.4204
  177SLPC  C31520238   0.208   4.775   8.754  0.1835 -0.3208  0.4318
  177SLPC  H15X20239   0.101   4.772   8.783  0.2684 -1.5921  0.6672
  177SLPC  H15Y20240   0.259   4.712   8.829  0.3068 -1.4163 -0.5427
  177SLPC  C31620241   0.205   4.722   8.610  0.2636  0.0976 -1.3499
  177SLPC  H16X20242   0.119   4.768   8.557 -0.2930 -0.3452 -0.8441
  177SLPC  H16Y20243   0.176   4.615   8.613  0.4415  0.0524  1.5471
  177SLPC  C31720244   0.330   4.735   8.533 -0.1838 -0.2857  0.6750
  177SLPC  H17X20245   0.405   4.667   8.580  1.0851  0.3334 -0.3786
  177SLPC  H17Y20246   0.370   4.838   8.540  1.2690 -0.5192 -2.5184
  177SLPC  C31820247   0.315   4.698   8.387  0.0315 -0.3183  0.8408
  177SLPC  H18X20248   0.218   4.733   8.345 -0.4487  1.4207  3.1672
  177SLPC  H18Y20249   0.325   4.588   8.370 -2.5197 -0.5040  0.1354
  177SLPC  H18Z20250   0.399   4.738   8.328  1.0356 -1.1963  1.6296
  178SLPC     N20251   2.619   6.381  11.135 -0.2537 -0.4167  0.1249
  178SLPC   C1320252   2.549   6.329  11.252 -0.1961  0.6501  0.1750
  178SLPC  H13A20253   2.476   6.252  11.232  0.7788 -0.1424 -0.4237
  178SLPC  H13B20254   2.618   6.293  11.328 -0.6982 -1.0952 -0.1477
  178SLPC  H13C20255   2.491   6.406  11.300 -1.7036  1.2461 -2.3971
  178SLPC   C1420256   2.729   6.283  11.092 -0.2092 -1.1026 -0.0458
  178SLPC  H14A20257   2.694   6.181  11.098 -3.5146 -0.0479  0.8044
  178SLPC  H14B20258   2.762   6.307  10.992 -0.7850 -0.8812 -0.1907
  178SLPC  H14C20259   2.819   6.290  11.150 -0.7252 -3.5036  1.1597
  178SLPC   C1520260   2.688   6.508  11.170 -0.0777 -0.8298 -0.1589
  178SLPC  H15A20261   2.733   6.496  11.268 -0.2615  0.0950  0.0582
  178SLPC  H15B20262   2.772   6.536  11.109  0.5670 -1.0005  0.6310
  178SLPC  H15C20263   2.623   6.594  11.183 -0.7643 -1.5564  1.4440
  178SLPC   C1220264   2.523   6.406  11.026  0.1477 -0.1233 -0.0393
  178SLPC  H12A20265   2.446   6.475  11.055 -0.1094  0.2633 -1.5167
  178SLPC  H12B20266   2.468   6.315  11.013  1.1566 -0.5050 -2.0762
  178SLPC   C1120267   2.577   6.435  10.884 -0.5783 -0.7478  0.7736
  178SLPC  H11A20268   2.652   6.517  10.888 -0.6612 -0.7280  3.2861
  178SLPC  H11B20269   2.501   6.489  10.824  0.9357  0.9600  0.2787
  178SLPC     P20270   2.565   6.196  10.768  0.2522  0.2089 -0.0305
  178SLPC   O1320271   2.651   6.078  10.793  0.0284 -0.6731  0.6596
  178SLPC   O1420272   2.419   6.190  10.816  0.0166 -0.3974 -0.1136
  178SLPC   O1220273   2.640   6.318  10.826 -0.2016  0.0664 -0.9746
  178SLPC   O1120274   2.566   6.234  10.616 -0.1221  0.0832  0.2744
  178SLPC    C120275   2.519   6.357  10.560  0.3485 -0.1659  0.5067
  178SLPC    HA20276   2.428   6.388  10.616 -2.1030  1.1130 -3.7289
  178SLPC    HB20277   2.599   6.434  10.558 -1.1537  1.6068  3.0343
  178SLPC    C220278   2.467   6.343  10.415  0.6325  0.6727 -0.0016
  178SLPC    HS20279   2.375   6.281  10.422  0.9489  0.2166  0.1078
  178SLPC   O2120280   2.565   6.279  10.337  0.2158  0.1798  0.4659
  178SLPC   C2120281   2.530   6.231  10.214  0.5091 -0.0144 -0.5377
  178SLPC   O2220282   2.415   6.217  10.178  0.0187  0.6266  0.3487
  178SLPC   C2220283   2.659   6.203  10.145  0.2164 -0.3992  0.2593
  178SLPC   H2R20284   2.742   6.261  10.190  0.3369  1.1893 -1.8735
  178SLPC   H2S20285   2.675   6.093  10.149  1.9494 -0.2299 -0.9276
  178SLPC    C320286   2.434   6.479  10.361 -0.1050 -0.4863  0.8827
  178SLPC    HX20287   2.524   6.542  10.372 -1.5559  1.8609  0.0349
  178SLPC    HY20288   2.363   6.522  10.436 -0.2178 -0.8815  1.0094
  178SLPC   O3120289   2.394   6.494  10.223  0.2828 -0.1891 -0.4844
  178SLPC   C3120290   2.268   6.484  10.198  0.2635 -0.1607 -0.1883
  178SLPC   O3220291   2.175   6.471  10.276  0.3061 -0.1334 -0.5052
  178SLPC   C3220292   2.237   6.508  10.051  0.4016  0.4068 -1.1120
  178SLPC   H2X20293   2.139   6.559  10.044  0.2005  0.1147 -0.4135
  178SLPC   H2Y20294   2.214   6.410  10.004 -1.9788  0.8593 -0.9992
  178SLPC   C2320295   2.649   6.251  10.001  0.6986  0.3252  0.2024
  178SLPC   H3R20296   2.749   6.278   9.961  1.3773  0.0988  1.6788
  178SLPC   H3S20297   2.595   6.348   9.993  0.7261  0.4167  1.0322
  178SLPC   C2420298   2.579   6.147   9.906 -0.2898 -0.0124 -0.6436
  178SLPC   H4R20299   2.517   6.070   9.958 -0.9496  1.5233  0.9287
  178SLPC   H4S20300   2.650   6.088   9.844 -1.6126 -0.6373 -1.6191
  178SLPC   C2520301   2.487   6.201   9.792 -0.2090 -0.0952  0.2592
  178SLPC   H5R20302   2.397   6.250   9.835 -1.8300 -2.7907  0.1724
  178SLPC   H5S20303   2.449   6.114   9.734 -0.4896  1.3504 -1.8487
  178SLPC   C2620304   2.555   6.286   9.685  0.1939 -0.8958 -0.3962
  178SLPC   H6R20305   2.638   6.225   9.645 -1.7572 -3.9045 -0.1122
  178SLPC   H6S20306   2.586   6.373   9.747 -2.0545  1.8359 -2.8076
  178SLPC   C2720307   2.465   6.330   9.561 -0.5971 -0.5854 -0.2426
  178SLPC   H7R20308   2.370   6.375   9.599 -1.3572 -1.4065 -1.1067
  178SLPC   H7S20309   2.430   6.236   9.511  0.3020 -0.9227 -0.2456
  178SLPC   C2820310   2.543   6.413   9.450  0.4810 -0.5084  0.1494
  178SLPC   H8R20311   2.641   6.362   9.433 -0.0437 -2.3260  2.1993
  178SLPC   H8S20312   2.562   6.515   9.490  1.4339 -1.0094  1.0287
  178SLPC   C2920313   2.462   6.411   9.325  0.9260 -0.2437 -0.2526
  178SLPC   H9R20314   2.356   6.437   9.340  1.3454  0.2037  2.3312
  178SLPC  C21020315   2.495   6.396   9.199  0.1294  0.6586 -0.0529
  178SLPC  H10R20316   2.413   6.403   9.125  1.9938 -0.8950 -2.4292
  178SLPC  C21120317   2.628   6.364   9.134  0.5121 -0.5325  0.6177
  178SLPC  H11R20318   2.661   6.273   9.189 -1.2890 -1.2520  0.5924
  178SLPC  H11S20319   2.700   6.448   9.143 -1.5224  1.3821  0.0243
  178SLPC  C21220320   2.618   6.328   8.988  0.3021  0.0012  0.6558
  178SLPC  H12R20321   2.532   6.270   8.951  1.4808 -0.6774 -1.1209
  178SLPC  C21320322   2.705   6.362   8.887  0.0240  0.4747  0.1482
  178SLPC  H13R20323   2.688   6.320   8.787  1.0290  1.5293 -0.4952
  178SLPC  C21420324   2.840   6.422   8.907 -0.2553 -0.7657 -0.2628
  178SLPC  H14R20325   2.890   6.366   8.989 -0.0192  0.5673  0.5432
  178SLPC  H14S20326   2.835   6.528   8.940 -1.5181 -0.5424 -1.0762
  178SLPC  C21520327   2.935   6.416   8.786  1.0522  0.2457  0.3374
  178SLPC  H15R20328   3.016   6.487   8.813 -0.5515  1.1810  3.0709
  178SLPC  H15S20329   2.883   6.457   8.697 -2.6011  0.5316  2.4272
  178SLPC  C21620330   2.989   6.277   8.753  0.2865 -0.7862 -0.4047
  178SLPC  H16R20331   2.903   6.217   8.718 -0.4035 -0.4235  0.6046
  178SLPC  H16S20332   3.023   6.230   8.848 -0.9505 -1.4185 -0.2645
  178SLPC  C21720333   3.093   6.277   8.641  0.2209  0.0085 -0.1686
  178SLPC  H17R20334   3.184   6.338   8.663 -0.5071  2.5139 -3.2933
  178SLPC  H17S20335   3.057   6.338   8.555  0.1719 -1.8191 -1.5068
  178SLPC  C21820336   3.130   6.138   8.587  0.1579 -0.2926  0.1046
  178SLPC  H18R20337   3.169   6.081   8.675 -0.4548 -1.4386 -0.3381
  178SLPC  H18S20338   3.210   6.150   8.511 -1.2491  0.8357 -1.2558
  178SLPC  H18T20339   3.047   6.083   8.537 -0.9512  1.1982  0.2498
  178SLPC   C3320340   2.345   6.577   9.966 -0.6138  0.0564 -0.4518
  178SLPC   H3X20341   2.443   6.527   9.977  0.4499  1.2152 -3.5103
  178SLPC   H3Y20342   2.359   6.680  10.005  0.7279  0.0890 -0.9834
  178SLPC   C3420343   2.305   6.579   9.810 -0.5763 -0.0759  0.1137
  178SLPC   H4X20344   2.295   6.470   9.792 -0.3592  0.0981 -1.1041
  178SLPC   H4Y20345   2.391   6.620   9.754 -0.9139  0.0005 -0.3518
  178SLPC   C3520346   2.172   6.649   9.776 -0.1211  0.5936  0.0970
  178SLPC   H5X20347   2.186   6.754   9.807 -0.5763  0.2216  1.6540
  178SLPC   H5Y20348   2.089   6.604   9.835  0.8608 -1.1258  0.2306
  178SLPC   C3620349   2.124   6.625   9.631  0.8092  0.3889 -0.2675
  178SLPC   H6X20350   2.015   6.648   9.625  0.7660  0.0797 -0.6313
  178SLPC   H6Y20351   2.140   6.519   9.604  3.1288  0.5344  0.2840
  178SLPC   C3720352   2.195   6.708   9.524 -0.9490 -0.3300 -0.3056
  178SLPC   H7X20353   2.301   6.706   9.557 -1.2901  1.7914  1.1350
  178SLPC   H7Y20354   2.168   6.816   9.517 -0.3851 -0.2208 -0.7903
  178SLPC   C3820355   2.168   6.659   9.384 -0.0510  0.3189 -0.6569
  178SLPC   H8X20356   2.058   6.672   9.370 -0.5097  1.2981  2.9547
  178SLPC   H8Y20357   2.187   6.550   9.379  1.9652  0.5550  0.7014
  178SLPC   C3920358   2.248   6.728   9.282 -0.1533  0.1778 -0.0637
  178SLPC   H9X20359   2.357   6.727   9.301 -0.2066  1.9538  0.4936
  178SLPC   H9Y20360   2.220   6.836   9.281 -1.7055 -0.1679  1.2352
  178SLPC  C31020361   2.217   6.667   9.142 -0.9800  0.5341 -0.5387
  178SLPC  H10X20362   2.109   6.641   9.140 -1.1273  1.1244 -0.5601
  178SLPC  H10Y20363   2.279   6.576   9.130  0.5639  1.6863 -1.7180
  178SLPC  C31120364   2.246   6.751   9.017  0.2096  0.2680  0.5446
  178SLPC  H11X20365   2.355   6.769   9.005 -0.0810  2.1579  0.4827
  178SLPC  H11Y20366   2.186   6.844   9.012 -1.5294 -0.7978  0.7508
  178SLPC  C31220367   2.215   6.673   8.885  0.0423 -0.7679 -0.2243
  178SLPC  H12X20368   2.241   6.566   8.899  3.0772 -0.1607 -0.4731
  178SLPC  H12Y20369   2.287   6.709   8.808 -0.3442 -1.1206 -0.7569
  178SLPC  C31320370   2.078   6.703   8.826 -0.6745 -0.4251 -0.0638
  178SLPC  H13X20371   2.057   6.811   8.812  2.6377  0.5051  1.1317
  178SLPC  H13Y20372   2.002   6.669   8.900  1.5233 -0.5207  2.2693
  178SLPC  C31420373   2.044   6.633   8.693 -0.3854 -0.5493 -0.1945
  178SLPC  H14X20374   2.109   6.672   8.612 -2.1220  0.8886 -0.9683
  178SLPC  H14Y20375   1.941   6.671   8.674  0.1935  2.6212  2.1734
  178SLPC  C31520376   2.067   6.477   8.688  0.0494  0.1204  0.7715
  178SLPC  H15X20377   2.021   6.427   8.600  1.3951 -1.5633  0.9712
  178SLPC  H15Y20378   2.177   6.459   8.682  0.0965  0.5991  0.0705
  178SLPC  C31620379   2.021   6.392   8.808  0.9528  0.0522 -0.4816
  178SLPC  H16X20380   1.910   6.387   8.813  0.8228  2.4194  0.4547
  178SLPC  H16Y20381   2.059   6.445   8.898  0.3003 -0.8049  0.3206
  178SLPC  C31720382   2.088   6.257   8.795  0.4146  0.6293 -0.5687
  178SLPC  H17X20383   2.064   6.193   8.883  1.5178 -0.5626 -1.1025
  178SLPC  H17Y20384   2.198   6.247   8.784  0.0609 -3.3220 -2.7713
  178SLPC  C31820385   2.023   6.159   8.686 -0.0631 -0.0750  0.7783
  178SLPC  H18X20386   2.082   6.065   8.692  0.3310 -0.0844 -1.9451
  178SLPC  H18Y20387   2.032   6.195   8.581 -0.1737 -0.4127  0.6527
  178SLPC  H18Z20388   1.917   6.135   8.706 -0.8862  1.1070 -1.6687
  179SLPC     N20389   3.394   3.183  10.884  0.3089 -0.6467 -0.8354
  179SLPC   C1320390   3.317   3.065  10.845  1.0119 -0.3353  0.3848
  179SLPC  H13A20391   3.220   3.061  10.893  0.7721  0.7189  0.0306
  179SLPC  H13B20392   3.294   3.063  10.740 -0.4904  0.3427  0.6750
  179SLPC  H13C20393   3.363   2.973  10.876 -0.0867 -0.8557  0.5023
  179SLPC   C1420394   3.410   3.174  11.037  0.0216 -0.3896  0.5679
  179SLPC  H14A20395   3.312   3.192  11.081  0.5610  2.3729  0.8078
  179SLPC  H14B20396   3.443   3.074  11.062  0.4702 -0.9730 -2.1111
  179SLPC  H14C20397   3.481   3.241  11.083  1.7461 -2.8803  1.7768
  179SLPC   C1520398   3.318   3.310  10.846 -0.0365 -0.3962  0.3934
  179SLPC  H15A20399   3.371   3.389  10.897 -0.7467 -1.0210  2.1775
  179SLPC  H15B20400   3.318   3.328  10.740  2.2807  0.7322  0.5230
  179SLPC  H15C20401   3.213   3.302  10.867 -0.0231  0.0057  0.6331
  179SLPC   C1220402   3.526   3.184  10.817 -0.5595  0.1196 -0.1155
  179SLPC  H12A20403   3.585   3.109  10.867 -0.3349  0.6808  0.4788
  179SLPC  H12B20404   3.569   3.282  10.831 -3.6449  1.6881 -0.7689
  179SLPC   C1120405   3.526   3.163  10.658  0.8335 -0.4344  0.1665
  179SLPC  H11A20406   3.492   3.060  10.634 -1.8455  0.2152  0.8177
  179SLPC  H11B20407   3.632   3.167  10.628  0.7865 -1.3639 -0.1635
  179SLPC     P20408   3.476   3.395  10.537  0.3623  0.1398 -0.2515
  179SLPC   O1320409   3.346   3.450  10.484 -0.0254 -0.0815 -0.4190
  179SLPC   O1420410   3.540   3.475  10.648 -0.2770  0.1569 -0.3032
  179SLPC   O1220411   3.438   3.252  10.594  0.4012  0.5338  0.0960
  179SLPC   O1120412   3.583   3.375  10.416 -0.5749  0.6766  0.0818
  179SLPC    C120413   3.573   3.287  10.305  0.4344  0.0581 -0.8077
  179SLPC    HA20414   3.676   3.270  10.268  0.6851 -2.0384  0.6844
  179SLPC    HB20415   3.545   3.190  10.350 -0.1961  0.8567  0.5837
  179SLPC    C220416   3.489   3.323  10.182  0.1287  0.7035  0.6395
  179SLPC    HS20417   3.467   3.431  10.196 -1.0805  0.6569 -0.6392
  179SLPC   O2120418   3.384   3.229  10.187 -0.2699  0.2297 -0.1129
  179SLPC   C2120419   3.271   3.281  10.144 -0.2682 -0.1072  0.5471
  179SLPC   O2220420   3.256   3.392  10.098 -0.4495  0.3127 -0.3308
  179SLPC   C2220421   3.165   3.179  10.147  0.6912  0.9571  0.4567
  179SLPC   H2R20422   3.199   3.075  10.167  0.9665  0.0957 -3.7245
  179SLPC   H2S20423   3.080   3.206  10.213  1.8163  1.0036  1.9441
  179SLPC    C320424   3.561   3.287  10.052 -0.2291 -0.1387 -0.4011
  179SLPC    HX20425   3.578   3.178  10.043  0.5435  0.0845 -1.8512
  179SLPC    HY20426   3.660   3.335  10.036  0.1368 -0.9863 -0.7604
  179SLPC   O3120427   3.487   3.309   9.930  0.3185  0.2062 -0.1800
  179SLPC   C3120428   3.505   3.418   9.851  0.2570  0.1349  0.3667
  179SLPC   O3220429   3.581   3.509   9.878 -0.9036 -0.0408 -0.0425
  179SLPC   C3220430   3.426   3.404   9.722  0.6589  0.6252  1.4924
  179SLPC   H2X20431   3.370   3.309   9.728  1.6039 -0.0680 -0.0716
  179SLPC   H2Y20432   3.495   3.397   9.635 -1.4869  1.0493 -0.3258
  179SLPC   C2320433   3.102   3.161  10.001 -0.3976 -0.0749  0.2848
  179SLPC   H3R20434   3.050   3.256   9.977 -0.0442  0.3525  1.1623
  179SLPC   H3S20435   3.013   3.096  10.014 -1.8943  1.9077  0.4751
  179SLPC   C2420436   3.191   3.121   9.887  0.2389  0.0361  0.4987
  179SLPC   H4R20437   3.216   3.015   9.910 -2.8282 -0.9393 -0.1942
  179SLPC   H4S20438   3.290   3.170   9.897 -0.3676  1.4489 -0.0834
  179SLPC   C2520439   3.141   3.142   9.742  0.0960 -0.2638 -0.4998
  179SLPC   H5R20440   3.139   3.252   9.721  0.1793  0.4130  2.5908
  179SLPC   H5S20441   3.034   3.117   9.757  0.1738  0.4201  1.5032
  179SLPC   C2620442   3.212   3.046   9.640 -0.5254  0.0862  0.4824
  179SLPC   H6R20443   3.136   3.005   9.570 -0.8057 -1.8444  1.8489
  179SLPC   H6S20444   3.249   2.960   9.700 -2.5911 -0.8446  0.4991
  179SLPC   C2720445   3.335   3.098   9.555 -0.1848 -0.2940 -0.3801
  179SLPC   H7R20446   3.430   3.105   9.613 -0.4730 -2.1133  0.3897
  179SLPC   H7S20447   3.308   3.198   9.516 -0.8834 -1.4794 -3.2041
  179SLPC   C2820448   3.362   3.009   9.433  0.3195 -0.5157  0.5750
  179SLPC   H8R20449   3.264   3.015   9.381  1.9143 -0.2292 -2.7117
  179SLPC   H8S20450   3.384   2.904   9.463 -2.0109 -0.9546  0.9105
  179SLPC   C2920451   3.463   3.074   9.342  0.5265  0.2452 -0.4814
  179SLPC   H9R20452   3.528   3.148   9.391 -1.5513  1.7043  0.2354
  179SLPC  C21020453   3.480   3.052   9.214  0.0441 -0.0078 -0.1900
  179SLPC  H10R20454   3.544   3.124   9.162 -0.4784 -0.1288 -1.0280
  179SLPC  C21120455   3.411   2.956   9.121 -0.8736  0.6087  0.4963
  179SLPC  H11R20456   3.332   3.017   9.071 -0.1488  1.8674  0.8721
  179SLPC  H11S20457   3.354   2.879   9.178 -1.1902  0.4944  0.0344
  179SLPC  C21220458   3.506   2.886   9.022  0.2777 -0.1460 -0.4347
  179SLPC  H12R20459   3.597   2.855   9.074  1.5540  2.6352 -0.8422
  179SLPC  C21320460   3.473   2.840   8.901  0.4534 -0.2070 -0.6891
  179SLPC  H13R20461   3.554   2.784   8.852  0.0822  0.8098 -2.5790
  179SLPC  C21420462   3.346   2.870   8.832  0.0236  0.1381 -0.0601
  179SLPC  H14R20463   3.325   2.979   8.835 -0.6824 -0.0023  1.2192
  179SLPC  H14S20464   3.262   2.819   8.885 -1.2471  0.4706 -1.6602
  179SLPC  C21520465   3.336   2.834   8.677 -0.3052 -0.1369 -0.4634
  179SLPC  H15R20466   3.236   2.857   8.636 -0.5419  0.5015  0.4449
  179SLPC  H15S20467   3.357   2.725   8.672 -0.2720 -0.2146  0.8975
  179SLPC  C21620468   3.437   2.907   8.583 -0.2938  0.1950  0.0013
  179SLPC  H16R20469   3.536   2.891   8.631 -1.0380 -0.7598  1.3141
  179SLPC  H16S20470   3.426   3.017   8.590  3.7472  0.7152  0.2494
  179SLPC  C21720471   3.426   2.871   8.437  0.0286  0.3044 -0.1683
  179SLPC  H17R20472   3.318   2.879   8.412 -0.1285  1.2359  0.7241
  179SLPC  H17S20473   3.459   2.768   8.413  1.4320  0.8571 -0.7609
  179SLPC  C21820474   3.500   2.974   8.353  0.1503  0.7590 -0.3520
  179SLPC  H18R20475   3.456   2.981   8.252 -1.3123 -1.3488  0.0626
  179SLPC  H18S20476   3.609   2.951   8.359 -0.1257 -0.3779  0.7732
  179SLPC  H18T20477   3.490   3.079   8.385 -2.3402  0.9013 -1.4136
  179SLPC   C3320478   3.323   3.521   9.700  0.2657 -0.2330 -0.1885
  179SLPC   H3X20479   3.380   3.616   9.701 -0.4783  0.2816 -2.0628
  179SLPC   H3Y20480   3.260   3.521   9.791 -0.7110  1.7262 -0.8083
  179SLPC   C3420481   3.242   3.525   9.570 -0.5318  0.3799  0.3325
  179SLPC   H4X20482   3.143   3.574   9.581  0.1281  1.6229  1.0371
  179SLPC   H4Y20483   3.218   3.424   9.530  0.3334  0.0603  0.6110
  179SLPC   C3520484   3.324   3.607   9.471  1.2870 -0.6201 -0.6350
  179SLPC   H5X20485   3.425   3.561   9.476  1.6512  0.3338  2.5713
  179SLPC   H5Y20486   3.330   3.715   9.497 -2.2630 -0.4256 -0.0659
  179SLPC   C3620487   3.278   3.581   9.324 -0.1787 -0.2038 -0.9004
  179SLPC   H6X20488   3.186   3.635   9.295  0.1154  1.1975  0.6278
  179SLPC   H6Y20489   3.256   3.472   9.317  1.6404 -0.5364 -2.6827
  179SLPC   C3720490   3.396   3.588   9.225 -0.3570 -0.2314  1.0769
  179SLPC   H7X20491   3.488   3.539   9.265  0.7316  0.9875  0.1760
  179SLPC   H7Y20492   3.427   3.694   9.219 -0.2506 -0.3615 -1.2557
  179SLPC   C3820493   3.367   3.528   9.082  0.7464 -0.0438  0.1660
  179SLPC   H8X20494   3.431   3.573   9.002 -0.3745  0.1024 -0.6778
  179SLPC   H8Y20495   3.263   3.562   9.059  0.4558 -0.1644  1.2752
  179SLPC   C3920496   3.380   3.377   9.088  0.7121 -0.1997 -0.2327
  179SLPC   H9X20497   3.292   3.322   9.129  0.6723 -0.4420 -0.6354
  179SLPC   H9Y20498   3.473   3.345   9.141 -0.3199 -2.3269  0.4130
  179SLPC  C31020499   3.391   3.312   8.941 -0.1174  0.2789 -0.7430
  179SLPC  H10X20500   3.290   3.315   8.894 -0.9301 -0.3094  0.9235
  179SLPC  H10Y20501   3.407   3.204   8.960 -1.8205 -0.2069 -1.7694
  179SLPC  C31120502   3.501   3.361   8.847 -0.3917  0.0334 -0.0479
  179SLPC  H11X20503   3.596   3.331   8.896 -0.7643 -0.7570  0.2160
  179SLPC  H11Y20504   3.503   3.471   8.831 -0.1073  0.2212  1.1977
  179SLPC  C31220505   3.502   3.288   8.714 -0.1153  0.5977  1.1022
  179SLPC  H12X20506   3.428   3.335   8.645 -0.3986 -1.0084  0.2569
  179SLPC  H12Y20507   3.479   3.179   8.718 -1.0442  0.5166 -2.5373
  179SLPC  C31320508   3.637   3.284   8.638  0.9232  0.2078 -0.0532
  179SLPC  H13X20509   3.635   3.240   8.537  1.8568  1.7451 -0.7757
  179SLPC  H13Y20510   3.714   3.224   8.690 -0.3725 -1.8062 -0.3503
  179SLPC  C31420511   3.694   3.426   8.601  0.3352  0.3426 -0.1141
  179SLPC  H14X20512   3.704   3.466   8.704  1.6387 -0.9142  0.2795
  179SLPC  H14Y20513   3.618   3.481   8.542  1.8836  3.3249  0.4953
  179SLPC  C31520514   3.827   3.414   8.540 -0.1588 -0.1719 -0.4018
  179SLPC  H15X20515   3.816   3.375   8.437 -0.4258 -2.0271  0.2993
  179SLPC  H15Y20516   3.881   3.340   8.603  0.0813 -0.4893 -0.9707
  179SLPC  C31620517   3.903   3.546   8.552 -0.4816 -0.1533  0.3980
  179SLPC  H16X20518   3.857   3.615   8.625 -0.3371 -0.1239  0.4603
  179SLPC  H16Y20519   3.893   3.595   8.453  0.6637 -1.1402 -0.2378
  179SLPC  C31720520   4.051   3.526   8.576 -0.9704  0.4250  0.2535
  179SLPC  H17X20521   4.114   3.616   8.561 -0.6135  0.6074  2.5355
  179SLPC  H17Y20522   4.086   3.446   8.507  0.2548  1.0415  0.1311
  179SLPC  C31820523   4.088   3.470   8.719 -0.6423 -0.0008 -0.6729
  179SLPC  H18X20524   4.036   3.375   8.741  1.0590 -1.0345 -0.8824
  179SLPC  H18Y20525   4.078   3.543   8.802  2.8383  0.8512 -0.8286
  179SLPC  H18Z20526   4.198   3.452   8.716 -0.4275  0.8743  0.6237
  180SLPC     N20527   3.871   0.817  10.731  0.0202  0.9309 -0.4657
  180SLPC   C1320528   3.731   0.833  10.677 -0.2511  0.3738 -0.6150
  180SLPC  H13A20529   3.717   0.777  10.586  1.2964 -0.9380 -0.0965
  180SLPC  H13B20530   3.658   0.812  10.754  0.3876  2.8806  0.7981
  180SLPC  H13C20531   3.711   0.937  10.657  1.4972  0.5743 -1.4628
  180SLPC   C1420532   3.875   0.682  10.796 -0.0955  0.2242  0.4742
  180SLPC  H14A20533   3.980   0.659  10.805 -0.0773  0.6122  1.3313
  180SLPC  H14B20534   3.826   0.679  10.892 -1.6392 -0.6450 -0.2920
  180SLPC  H14C20535   3.821   0.603  10.746  1.5327  0.5828 -2.0076
  180SLPC   C1520536   3.880   0.918  10.841 -0.4382 -0.2870  0.4687
  180SLPC  H15A20537   3.801   0.904  10.913  0.0312 -1.1386  0.8415
  180SLPC  H15B20538   3.973   0.897  10.892 -0.4597  1.1116  1.1350
  180SLPC  H15C20539   3.890   1.020  10.806 -1.8379 -0.8855 -1.9161
  180SLPC   C1220540   3.978   0.832  10.626 -0.0645  0.5498  0.2741
  180SLPC  H12A20541   3.972   0.931  10.584 -1.0302  0.1858 -0.4734
  180SLPC  H12B20542   3.962   0.749  10.559  0.8858  0.2928  0.3443
  180SLPC   C1120543   4.124   0.821  10.677 -0.2928 -0.0747 -0.1506
  180SLPC  H11A20544   4.195   0.813  10.593  0.5390  0.7647  0.4533
  180SLPC  H11B20545   4.149   0.731  10.737 -1.1519  0.7715  1.5588
  180SLPC     P20546   4.178   1.068  10.721 -0.3434  0.0864 -0.0952
  180SLPC   O1320547   4.060   1.110  10.644 -0.8602  0.3736  0.0582
  180SLPC   O1420548   4.225   1.155  10.831  0.4660 -0.8019 -0.3793
  180SLPC   O1220549   4.161   0.924  10.762  0.2818 -0.1092 -0.0251
  180SLPC   O1120550   4.296   1.044  10.622 -0.0406 -0.5732 -0.8865
  180SLPC    C120551   4.360   1.160  10.563  0.4552 -0.3224 -0.4923
  180SLPC    HA20552   4.304   1.253  10.587 -4.5338 -3.4020  1.5562
  180SLPC    HB20553   4.461   1.170  10.607 -0.2241  0.4428  0.9528
  180SLPC    C220554   4.370   1.149  10.406 -0.2458 -0.3803 -0.0826
  180SLPC    HS20555   4.410   1.241  10.358 -1.5758  1.9307  2.8815
  180SLPC   O2120556   4.237   1.134  10.353  0.1390  0.0494  0.4208
  180SLPC   C2120557   4.149   1.220  10.364 -0.0902  0.2921  1.1647
  180SLPC   O2220558   4.152   1.328  10.424  0.3866 -0.0492  0.1772
  180SLPC   C2220559   4.043   1.180  10.268  0.4472  0.8101  0.3429
  180SLPC   H2R20560   4.008   1.268  10.212 -1.1067 -1.3374 -2.3191
  180SLPC   H2S20561   4.096   1.120  10.191 -0.2739  0.3228  0.2194
  180SLPC    C320562   4.454   1.025  10.381  0.0197  1.1171 -0.4005
  180SLPC    HX20563   4.404   0.929  10.405 -1.3001  1.2291 -2.4112
  180SLPC    HY20564   4.535   1.015  10.456 -1.6145  0.4398  1.3492
  180SLPC   O3120565   4.499   1.011  10.249 -0.2783  0.7045 -0.3717
  180SLPC   C3120566   4.628   1.035  10.234  0.1463 -0.4083  0.7352
  180SLPC   O3220567   4.696   1.091  10.312  0.8887  0.1002  0.6176
  180SLPC   C3220568   4.680   0.991  10.089  0.8999 -0.4059  0.0665
  180SLPC   H2X20569   4.778   1.040  10.066  0.7419  1.8046  3.3889
  180SLPC   H2Y20570   4.609   1.048  10.025  0.5838  1.6439  2.0880
  180SLPC   C2320571   3.917   1.103  10.321 -0.1716 -0.0457 -0.7221
  180SLPC   H3R20572   3.845   1.180  10.356  1.1107  1.6051 -1.6140
  180SLPC   H3S20573   3.941   1.043  10.411 -1.0769  0.7637  0.0782
  180SLPC   C2420574   3.859   0.999  10.221 -0.3202 -0.7677 -0.5199
  180SLPC   H4R20575   3.929   0.916  10.197 -1.1181 -0.9902 -2.2729
  180SLPC   H4S20576   3.838   1.054  10.127  2.1196 -0.0397 -0.7223
  180SLPC   C2520577   3.734   0.934  10.269  0.3790  0.6005  0.8314
  180SLPC   H5R20578   3.649   1.004  10.255 -0.6692 -0.9674 -1.4877
  180SLPC   H5S20579   3.727   0.885  10.369 -0.5685 -0.3624  0.3204
  180SLPC   C2620580   3.704   0.813  10.168  0.1251  0.5854 -0.3130
  180SLPC   H6R20581   3.785   0.738  10.172  0.8126  1.1166 -2.4693
  180SLPC   H6S20582   3.704   0.855  10.064 -0.8791 -0.2582 -0.6750
  180SLPC   C2720583   3.569   0.731  10.184 -0.4277 -0.0922  0.0883
  180SLPC   H7R20584   3.487   0.806  10.188  1.0402  1.5035  2.6928
  180SLPC   H7S20585   3.571   0.673  10.278  1.1214  2.5503  1.7902
  180SLPC   C2820586   3.526   0.648  10.061 -0.6032 -0.3080 -0.2508
  180SLPC   H8R20587   3.498   0.719   9.980 -2.7849 -0.5952  0.1953
  180SLPC   H8S20588   3.437   0.595  10.101 -0.3358  1.2273  2.6614
  180SLPC   C2920589   3.620   0.528  10.037  0.4366 -0.0483  0.0518
  180SLPC   H9R20590   3.633   0.455  10.118 -0.9463 -1.8499 -1.2823
  180SLPC  C21020591   3.709   0.522   9.936 -0.7655 -0.1054 -0.2729
  180SLPC  H10R20592   3.783   0.441   9.942 -0.9086 -0.3168 -1.3314
  180SLPC  C21120593   3.725   0.606   9.811 -0.1514  0.7114  0.4369
  180SLPC  H11R20594   3.822   0.582   9.763 -0.4821 -0.4290  0.3251
  180SLPC  H11S20595   3.729   0.711   9.850 -0.8881  0.3734  1.4857
  180SLPC  C21220596   3.611   0.590   9.711 -0.3642 -0.3873 -0.5388
  180SLPC  H12R20597   3.509   0.589   9.754  0.1349  1.6999  0.8490
  180SLPC  C21320598   3.616   0.581   9.578 -0.6987 -0.5880  0.2295
  180SLPC  H13R20599   3.523   0.564   9.522 -0.3173 -0.2593 -0.5096
  180SLPC  C21420600   3.737   0.572   9.496 -0.6855  0.2478  0.0037
  180SLPC  H14R20601   3.824   0.588   9.563 -1.6300 -2.6049  2.0667
  180SLPC  H14S20602   3.741   0.648   9.415  0.8739 -0.8111 -0.9870
  180SLPC  C21520603   3.759   0.435   9.441  0.1274 -0.0644 -0.3649
  180SLPC  H15R20604   3.693   0.359   9.488  0.7558 -0.3147  0.1198
  180SLPC  H15S20605   3.867   0.409   9.446  0.1072 -0.5073 -1.6514
  180SLPC  C21620606   3.715   0.432   9.292 -0.6055  0.0586 -0.0259
  180SLPC  H16R20607   3.772   0.517   9.251  2.1257 -0.9878  1.3454
  180SLPC  H16S20608   3.604   0.439   9.285 -0.5528  0.1067 -0.8859
  180SLPC  C21720609   3.762   0.299   9.227 -0.5691 -0.2538 -0.1609
  180SLPC  H17R20610   3.692   0.226   9.273 -2.0285  0.5883 -0.9907
  180SLPC  H17S20611   3.867   0.279   9.258 -0.5149 -0.2253 -0.3211
  180SLPC  C21820612   3.754   0.310   9.071 -0.4913  0.3812 -0.6201
  180SLPC  H18R20613   3.755   0.213   9.017 -1.0978  0.1788 -0.2745
  180SLPC  H18S20614   3.842   0.369   9.037  0.1005  0.2501  0.6145
  180SLPC  H18T20615   3.674   0.381   9.040 -1.5761 -0.0324  1.0998
  180SLPC   C3320616   4.669   0.848  10.036  0.4991 -0.7068  0.3320
  180SLPC   H3X20617   4.599   0.850   9.950  2.4984 -0.3458 -1.3445
  180SLPC   H3Y20618   4.628   0.779  10.113  0.7573 -0.5644  0.5981
  180SLPC   C3420619   4.796   0.782  10.000 -0.5009 -0.1197  0.2347
  180SLPC   H4X20620   4.876   0.821  10.066  1.3258 -1.3846 -1.1237
  180SLPC   H4Y20621   4.820   0.814   9.896 -2.2050  2.7143  0.6244
  180SLPC   C3520622   4.806   0.626   9.999 -0.1706  0.6874  0.7591
  180SLPC   H5X20623   4.741   0.604   9.912 -0.7109 -0.4523  1.4388
  180SLPC   H5Y20624   4.772   0.572  10.090 -2.0252  1.9491  0.8557
  180SLPC   C3620625   4.947   0.570   9.969  0.3607  0.2858 -0.2371
  180SLPC   H6X20626   4.978   0.483  10.030  3.8584 -1.5205 -4.0947
  180SLPC   H6Y20627   5.012   0.655   9.999  0.1722  0.0992  0.7111
  180SLPC   C3720628   4.975   0.549   9.823  0.1931  1.0593  0.1505
  180SLPC   H7X20629   4.892   0.490   9.780  0.6105  1.4865 -1.2781
  180SLPC   H7Y20630   5.050   0.468   9.832 -1.6158 -0.6367  0.5430
  180SLPC   C3820631   5.013   0.677   9.748  0.1657  0.2046 -0.5498
  180SLPC   H8X20632   5.089   0.737   9.803 -1.8571  3.1435 -0.7552
  180SLPC   H8Y20633   4.919   0.735   9.739 -0.1405 -0.0867  0.5399
  180SLPC   C3920634   5.062   0.654   9.605  0.2774 -0.2840  0.8197
  180SLPC   H9X20635   4.988   0.598   9.545  0.2735  0.6789 -0.1121
  180SLPC   H9Y20636   5.148   0.584   9.613  0.3959  0.0854  4.2186
  180SLPC  C31020637   5.099   0.781   9.522 -0.2843  0.6559  0.6367
  180SLPC  H10X20638   5.169   0.846   9.578  2.8999 -0.0138 -2.2033
  180SLPC  H10Y20639   5.002   0.823   9.488 -0.3839 -1.3716 -1.8985
  180SLPC  C31120640   5.176   0.760   9.387 -0.2309 -0.4046 -0.3131
  180SLPC  H11X20641   5.263   0.693   9.405  1.1191  1.3721  0.1599
  180SLPC  H11Y20642   5.223   0.857   9.359 -2.1785  0.5835 -0.2795
  180SLPC  C31220643   5.089   0.705   9.279  0.2640  0.2208  0.0049
  180SLPC  H12X20644   5.000   0.772   9.280  0.0002 -0.1236 -0.2092
  180SLPC  H12Y20645   5.066   0.601   9.310 -0.2484 -0.0172 -1.1114
  180SLPC  C31320646   5.156   0.717   9.140 -0.2725 -0.0552  0.2742
  180SLPC  H13X20647   5.232   0.645   9.104 -0.4339  0.8011 -1.9721
  180SLPC  H13Y20648   5.203   0.818   9.144  0.5121 -0.3277 -1.4944
  180SLPC  C31420649   5.046   0.700   9.033  0.1028  0.3871  0.7342
  180SLPC  H14X20650   5.091   0.719   8.933 -0.9543 -0.2499  0.1237
  180SLPC  H14Y20651   4.979   0.784   9.061  0.2753  1.5699 -2.0712
  180SLPC  C31520652   4.977   0.566   9.022  0.4432 -0.1925  0.4650
  180SLPC  H15X20653   4.937   0.529   9.119  0.6881  0.9707  1.0341
  180SLPC  H15Y20654   5.056   0.500   8.980 -1.5690 -1.1968 -2.0167
  180SLPC  C31620655   4.871   0.557   8.907  0.1891  0.9548  0.1711
  180SLPC  H16X20656   4.913   0.580   8.807 -0.1326 -1.1841 -0.5255
  180SLPC  H16Y20657   4.791   0.631   8.928 -0.1112  0.5989  0.3087
  180SLPC  C31720658   4.812   0.417   8.885  0.6743  0.0372 -0.0339
  180SLPC  H17X20659   4.743   0.382   8.964  0.3371 -1.6060 -0.9957
  180SLPC  H17Y20660   4.890   0.338   8.892  0.2731 -0.4074 -0.4692
  180SLPC  C31820661   4.748   0.412   8.744  0.4683  0.1246 -0.6610
  180SLPC  H18X20662   4.651   0.465   8.745  0.3432  0.1735  3.5231
  180SLPC  H18Y20663   4.735   0.306   8.715  1.0708 -0.5266  1.2600
  180SLPC  H18Z20664   4.813   0.463   8.669 -1.5022  1.6848 -1.4097
  181SLPC     N20665   1.706   5.741  11.078 -0.0023  0.5301  0.0214
  181SLPC   C1320666   1.610   5.624  11.098 -0.3372  0.7533 -0.2315
  181SLPC  H13A20667   1.509   5.662  11.100 -0.8923 -0.6829  1.0692
  181SLPC  H13B20668   1.613   5.549  11.020 -0.4917  1.3609 -0.8295
  181SLPC  H13C20669   1.641   5.577  11.190 -0.3938 -0.6242 -0.8912
  181SLPC   C1420670   1.857   5.705  11.109  0.7009 -0.5217 -0.4861
  181SLPC  H14A20671   1.880   5.698  11.215 -1.9759 -2.8138  0.0555
  181SLPC  H14B20672   1.890   5.617  11.055  3.0354  1.0396 -1.8139
  181SLPC  H14C20673   1.914   5.788  11.069  0.3194 -0.8429 -1.7227
  181SLPC   C1520674   1.670   5.844  11.181 -0.3794  0.9291 -0.0914
  181SLPC  H15A20675   1.677   5.803  11.281 -0.4783 -1.7044 -1.0725
  181SLPC  H15B20676   1.732   5.931  11.168  0.7273  0.4125  1.3457
  181SLPC  H15C20677   1.568   5.877  11.170 -1.0461 -1.2031 -0.7368
  181SLPC   C1220678   1.702   5.790  10.930 -0.2765  0.2176 -0.6232
  181SLPC  H12A20679   1.764   5.729  10.867  0.8673  0.0440  0.6125
  181SLPC  H12B20680   1.748   5.888  10.926 -0.5754  0.4435  0.7551
  181SLPC   C1120681   1.560   5.803  10.864  0.2993 -0.2774  0.1769
  181SLPC  H11A20682   1.493   5.715  10.875 -0.3410  0.1875  0.0064
  181SLPC  H11B20683   1.577   5.809  10.754 -4.7929  1.7673 -0.7690
  181SLPC     P20684   1.464   6.048  10.836  0.1821  0.1374  0.2546
  181SLPC   O1320685   1.349   6.114  10.898 -0.3865 -0.1726  0.9346
  181SLPC   O1420686   1.589   6.121  10.819 -0.9916  0.1710  0.3802
  181SLPC   O1220687   1.501   5.922  10.914  0.5732  0.5111  0.2578
  181SLPC   O1120688   1.419   5.985  10.693 -0.4023  0.1285  0.3585
  181SLPC    C120689   1.294   5.909  10.691  0.1704  0.5637  0.9685
  181SLPC    HA20690   1.311   5.801  10.712 -3.0287 -0.4060 -0.7647
  181SLPC    HB20691   1.214   5.946  10.758 -0.1495  0.6113  0.5670
  181SLPC    C220692   1.233   5.930  10.546  0.3420  0.1588 -0.1201
  181SLPC    HS20693   1.133   5.884  10.536  0.4537 -0.2220  0.4484
  181SLPC   O2120694   1.318   5.910  10.435  0.0053 -0.0598  0.6486
  181SLPC   C2120695   1.379   5.789  10.424 -0.2810  0.5064  0.9437
  181SLPC   O2220696   1.366   5.695  10.496 -0.1865 -0.5472  0.4454
  181SLPC   C2220697   1.466   5.783  10.292 -0.0606 -0.1357 -0.3039
  181SLPC   H2R20698   1.486   5.883  10.249 -1.3160  1.0689  1.8023
  181SLPC   H2S20699   1.554   5.725  10.328 -0.9661 -1.6190 -0.3844
  181SLPC    C320700   1.197   6.080  10.535 -0.2228  0.2808 -0.6095
  181SLPC    HX20701   1.280   6.151  10.557  0.3628 -0.5943  0.1466
  181SLPC    HY20702   1.136   6.102  10.625  2.7406 -1.7764  2.1553
  181SLPC   O3120703   1.128   6.114  10.413  0.3775  0.1189  0.6068
  181SLPC   C3120704   1.209   6.142  10.307 -0.1503  0.0922 -0.7156
  181SLPC   O3220705   1.330   6.156  10.316 -0.1157 -0.0116 -0.4178
  181SLPC   C3220706   1.119   6.128  10.185 -0.4270 -0.0147  0.3932
  181SLPC   H2X20707   1.086   6.232  10.162 -1.1750  0.0086  1.4833
  181SLPC   H2Y20708   1.022   6.077  10.205 -1.3338  2.1418  1.8759
  181SLPC   C2320709   1.406   5.702  10.179  0.4538  0.1063  0.3974
  181SLPC   H3R20710   1.301   5.720  10.149 -0.0109 -1.4671  0.9464
  181SLPC   H3S20711   1.411   5.594  10.207 -1.4436 -0.5015 -1.3782
  181SLPC   C2420712   1.487   5.715  10.048 -0.5075  0.2490 -0.4648
  181SLPC   H4R20713   1.588   5.673  10.068 -1.3173 -0.9722  1.3492
  181SLPC   H4S20714   1.515   5.823  10.043  1.3773 -0.2350 -1.4917
  181SLPC   C2520715   1.412   5.663   9.928 -0.1703  0.8474  0.1181
  181SLPC   H5R20716   1.321   5.721   9.903  0.6372  1.2428 -2.1389
  181SLPC   H5S20717   1.378   5.558   9.946 -2.0906  1.5874  1.0466
  181SLPC   C2620718   1.507   5.672   9.804 -0.9476  0.3103 -0.6960
  181SLPC   H6R20719   1.603   5.627   9.838 -0.1308  1.6634 -1.1204
  181SLPC   H6S20720   1.527   5.778   9.775  1.0173 -0.1166 -1.0286
  181SLPC   C2720721   1.438   5.608   9.686  0.4083 -0.6080 -0.4428
  181SLPC   H7R20722   1.347   5.667   9.664 -1.4477 -2.3769  1.9406
  181SLPC   H7S20723   1.415   5.499   9.696  1.5150 -0.7971  0.1656
  181SLPC   C2820724   1.532   5.612   9.565 -0.1075 -0.2646  0.0753
  181SLPC   H8R20725   1.613   5.540   9.589  0.2737 -0.1801 -0.9244
  181SLPC   H8S20726   1.576   5.713   9.570 -1.7160  0.4327  0.6754
  181SLPC   C2920727   1.466   5.576   9.433 -0.5172 -0.7986  0.4935
  181SLPC   H9R20728   1.407   5.483   9.443  0.4971 -1.2638  2.6550
  181SLPC  C21020729   1.480   5.636   9.318  0.0010  0.0103 -0.0855
  181SLPC  H10R20730   1.429   5.584   9.236  0.4810 -1.0410  0.2667
  181SLPC  C21120731   1.542   5.766   9.279 -0.4115  0.0515  0.4386
  181SLPC  H11R20732   1.540   5.835   9.366 -0.0016  0.1455  0.3764
  181SLPC  H11S20733   1.487   5.822   9.200  0.3476  1.4896  0.8947
  181SLPC  C21220734   1.685   5.739   9.244 -0.3364  0.4212  0.0476
  181SLPC  H12R20735   1.749   5.702   9.325 -0.7511  2.0545  1.1606
  181SLPC  C21320736   1.747   5.768   9.132 -0.3293  0.0480  0.4489
  181SLPC  H13R20737   1.856   5.755   9.134 -0.3129  0.0712 -0.1561
  181SLPC  C21420738   1.691   5.840   9.009 -0.5075 -0.9329 -0.4018
  181SLPC  H14R20739   1.766   5.916   8.978  0.1663 -1.7563 -0.8728
  181SLPC  H14S20740   1.591   5.884   9.023 -0.7338 -1.6699  0.4175
  181SLPC  C21520741   1.686   5.746   8.891 -0.0912 -0.3009  0.5745
  181SLPC  H15R20742   1.787   5.716   8.855  1.6339  3.5982  1.5821
  181SLPC  H15S20743   1.629   5.797   8.811  1.4955 -1.8579 -1.6815
  181SLPC  C21620744   1.598   5.617   8.907 -1.1874  0.1904  0.2099
  181SLPC  H16R20745   1.502   5.651   8.951 -1.4642 -1.0577  0.5967
  181SLPC  H16S20746   1.648   5.545   8.975 -2.8815 -0.7194  0.5537
  181SLPC  C21720747   1.563   5.533   8.781  0.2765  0.2783 -0.4134
  181SLPC  H17R20748   1.477   5.584   8.732 -1.9123 -1.6475  1.1870
  181SLPC  H17S20749   1.514   5.435   8.800  0.5164  0.0085 -1.1664
  181SLPC  C21820750   1.669   5.519   8.670 -0.0500  0.0705  0.7213
  181SLPC  H18R20751   1.629   5.460   8.584  0.0385  0.8804  0.1086
  181SLPC  H18S20752   1.758   5.456   8.694  0.1580 -1.3994 -3.1312
  181SLPC  H18T20753   1.695   5.620   8.633  1.6901 -0.0854  1.4518
  181SLPC   C3320754   1.192   6.068  10.068 -0.5807  0.3046 -0.2520
  181SLPC   H3X20755   1.123   6.043   9.985 -3.0390  0.6331  1.5940
  181SLPC   H3Y20756   1.239   5.973  10.102 -0.7331  1.0298  2.1533
  181SLPC   C3420757   1.302   6.160  10.009  0.2108 -0.8171  0.3078
  181SLPC   H4X20758   1.360   6.207  10.091  0.9573 -1.9955  0.4818
  181SLPC   H4Y20759   1.255   6.245   9.955  1.2305  0.6237  1.6122
  181SLPC   C3520760   1.399   6.080   9.927 -0.7781 -0.2809  0.4063
  181SLPC   H5X20761   1.417   5.983   9.978  1.9100 -1.1047 -1.8211
  181SLPC   H5Y20762   1.491   6.137   9.905 -0.3929 -0.4821  1.4540
  181SLPC   C3620763   1.346   6.037   9.783 -0.1172 -0.9119 -0.6204
  181SLPC   H6X20764   1.235   6.032   9.788 -0.1567 -0.8611 -1.4249
  181SLPC   H6Y20765   1.385   5.935   9.763 -0.4379 -1.1067 -0.2657
  181SLPC   C3720766   1.405   6.121   9.668 -0.2420  0.4436  0.7102
  181SLPC   H7X20767   1.516   6.125   9.675 -0.0883 -1.7425  0.3440
  181SLPC   H7Y20768   1.361   6.221   9.689 -1.2154  0.3742 -0.8603
  181SLPC   C3820769   1.362   6.084   9.525 -0.5159  0.5768 -0.4068
  181SLPC   H8X20770   1.254   6.104   9.505 -0.0539  0.6702 -3.2801
  181SLPC   H8Y20771   1.375   5.976   9.504  0.9970  0.8515 -0.9827
  181SLPC   C3920772   1.432   6.159   9.411  0.1205 -0.3294 -0.4982
  181SLPC   H9X20773   1.537   6.126   9.427 -0.1489 -0.7726  0.4615
  181SLPC   H9Y20774   1.427   6.270   9.414 -1.9793 -0.3754  2.3340
  181SLPC  C31020775   1.389   6.117   9.268  0.8869 -0.0975 -0.7520
  181SLPC  H10X20776   1.297   6.170   9.237  0.8985  0.7296  0.5311
  181SLPC  H10Y20777   1.364   6.010   9.284  0.0013 -0.0174 -1.5606
  181SLPC  C31120778   1.497   6.116   9.168 -0.8097 -0.0261 -0.1732
  181SLPC  H11X20779   1.466   6.087   9.065  3.8097  1.0482 -2.1487
  181SLPC  H11Y20780   1.577   6.041   9.187 -1.4716 -1.0722 -1.3222
  181SLPC  C31220781   1.557   6.263   9.142  0.1520  0.5850 -0.5529
  181SLPC  H12X20782   1.594   6.294   9.242 -1.5284 -0.3421  0.4050
  181SLPC  H12Y20783   1.475   6.331   9.113 -1.8216 -1.8322 -1.0538
  181SLPC  C31320784   1.679   6.263   9.047  0.1116  0.4423  0.0232
  181SLPC  H13X20785   1.758   6.190   9.074  2.1717  1.9854 -1.4508
  181SLPC  H13Y20786   1.726   6.363   9.035  1.3851 -0.3696 -2.3652
  181SLPC  C31420787   1.647   6.224   8.903  0.5536 -0.0431  0.3234
  181SLPC  H14X20788   1.630   6.114   8.899 -2.7864  0.3839 -0.2642
  181SLPC  H14Y20789   1.733   6.252   8.838  1.1969  0.2606  1.2836
  181SLPC  C31520790   1.521   6.289   8.838 -0.1502  0.0130 -0.4354
  181SLPC  H15X20791   1.544   6.397   8.833  0.0293 -0.0255 -0.4506
  181SLPC  H15Y20792   1.423   6.273   8.887  0.8864  1.1015  2.1191
  181SLPC  C31620793   1.483   6.244   8.696  0.3879  0.0814 -0.3650
  181SLPC  H16X20794   1.568   6.257   8.625  0.0609 -0.0672 -0.7868
  181SLPC  H16Y20795   1.401   6.311   8.659 -1.2060 -1.2001  0.7025
  181SLPC  C31720796   1.432   6.095   8.692  0.3829  0.1186 -0.1638
  181SLPC  H17X20797   1.334   6.085   8.744  0.3344  2.2407  0.2348
  181SLPC  H17Y20798   1.509   6.036   8.747  0.7916  2.9664  2.6063
  181SLPC  C31820799   1.414   6.057   8.547 -0.2816 -0.4715  0.0702
  181SLPC  H18X20800   1.370   5.956   8.539  0.9518 -1.1248  1.1588
  181SLPC  H18Y20801   1.513   6.061   8.496  0.5686 -0.1236  1.6613
  181SLPC  H18Z20802   1.353   6.128   8.487  0.8607  0.9732  0.5484
  182SLPC     N20803   4.306   4.086  10.942 -0.4545 -0.0910 -0.1547
  182SLPC   C1320804   4.406   4.004  11.012  0.0929  0.8137 -0.1947
  182SLPC  H13A20805   4.426   3.918  10.950  0.5891  1.1657 -0.5356
  182SLPC  H13B20806   4.500   4.049  11.042 -1.2519  2.8169  1.2702
  182SLPC  H13C20807   4.359   3.960  11.098  1.7512  0.0136  0.3402
  182SLPC   C1420808   4.285   4.214  11.019 -0.2185 -0.7322  1.1861
  182SLPC  H14A20809   4.214   4.280  10.972  0.5705 -0.2414  0.6632
  182SLPC  H14B20810   4.246   4.178  11.113  1.1688 -3.0649  0.9625
  182SLPC  H14C20811   4.376   4.269  11.036 -1.7994  2.4205  0.2503
  182SLPC   C1520812   4.172   4.013  10.935 -0.2813 -0.2638  0.2908
  182SLPC  H15A20813   4.180   3.916  10.887  1.1101  0.1650 -0.3920
  182SLPC  H15B20814   4.124   4.008  11.032  0.7941  0.3665  0.8776
  182SLPC  H15C20815   4.105   4.068  10.871 -0.9179 -1.4705 -0.1206
  182SLPC   C1220816   4.363   4.113  10.796  0.6529  0.2484  0.5630
  182SLPC  H12A20817   4.457   4.165  10.804  1.0982 -0.3934 -0.3061
  182SLPC  H12B20818   4.291   4.181  10.753  0.0249 -0.1756  0.9314
  182SLPC   C1120819   4.375   3.993  10.696  0.7725  0.3560  0.6510
  182SLPC  H11A20820   4.399   4.028  10.594 -3.0747  2.2293  0.2010
  182SLPC  H11B20821   4.275   3.944  10.693  0.6496  0.5808  1.0306
  182SLPC     P20822   4.631   3.924  10.727 -0.0838 -0.6077  0.2265
  182SLPC   O1320823   4.668   4.060  10.761 -0.2344  0.1253 -0.2831
  182SLPC   O1420824   4.695   3.816  10.804 -0.8750  0.0584 -0.6249
  182SLPC   O1220825   4.471   3.903  10.742 -0.2969 -0.2062 -0.2465
  182SLPC   O1120826   4.652   3.901  10.573  0.0760 -0.0098  0.6144
  182SLPC    C120827   4.547   3.826  10.505  0.4483 -0.5310  0.0327
  182SLPC    HA20828   4.502   3.748  10.569 -0.8418  1.9569  2.3647
  182SLPC    HB20829   4.473   3.896  10.462  0.0095 -2.4188 -2.5748
  182SLPC    C220830   4.609   3.758  10.380 -0.8585  0.5226  0.0926
  182SLPC    HS20831   4.701   3.704  10.414 -0.3658  1.7548  0.8015
  182SLPC   O2120832   4.621   3.853  10.276  0.3340  0.4019  0.1929
  182SLPC   C2120833   4.749   3.893  10.269 -0.0703  0.3285 -0.3240
  182SLPC   O2220834   4.844   3.853  10.332 -0.2072  0.1766 -0.3053
  182SLPC   C2220835   4.757   4.015  10.185 -0.6584 -0.1656  0.2275
  182SLPC   H2R20836   4.702   3.988  10.092  1.9870 -1.9772 -0.9308
  182SLPC   H2S20837   4.708   4.100  10.237 -0.9287 -0.1551 -0.0370
  182SLPC    C320838   4.516   3.649  10.337 -0.1740  0.1750  0.6529
  182SLPC    HX20839   4.411   3.684  10.326  0.3145  1.8990  1.1894
  182SLPC    HY20840   4.512   3.570  10.414 -2.3416  0.6281  1.0700
  182SLPC   O3120841   4.578   3.588  10.218 -0.4487  0.6847  0.3968
  182SLPC   C3120842   4.518   3.620  10.102  0.5214 -0.1822  0.5118
  182SLPC   O3220843   4.417   3.688  10.092 -0.2583 -0.0946 -0.5741
  182SLPC   C3220844   4.598   3.579   9.981  0.4336 -0.1365  0.3098
  182SLPC   H2X20845   4.546   3.489   9.942 -1.0585  1.1873 -0.8747
  182SLPC   H2Y20846   4.703   3.558  10.010  1.1830  2.6309 -0.0499
  182SLPC   C2320847   4.900   4.054  10.144 -0.0738 -0.7630 -0.0833
  182SLPC   H3R20848   4.974   4.049  10.227 -0.7787  0.3309  0.6344
  182SLPC   H3S20849   4.905   4.162  10.119  1.1855 -0.8102 -0.1030
  182SLPC   C2420850   4.952   3.989  10.013 -0.0744 -0.5814  0.3208
  182SLPC   H4R20851   4.955   3.880  10.034  0.8526 -0.3038  1.7124
  182SLPC   H4S20852   5.054   4.017   9.980 -0.0927  1.4161  1.7970
  182SLPC   C2520853   4.870   4.021   9.889 -0.7392  0.0945 -0.2895
  182SLPC   H5R20854   4.878   4.127   9.857 -1.1732 -0.6815 -3.3158
  182SLPC   H5S20855   4.763   3.997   9.908 -0.5726 -1.5120 -1.2143
  182SLPC   C2620856   4.922   3.935   9.774  0.2225 -0.5548  0.2864
  182SLPC   H6R20857   4.906   3.826   9.791  2.5180 -0.9527  0.1349
  182SLPC   H6S20858   5.032   3.946   9.760  0.1013  0.9812  0.3357
  182SLPC   C2720859   4.858   3.969   9.638  0.4211  0.6072 -0.0493
  182SLPC   H7R20860   4.838   4.076   9.617 -0.0225  0.3427 -1.0391
  182SLPC   H7S20861   4.762   3.913   9.626  0.6958  0.1502 -0.1283
  182SLPC   C2820862   4.951   3.927   9.525  0.0729 -0.0745 -0.1784
  182SLPC   H8R20863   4.888   3.922   9.434  0.4925  0.8335 -0.5211
  182SLPC   H8S20864   4.987   3.825   9.551 -0.3236 -0.4529 -1.0831
  182SLPC   C2920865   5.081   4.012   9.503 -0.1121 -0.3174 -0.2598
  182SLPC   H9R20866   5.155   4.004   9.584  0.1905 -0.5209 -0.5523
  182SLPC  C21020867   5.103   4.099   9.402  0.7156 -0.2398 -0.1700
  182SLPC  H10R20868   5.197   4.157   9.394 -0.2272  1.3447 -0.1120
  182SLPC  C21120869   5.017   4.138   9.284 -0.4766 -0.1534  0.5601
  182SLPC  H11R20870   4.980   4.239   9.312 -1.8352 -0.6454  0.5846
  182SLPC  H11S20871   4.926   4.074   9.282 -0.6679  0.1330 -0.7885
  182SLPC  C21220872   5.084   4.160   9.148 -0.5328  0.2232  0.0104
  182SLPC  H12R20873   5.168   4.232   9.140  1.4476 -2.0351 -0.7364
  182SLPC  C21320874   5.048   4.103   9.033 -0.2120  0.2620 -0.0812
  182SLPC  H13R20875   5.119   4.116   8.951 -1.7716  1.1182 -1.3567
  182SLPC  C21420876   4.937   4.008   9.004  0.2545  0.8329  0.0136
  182SLPC  H14R20877   4.857   4.028   9.078 -0.3196  0.9642 -0.6291
  182SLPC  H14S20878   4.971   3.902   9.013  0.8809  1.2108  2.8814
  182SLPC  C21520879   4.870   4.017   8.868 -0.4985  0.6174 -0.5978
  182SLPC  H15R20880   4.793   3.937   8.864  1.1474 -1.2321  1.7238
  182SLPC  H15S20881   4.943   3.983   8.791  1.1920  2.5544  0.0558
  182SLPC  C21620882   4.811   4.149   8.832  0.3205  0.2799 -0.2284
  182SLPC  H16R20883   4.868   4.229   8.883 -0.1324  0.7490 -0.4494
  182SLPC  H16S20884   4.707   4.158   8.870 -0.1404 -0.0370 -1.3714
  182SLPC  C21720885   4.806   4.192   8.685  0.4099  0.3536  0.6531
  182SLPC  H17R20886   4.743   4.115   8.636 -1.0723  1.5432  0.6347
  182SLPC  H17S20887   4.905   4.193   8.634 -0.0151 -1.5015 -0.2782
  182SLPC  C21820888   4.744   4.330   8.662 -0.1327 -0.1969 -0.1541
  182SLPC  H18R20889   4.749   4.363   8.556  3.8526 -0.2352 -0.1203
  182SLPC  H18S20890   4.804   4.406   8.717  0.5529 -0.4534 -0.5398
  182SLPC  H18T20891   4.638   4.312   8.689 -0.6457 -0.5797 -2.2395
  182SLPC   C3320892   4.601   3.676   9.862  0.3162 -0.1806  0.3925
  182SLPC   H3X20893   4.665   3.764   9.882 -2.0764  1.7977 -0.0647
  182SLPC   H3Y20894   4.502   3.725   9.847 -0.9394 -2.2452  1.5145
  182SLPC   C3420895   4.649   3.607   9.733 -0.0457  0.5050  0.0438
  182SLPC   H4X20896   4.675   3.693   9.667  0.9530 -0.8189 -1.3804
  182SLPC   H4Y20897   4.576   3.549   9.672 -0.6116  1.5416 -0.2831
  182SLPC   C3520898   4.772   3.525   9.769  0.0611  0.5016 -0.6196
  182SLPC   H5X20899   4.736   3.435   9.823  1.3791 -1.0253 -2.1438
  182SLPC   H5Y20900   4.843   3.585   9.829  2.1802 -2.0121 -0.4425
  182SLPC   C3620901   4.846   3.475   9.639  0.4194 -0.4284  0.7743
  182SLPC   H6X20902   4.766   3.418   9.587 -0.6753  1.8888 -0.2464
  182SLPC   H6Y20903   4.917   3.391   9.655  0.4939 -0.2952  1.1517
  182SLPC   C3720904   4.887   3.584   9.542 -0.5094  0.1522  0.5043
  182SLPC   H7X20905   4.992   3.614   9.562  0.7273 -0.9790 -3.4270
  182SLPC   H7Y20906   4.817   3.670   9.533 -2.0322 -0.5657  3.9541
  182SLPC   C3820907   4.905   3.513   9.405  0.0670 -0.4257  0.3817
  182SLPC   H8X20908   4.816   3.447   9.391 -0.0112 -0.2644  0.1007
  182SLPC   H8Y20909   4.998   3.453   9.409  2.4157  2.7871 -1.3911
  182SLPC   C3920910   4.911   3.609   9.283  0.3298 -0.1832  0.1335
  182SLPC   H9X20911   4.977   3.695   9.306 -1.5935  1.1694  0.8463
  182SLPC   H9Y20912   4.812   3.659   9.277  0.6176  0.8056  2.5278
  182SLPC  C31020913   4.926   3.538   9.152  0.4686  0.3426  0.2885
  182SLPC  H10X20914   4.831   3.484   9.130  1.4595 -1.5356  0.3688
  182SLPC  H10Y20915   5.004   3.459   9.151 -0.5806 -0.7257 -1.5058
  182SLPC  C31120916   4.945   3.638   9.032  0.1801  0.5449  0.0295
  182SLPC  H11X20917   5.041   3.691   9.045  2.0286 -2.7400  1.0604
  182SLPC  H11Y20918   4.863   3.713   9.027  1.6404  2.2124  0.1737
  182SLPC  C31220919   4.952   3.559   8.900  0.3243  0.2953 -0.6229
  182SLPC  H12X20920   4.981   3.629   8.819  0.2685 -0.9264 -1.7318
  182SLPC  H12Y20921   4.850   3.522   8.877  0.0115  0.2202  0.7785
  182SLPC  C31320922   5.054   3.449   8.900  0.0303  0.3302  0.0635
  182SLPC  H13X20923   5.041   3.373   8.980 -0.9785 -0.5555 -0.8893
  182SLPC  H13Y20924   5.155   3.491   8.916 -0.5467  2.4592 -1.4191
  182SLPC  C31420925   5.051   3.372   8.771 -0.7321 -1.0610  0.1754
  182SLPC  H14X20926   4.953   3.330   8.740 -0.2938 -1.5560 -0.5884
  182SLPC  H14Y20927   5.126   3.290   8.782 -0.5081 -0.7962  0.6489
  182SLPC  C31520928   5.102   3.461   8.656 -0.5289  0.5543  0.3452
  182SLPC  H15X20929   5.201   3.496   8.692  0.7053 -1.5978 -0.7242
  182SLPC  H15Y20930   5.041   3.551   8.634 -1.0831  0.5229  1.6471
  182SLPC  C31620931   5.119   3.374   8.526 -0.1868 -0.0377  0.2649
  182SLPC  H16X20932   5.018   3.339   8.495  0.8226 -2.3337 -0.6930
  182SLPC  H16Y20933   5.180   3.282   8.541  1.0496  0.6204 -0.5156
  182SLPC  C31720934   5.155   3.455   8.404  0.5967 -0.4501  0.0296
  182SLPC  H17X20935   5.261   3.484   8.419  1.0186 -2.2816  0.7907
  182SLPC  H17Y20936   5.092   3.542   8.376  0.9841 -0.4672 -0.9588
  182SLPC  C31820937   5.158   3.381   8.268 -0.4981 -0.1722 -0.4231
  182SLPC  H18X20938   5.183   3.445   8.181  1.1475 -0.3700 -0.1290
  182SLPC  H18Y20939   5.057   3.340   8.247  0.2415 -0.8004 -3.1803
  182SLPC  H18Z20940   5.239   3.304   8.271 -0.3854 -0.0506  2.0048
  183SLPC     N20941   5.746   0.160  10.423  0.1554 -0.5179  0.1666
  183SLPC   C1320942   5.763   0.032  10.356 -0.8494  0.1591 -0.0127
  183SLPC  H13A20943   5.772   0.038  10.249 -0.0827 -1.9046 -0.1173
  183SLPC  H13B20944   5.843  -0.024  10.403 -1.7720 -0.1598  1.2303
  183SLPC  H13C20945   5.672  -0.025  10.371 -0.4923 -0.3951  0.0932
  183SLPC   C1420946   5.635   0.245  10.366  0.0290 -0.7367  0.4507
  183SLPC  H14A20947   5.638   0.344  10.410  1.0312 -0.6316  0.1793
  183SLPC  H14B20948   5.652   0.262  10.261  1.6181  0.1603  0.8280
  183SLPC  H14C20949   5.535   0.205  10.372 -0.9081  1.5226  0.7791
  183SLPC   C1520950   5.879   0.226  10.404 -0.2368 -1.0345 -0.5152
  183SLPC  H15A20951   5.903   0.243  10.300 -2.0433 -0.8161 -0.9286
  183SLPC  H15B20952   5.877   0.325  10.448  1.8219 -1.0271 -0.3408
  183SLPC  H15C20953   5.959   0.169  10.448  0.9565  1.6919  1.1499
  183SLPC   C1220954   5.719   0.146  10.568 -0.1009 -0.6685  0.3472
  183SLPC  H12A20955   5.624   0.098  10.583  0.1329 -0.4727  2.9181
  183SLPC  H12B20956   5.702   0.242  10.615  1.3527 -0.1867 -0.0491
  183SLPC   C1120957   5.822   0.066  10.651 -0.2442  1.1242 -0.2084
  183SLPC  H11A20958   5.808   0.085  10.759 -1.2752 -1.3517  0.1766
  183SLPC  H11B20959   5.926   0.099  10.632  0.6933 -1.4856 -0.0360
  183SLPC     P20960   5.695  -0.153  10.698  0.2139 -0.1322 -0.1565
  183SLPC   O1320961   5.738  -0.188  10.834 -0.7760  0.1396 -0.2258
  183SLPC   O1420962   5.565  -0.082  10.686  0.2837 -0.2451  0.4026
  183SLPC   O1220963   5.810  -0.071  10.621  0.4494 -0.0563  0.0283
  183SLPC   O1120964   5.686  -0.285  10.611  0.3080 -0.3796 -0.5261
  183SLPC    C120965   5.799  -0.366  10.600  0.2014  0.3389 -0.6355
  183SLPC    HA20966   5.888  -0.302  10.581  1.7556 -1.4840  0.0710
  183SLPC    HB20967   5.827  -0.429  10.688  3.1787  1.2834 -0.7928
  183SLPC    C220968   5.782  -0.478  10.490  0.6651  0.1286 -0.0817
  183SLPC    HS20969   5.874  -0.535  10.466 -0.7037 -3.7438  2.8402
  183SLPC   O2120970   5.711  -0.429  10.375 -0.5390 -0.1201  0.0603
  183SLPC   C2120971   5.794  -0.366  10.291 -0.5399  0.3815  0.5135
  183SLPC   O2220972   5.914  -0.360  10.298 -0.0761 -0.3529  0.3428
  183SLPC   C2220973   5.705  -0.297  10.185 -0.4060 -0.8022  0.0460
  183SLPC   H2R20974   5.599  -0.312  10.216 -0.0248  1.0112  2.5676
  183SLPC   H2S20975   5.742  -0.192  10.187  1.5896 -1.4741  1.3113
  183SLPC    C320976   5.703  -0.600  10.548 -0.4935 -0.2372  0.1865
  183SLPC    HX20977   5.603  -0.553  10.554  0.1046  1.2862 -1.0625
  183SLPC    HY20978   5.742  -0.632  10.647  0.9828  0.5371 -0.1216
  183SLPC   O3120979   5.700  -0.703  10.450 -0.5720 -0.2228  0.2129
  183SLPC   C3120980   5.600  -0.790  10.465  0.2587  0.5270  0.3916
  183SLPC   O3220981   5.505  -0.778  10.541 -0.3726  0.5923  0.1506
  183SLPC   C3220982   5.602  -0.888  10.353  0.0482 -0.1039 -0.1097
  183SLPC   H2X20983   5.630  -0.984  10.400  0.8786  1.4189  2.7286
  183SLPC   H2Y20984   5.681  -0.856  10.280 -0.5515  2.4041  0.2270
  183SLPC   C2320985   5.736  -0.360  10.047 -0.5290  0.3275 -0.6356
  183SLPC   H3R20986   5.840  -0.344  10.011 -0.8057  0.0050 -1.6081
  183SLPC   H3S20987   5.675  -0.302   9.975  0.6476  2.3310 -0.1213
  183SLPC   C2420988   5.699  -0.507  10.049  0.4550  0.1526 -0.1269
  183SLPC   H4R20989   5.591  -0.518  10.076  0.6233  0.5771  0.7493
  183SLPC   H4S20990   5.757  -0.570  10.119  1.2622  1.1944  0.1596
  183SLPC   C2520991   5.717  -0.578   9.910  0.8264  0.3660  0.4591
  183SLPC   H5R20992   5.688  -0.685   9.915  2.4394 -0.1321 -0.2042
  183SLPC   H5S20993   5.825  -0.587   9.886  0.9551  1.2468  0.6784
  183SLPC   C2620994   5.652  -0.517   9.787  0.5387  0.1921  1.2838
  183SLPC   H6R20995   5.661  -0.406   9.780 -0.0524  0.3242  2.4306
  183SLPC   H6S20996   5.542  -0.534   9.785  0.6256 -0.3139 -0.3697
  183SLPC   C2720997   5.693  -0.584   9.655 -0.8398 -0.2369 -0.8149
  183SLPC   H7R20998   5.698  -0.694   9.667 -0.4163 -0.2855 -1.3853
  183SLPC   H7S20999   5.799  -0.558   9.636 -0.8224 -0.3317 -0.8504
  183SLPC   C2821000   5.608  -0.537   9.539  0.5378 -0.4523 -0.1860
  183SLPC   H8R21001   5.605  -0.426   9.544  1.7212 -0.4460  1.2473
  183SLPC   H8S21002   5.506  -0.581   9.545  0.9420 -1.4679 -0.5842
  183SLPC   C2921003   5.665  -0.605   9.416 -0.7102 -0.4655 -0.5811
  183SLPC   H9R21004   5.680  -0.712   9.438  2.1175  0.3801  2.2730
  183SLPC  C21021005   5.687  -0.553   9.291  0.8044  0.3730  0.0431
  183SLPC  H10R21006   5.727  -0.622   9.215  0.4093  0.3543 -0.1521
  183SLPC  C21121007   5.663  -0.401   9.261  0.0379 -0.1462  0.6703
  183SLPC  H11R21008   5.735  -0.378   9.179 -1.0215 -2.0708 -0.8953
  183SLPC  H11S21009   5.699  -0.333   9.341  1.9407 -0.2391 -0.0567
  183SLPC  C21221010   5.520  -0.374   9.214  0.1767 -0.5268  0.3627
  183SLPC  H12R21011   5.443  -0.410   9.284  1.9744 -1.1872  2.0810
  183SLPC  C21321012   5.473  -0.321   9.102  0.2830  0.5765  0.0370
  183SLPC  H13R21013   5.366  -0.299   9.105  0.1127 -0.3079  2.3621
  183SLPC  C21421014   5.558  -0.282   8.983 -0.2117  0.0074  0.1214
  183SLPC  H14R21015   5.659  -0.329   8.979  0.2924  1.1091 -1.1213
  183SLPC  H14S21016   5.571  -0.172   8.970  2.0490 -0.2138  0.1328
  183SLPC  C21521017   5.491  -0.331   8.849 -0.5903 -0.0438 -0.4774
  183SLPC  H15R21018   5.560  -0.305   8.766  2.3637  3.4893  2.6902
  183SLPC  H15S21019   5.397  -0.273   8.833 -0.1771  0.4673 -1.0772
  183SLPC  C21621020   5.454  -0.479   8.838 -1.0784 -0.2102 -1.7501
  183SLPC  H16R21021   5.389  -0.503   8.925  0.3118  0.8526 -0.3420
  183SLPC  H16S21022   5.552  -0.531   8.845 -0.3127  0.8860 -3.5943
  183SLPC  C21721023   5.406  -0.526   8.706 -0.2508  1.5101 -0.2444
  183SLPC  H17R21024   5.488  -0.485   8.642  2.2877 -1.6612  0.6959
  183SLPC  H17S21025   5.309  -0.485   8.671  0.0878  1.6645 -1.0528
  183SLPC  C21821026   5.410  -0.680   8.682 -0.3765  0.9750 -0.3989
  183SLPC  H18R21027   5.518  -0.705   8.672 -0.3803  0.5657  0.5385
  183SLPC  H18S21028   5.348  -0.694   8.591 -0.5370  0.2136 -0.1805
  183SLPC  H18T21029   5.372  -0.742   8.765  1.5203  1.3061  0.7819
  183SLPC   C3321030   5.463  -0.899  10.282 -0.8133 -0.0731  0.2849
  183SLPC   H3X21031   5.413  -0.801  10.268 -1.4775 -0.2857  1.0834
  183SLPC   H3Y21032   5.398  -0.946  10.359 -0.1889  0.6984  1.3011
  183SLPC   C3421033   5.486  -1.000  10.165 -0.0763 -0.5118 -0.1108
  183SLPC   H4X21034   5.388  -1.049  10.144  0.0918 -0.5910 -0.7288
  183SLPC   H4Y21035   5.553  -1.083  10.193 -2.0802 -2.7843 -1.6042
  183SLPC   C3521036   5.535  -0.931  10.040 -0.3685  0.0772  0.6560
  183SLPC   H5X21037   5.638  -0.898  10.063 -0.0291 -1.1552  0.9775
  183SLPC   H5Y21038   5.472  -0.841  10.025 -1.7251 -1.1249 -1.2993
  183SLPC   C3621039   5.529  -1.020   9.914 -0.0486  0.3578 -0.0377
  183SLPC   H6X21040   5.425  -1.044   9.882 -0.0187  0.7626 -0.4559
  183SLPC   H6Y21041   5.584  -1.115   9.935  0.2550  0.8519  1.5199
  183SLPC   C3721042   5.594  -0.944   9.792  0.5397  0.0098 -0.3010
  183SLPC   H7X21043   5.697  -0.908   9.810 -0.1549  2.7431 -1.2590
  183SLPC   H7Y21044   5.546  -0.845   9.778 -0.4105 -0.4367 -0.2647
  183SLPC   C3821045   5.600  -1.030   9.671  0.5400 -0.1885 -0.1523
  183SLPC   H8X21046   5.499  -1.070   9.645  0.9397  0.2743 -2.7578
  183SLPC   H8Y21047   5.656  -1.124   9.689 -1.0281 -1.4431 -1.4902
  183SLPC   C3921048   5.656  -0.967   9.542 -0.4265 -0.4757  0.1673
  183SLPC   H9X21049   5.753  -0.919   9.569 -0.9947  0.2432  0.9802
  183SLPC   H9Y21050   5.596  -0.882   9.501 -0.0115 -0.6165 -0.7706
  183SLPC  C31021051   5.700  -1.072   9.436 -0.0677 -0.3506 -0.0578
  183SLPC  H10X21052   5.613  -1.121   9.386 -0.1492 -0.7855  0.4987
  183SLPC  H10Y21053   5.760  -1.146   9.494  0.4193  0.3955  0.4041
  183SLPC  C31121054   5.797  -1.006   9.337  0.3946 -0.7250  0.5344
  183SLPC  H11X21055   5.877  -0.960   9.398  2.7039 -2.1426 -1.2523
  183SLPC  H11Y21056   5.749  -0.919   9.288  0.6559 -1.4646 -1.0973
  183SLPC  C31221057   5.864  -1.092   9.231 -0.5546 -0.0898  0.0765
  183SLPC  H12X21058   5.791  -1.117   9.151 -1.4224  0.1729  0.7727
  183SLPC  H12Y21059   5.895  -1.189   9.275  0.5547  1.4481  2.9762
  183SLPC  C31321060   5.975  -1.025   9.151 -0.3276  0.0863 -0.0036
  183SLPC  H13X21061   6.073  -1.066   9.185  0.3871  0.9333 -0.9654
  183SLPC  H13Y21062   5.988  -0.919   9.181  2.5791 -0.5268  1.2519
  183SLPC  C31421063   5.972  -1.028   8.997 -0.3997  0.9690  0.9133
  183SLPC  H14X21064   6.037  -0.948   8.956  2.0471 -1.3841 -0.0901
  183SLPC  H14Y21065   5.867  -1.017   8.962 -1.0074 -3.1115  0.9727
  183SLPC  C31521066   6.031  -1.157   8.941 -0.4543  0.4458  0.6529
  183SLPC  H15X21067   5.977  -1.247   8.978  1.6647 -0.5566  1.4966
  183SLPC  H15Y21068   6.138  -1.167   8.970  0.1358 -1.6454 -1.8390
  183SLPC  C31621069   6.036  -1.162   8.784 -0.0562 -0.4649 -0.1358
  183SLPC  H16X21070   5.933  -1.144   8.745  0.4575 -0.4631 -1.5361
  183SLPC  H16Y21071   6.051  -1.269   8.759  2.9140  0.0292 -0.8957
  183SLPC  C31721072   6.156  -1.089   8.715 -0.7094 -0.0027 -0.7361
  183SLPC  H17X21073   6.255  -1.111   8.761 -0.2172  2.7040 -0.3309
  183SLPC  H17Y21074   6.147  -0.979   8.723 -0.1536  0.0737 -1.1011
  183SLPC  C31821075   6.164  -1.134   8.570 -1.1230  0.2967 -0.3809
  183SLPC  H18X21076   6.260  -1.100   8.526 -1.5989  1.9879 -0.1575
  183SLPC  H18Y21077   6.080  -1.087   8.516 -0.5768  1.7521  0.0091
  183SLPC  H18Z21078   6.154  -1.245   8.560  0.3713  0.0350  0.6650
  184SLPC     N21079   2.859   3.831  10.704 -0.1167  0.0921  0.5532
  184SLPC   C1321080   2.834   3.692  10.749 -0.2765  0.4313  0.9804
  184SLPC  H13A21081   2.804   3.688  10.853 -2.4657 -2.7773  0.3747
  184SLPC  H13B21082   2.752   3.654  10.690 -0.7410  0.6593  1.4617
  184SLPC  H13C21083   2.914   3.625  10.721 -1.2902 -0.2392 -0.4161
  184SLPC   C1421084   2.991   3.867  10.764  0.2675 -0.1463 -0.8843
  184SLPC  H14A21085   2.996   3.842  10.869 -1.1904 -1.3629 -1.0593
  184SLPC  H14B21086   3.069   3.818  10.708 -0.0028  0.2561 -1.6398
  184SLPC  H14C21087   3.011   3.973  10.765 -1.3903  0.1938  0.0520
  184SLPC   C1521088   2.747   3.921  10.750 -0.2716 -0.6752  0.6154
  184SLPC  H15A21089   2.745   3.917  10.858  1.4669  3.1433  0.9696
  184SLPC  H15B21090   2.759   4.028  10.738  1.0485 -0.3937  3.5954
  184SLPC  H15C21091   2.656   3.878  10.711 -0.2337 -0.2912  0.1054
  184SLPC   C1221092   2.870   3.830  10.545 -0.3656 -0.4160 -1.1981
  184SLPC  H12A21093   2.776   3.790  10.509 -2.1059 -0.9451  3.2960
  184SLPC  H12B21094   2.946   3.756  10.524 -0.5230 -0.6945 -0.8013
  184SLPC   C1121095   2.889   3.965  10.468 -0.5306  0.3551 -0.2537
  184SLPC  H11A21096   2.804   4.032  10.493  0.3778  1.4175  0.0841
  184SLPC  H11B21097   2.888   3.955  10.357  0.3237  0.5234 -0.2813
  184SLPC     P21098   3.147   4.007  10.450  0.0014 -0.2492 -0.3228
  184SLPC   O1321099   3.243   4.100  10.509 -0.5103 -0.0211 -0.4985
  184SLPC   O1421100   3.172   3.861  10.471  0.2686 -0.9294  0.2151
  184SLPC   O1221101   3.007   4.042  10.512  0.4233  0.4673  0.4287
  184SLPC   O1121102   3.129   4.039  10.299 -0.6273  0.4434  0.5886
  184SLPC    C121103   3.172   4.166  10.245  0.2276 -0.5175 -0.7659
  184SLPC    HA21104   3.129   4.244  10.311  1.3881 -0.1176 -0.4729
  184SLPC    HB21105   3.280   4.183  10.263 -0.0375 -0.1471  0.5629
  184SLPC    C221106   3.134   4.195  10.096  0.2273  1.1534 -0.1315
  184SLPC    HS21107   3.152   4.300  10.064  0.7894  0.8571 -0.8043
  184SLPC   O2121108   2.995   4.152  10.077 -0.2342  0.3096  0.3996
  184SLPC   C2121109   2.912   4.232  10.134  0.1495  0.3056 -0.5950
  184SLPC   O2221110   2.944   4.332  10.202  0.1778  0.3533  0.5624
  184SLPC   C2221111   2.771   4.179  10.128  0.4499  0.0611  0.1852
  184SLPC   H2R21112   2.766   4.068  10.130  1.7436  0.0098  1.1285
  184SLPC   H2S21113   2.721   4.205  10.224 -2.8335 -1.3773 -0.9900
  184SLPC    C321114   3.219   4.104   9.998  0.1394 -0.0824  0.5963
  184SLPC    HX21115   3.188   4.000  10.019 -1.4906  0.0608 -0.9175
  184SLPC    HY21116   3.327   4.126  10.017 -0.2710  0.5938  2.3088
  184SLPC   O3121117   3.186   4.129   9.856 -0.5490 -0.2146  0.5022
  184SLPC   C3121118   3.192   4.021   9.776  0.5402  0.4761  0.2918
  184SLPC   O3221119   3.232   3.916   9.810 -0.2150  0.5292  0.5447
  184SLPC   C3221120   3.127   4.058   9.645  0.7752  0.5719  0.1469
  184SLPC   H2X21121   3.183   4.142   9.600  0.4664 -0.3170 -2.0445
  184SLPC   H2Y21122   3.023   4.095   9.662  0.7401  0.1819  0.8595
  184SLPC   C2321123   2.704   4.238   9.995 -0.3621 -0.2188  0.5849
  184SLPC   H3R21124   2.729   4.346  10.001 -1.2295 -0.0603  1.6858
  184SLPC   H3S21125   2.595   4.234  10.012 -0.3204  0.4942  1.0810
  184SLPC   C2421126   2.743   4.163   9.876 -0.1585 -1.4131  0.8162
  184SLPC   H4R21127   2.733   4.056   9.902  0.0939 -1.6168  0.0812
  184SLPC   H4S21128   2.850   4.182   9.851  0.0764 -1.2661  1.8709
  184SLPC   C2521129   2.663   4.199   9.744 -0.6596 -0.5715  0.1795
  184SLPC   H5R21130   2.656   4.308   9.722  1.4907 -0.5447 -0.5877
  184SLPC   H5S21131   2.562   4.163   9.771 -0.3008 -0.4515  1.7610
  184SLPC   C2621132   2.715   4.158   9.609 -0.1605  0.0813  0.3913
  184SLPC   H6R21133   2.719   4.047   9.604  0.9392  0.1029  0.5170
  184SLPC   H6S21134   2.817   4.194   9.583 -0.4258  0.9424  0.5342
  184SLPC   C2721135   2.626   4.214   9.492  0.5149  0.1702  0.2667
  184SLPC   H7R21136   2.657   4.320   9.476  2.2292 -0.3804 -0.3565
  184SLPC   H7S21137   2.523   4.199   9.531  1.3971 -1.7672  2.0777
  184SLPC   C2821138   2.646   4.148   9.356 -0.0096  0.1241  0.1493
  184SLPC   H8R21139   2.671   4.040   9.365 -1.3912 -0.2381 -0.1392
  184SLPC   H8S21140   2.739   4.194   9.317 -0.5556  1.1753  0.0537
  184SLPC   C2921141   2.533   4.163   9.256  0.8015 -0.7278  0.1973
  184SLPC   H9R21142   2.441   4.218   9.283 -0.6210  0.3984 -5.6157
  184SLPC  C21021143   2.542   4.161   9.119 -0.4285  0.0125 -0.2493
  184SLPC  H10R21144   2.445   4.165   9.066 -0.5994  1.6947  0.1277
  184SLPC  C21121145   2.659   4.135   9.034  0.4069 -0.5969 -0.8449
  184SLPC  H11R21146   2.746   4.153   9.101 -1.5949  0.7677  1.5831
  184SLPC  H11S21147   2.675   4.218   8.962  1.9997 -0.2017 -0.0823
  184SLPC  C21221148   2.645   3.997   8.978  0.0834  0.3816  0.0961
  184SLPC  H12R21149   2.641   3.919   9.055  0.0853  0.9472  0.6670
  184SLPC  C21321150   2.631   3.960   8.846 -0.0562 -1.1265 -0.2229
  184SLPC  H13R21151   2.630   3.852   8.826  3.0636 -1.4156  0.6830
  184SLPC  C21421152   2.631   4.057   8.719  0.4135 -0.1131 -0.2245
  184SLPC  H14R21153   2.607   4.163   8.742 -1.0904 -0.6832  0.9988
  184SLPC  H14S21154   2.557   4.025   8.643 -1.0441  1.7142  0.3509
  184SLPC  C21521155   2.767   4.056   8.645 -0.4099  0.5423  0.1601
  184SLPC  H15R21156   2.793   3.950   8.625  3.0528  1.3132 -0.1026
  184SLPC  H15S21157   2.841   4.099   8.716 -0.3978 -2.2081  1.9547
  184SLPC  C21621158   2.765   4.112   8.506 -0.4613 -0.3176  0.0508
  184SLPC  H16R21159   2.728   4.217   8.513 -1.5245 -0.8038  2.5272
  184SLPC  H16S21160   2.687   4.061   8.446 -1.9621  0.4009  1.3270
  184SLPC  C21721161   2.909   4.108   8.440 -0.1646 -0.1340 -0.5865
  184SLPC  H17R21162   2.931   3.999   8.440  0.2742 -0.0544  0.3588
  184SLPC  H17S21163   2.983   4.170   8.495  0.6845 -0.7009 -1.0675
  184SLPC  C21821164   2.916   4.170   8.299  0.5705  0.2736 -0.4427
  184SLPC  H18R21165   2.873   4.272   8.309  2.4430  1.2312 -1.4955
  184SLPC  H18S21166   2.869   4.106   8.222  3.2939 -1.2316 -0.9863
  184SLPC  H18T21167   3.018   4.190   8.260  0.1791 -0.5837 -1.9829
  184SLPC   C3321168   3.112   3.944   9.542  0.7061 -0.0379 -0.5466
  184SLPC   H3X21169   3.039   3.869   9.579 -0.4356  0.7069 -1.2302
  184SLPC   H3Y21170   3.209   3.892   9.532  0.9887  0.2006  0.7115
  184SLPC   C3421171   3.068   3.991   9.405  0.0628  0.2846  0.2844
  184SLPC   H4X21172   3.137   4.073   9.374  1.1018 -1.1367 -1.3680
  184SLPC   H4Y21173   2.965   4.032   9.410 -0.4912 -1.1089  0.9501
  184SLPC   C3521174   3.081   3.878   9.310 -0.4967 -0.2600  0.1846
  184SLPC   H5X21175   3.022   3.792   9.347 -0.1200  0.2656  2.1256
  184SLPC   H5Y21176   3.187   3.845   9.317 -0.0638  1.0669  0.2857
  184SLPC   C3621177   3.051   3.920   9.164 -0.3858  0.4587 -0.0435
  184SLPC   H6X21178   3.089   4.021   9.140 -3.1447  1.2745 -1.3995
  184SLPC   H6Y21179   2.942   3.925   9.139 -0.0406 -1.7376 -2.3786
  184SLPC   C3721180   3.134   3.827   9.067 -0.1616  0.2800  0.1255
  184SLPC   H7X21181   3.101   3.721   9.071  1.8154 -0.4761 -1.8385
  184SLPC   H7Y21182   3.238   3.822   9.107 -0.4424 -0.0565  0.8327
  184SLPC   C3821183   3.126   3.872   8.923 -0.3358  0.0592 -0.3501
  184SLPC   H8X21184   3.186   3.965   8.924 -1.5421  0.8591  0.3583
  184SLPC   H8Y21185   3.022   3.899   8.892 -0.3556  0.1966 -0.1617
  184SLPC   C3921186   3.175   3.768   8.823 -0.5242 -0.0891  0.9767
  184SLPC   H9X21187   3.265   3.722   8.868  0.7974  0.2332 -1.1489
  184SLPC   H9Y21188   3.191   3.814   8.723 -0.8417  1.3581  1.5686
  184SLPC  C31021189   3.076   3.651   8.799 -0.4902 -0.2089  0.0504
  184SLPC  H10X21190   3.053   3.593   8.891  0.0920  1.0091  0.9851
  184SLPC  H10Y21191   3.127   3.591   8.720 -0.1947  0.5533 -0.3481
  184SLPC  C31121192   2.935   3.698   8.735  0.0698 -0.0013 -0.6033
  184SLPC  H11X21193   2.955   3.804   8.705  3.6513  0.1067  1.5524
  184SLPC  H11Y21194   2.855   3.701   8.812  0.3125  1.5878 -0.3631
  184SLPC  C31221195   2.898   3.605   8.622 -0.2630  0.5361  0.3475
  184SLPC  H12X21196   2.860   3.508   8.659 -0.0878 -0.1010 -1.0798
  184SLPC  H12Y21197   2.990   3.585   8.562 -0.8300 -0.0791 -0.3319
  184SLPC  C31321198   2.778   3.652   8.533 -0.7937  0.3391  0.1858
  184SLPC  H13X21199   2.808   3.754   8.502  0.6216 -0.1090  0.0382
  184SLPC  H13Y21200   2.683   3.678   8.586 -0.6356  2.8572 -0.6151
  184SLPC  C31421201   2.742   3.571   8.407 -0.3312 -0.0548 -0.5140
  184SLPC  H14X21202   2.682   3.488   8.449  1.8845 -0.4660  2.2181
  184SLPC  H14Y21203   2.837   3.538   8.359 -0.1159 -1.4348  0.7964
  184SLPC  C31521204   2.650   3.654   8.316 -0.3921  0.5251  0.6814
  184SLPC  H15X21205   2.559   3.700   8.360 -1.4085  0.1470 -0.9423
  184SLPC  H15Y21206   2.615   3.573   8.249 -2.2925  2.4307 -0.7690
  184SLPC  C31621207   2.721   3.756   8.215 -0.5515 -0.2314  0.2825
  184SLPC  H16X21208   2.767   3.702   8.129  0.5025 -0.0074  0.6969
  184SLPC  H16Y21209   2.799   3.792   8.285 -0.8517  0.0185  0.4909
  184SLPC  C31721210   2.641   3.867   8.157  0.0153 -0.1090  0.3837
  184SLPC  H17X21211   2.608   3.931   8.242  3.2324 -2.2729  3.5460
  184SLPC  H17Y21212   2.552   3.831   8.100  0.3848 -2.1462  1.0483
  184SLPC  C31821213   2.716   3.955   8.054 -0.2207  0.3857  0.6037
  184SLPC  H18X21214   2.673   4.056   8.042  0.3275  0.3829 -2.0499
  184SLPC  H18Y21215   2.694   3.906   7.956 -0.0069 -0.8511  1.1554
  184SLPC  H18Z21216   2.826   3.955   8.071  0.0130  1.8489 -0.7080
  185SLPC     N21217   6.403   0.982   6.178  0.1973  0.7760 -0.0732
  185SLPC   C1321218   6.453   0.878   6.090 -0.5103 -0.0917  0.5809
  185SLPC  H13A21219   6.466   0.910   5.988  1.3732 -2.2668  0.0760
  185SLPC  H13B21220   6.549   0.850   6.130 -0.6983 -3.1770 -0.8879
  185SLPC  H13C21221   6.390   0.790   6.091 -2.1947  1.0265 -0.6389
  185SLPC   C1421222   6.275   1.030   6.117  0.1633 -0.7227  0.0321
  185SLPC  H14A21223   6.185   0.970   6.127  0.2143 -0.9797 -0.8695
  185SLPC  H14B21224   6.258   1.128   6.159  0.8726 -1.5668  2.4518
  185SLPC  H14C21225   6.282   1.043   6.010  1.4730  2.5751  0.4181
  185SLPC   C1521226   6.509   1.090   6.179  0.2578 -0.0548  0.2981
  185SLPC  H15A21227   6.518   1.126   6.078  0.1921 -1.6406 -0.3097
  185SLPC  H15B21228   6.479   1.177   6.236  1.2098 -1.1298  2.5726
  185SLPC  H15C21229   6.601   1.046   6.215 -1.2724 -1.4017  2.8781
  185SLPC   C1221230   6.372   0.929   6.311 -0.4815  0.8628  0.1597
  185SLPC  H12A21231   6.289   0.860   6.304 -0.1859  0.4998  0.1714
  185SLPC  H12B21232   6.341   1.007   6.379  3.8142  0.3763  3.0855
  185SLPC   C1121233   6.488   0.867   6.393 -0.1957 -0.0713  0.6126
  185SLPC  H11A21234   6.457   0.842   6.497 -1.1349 -1.6421 -0.0099
  185SLPC  H11B21235   6.568   0.944   6.396  0.3088 -0.4714 -1.2597
  185SLPC     P21236   6.472   0.610   6.342 -0.1302 -0.1629  0.1492
  185SLPC   O1321237   6.334   0.629   6.385  0.1125 -0.2598  0.3290
  185SLPC   O1421238   6.502   0.535   6.218 -0.4600 -0.3109 -0.2936
  185SLPC   O1221239   6.547   0.753   6.323  0.6980  0.8697  0.4627
  185SLPC   O1121240   6.556   0.549   6.461  1.2186 -0.7060 -0.3793
  185SLPC    C121241   6.700   0.552   6.463 -0.3898  1.1615 -0.2625
  185SLPC    HA21242   6.727   0.446   6.441 -1.9603  1.1616 -2.7270
  185SLPC    HB21243   6.741   0.610   6.378  0.6348 -0.0112 -0.5910
  185SLPC    C221244   6.761   0.598   6.595  0.2871  0.3267  0.6439
  185SLPC    HS21245   6.869   0.615   6.572 -0.1840 -0.3849 -2.6922
  185SLPC   O2121246   6.735   0.502   6.704 -0.2440  0.2803  0.3346
  185SLPC   C2121247   6.813   0.392   6.686  0.1400  0.0058  0.5545
  185SLPC   O2221248   6.898   0.371   6.598  0.4273  0.1043 -0.5453
  185SLPC   C2221249   6.782   0.304   6.803  0.0406 -0.2313  0.3414
  185SLPC   H2R21250   6.672   0.302   6.816 -0.2216  3.0640 -0.4250
  185SLPC   H2S21251   6.800   0.198   6.775 -0.3416 -0.4184  0.8025
  185SLPC    C321252   6.705   0.745   6.640  0.3669  1.1779  0.5747
  185SLPC    HX21253   6.596   0.727   6.654  0.1280 -0.2187 -2.3168
  185SLPC    HY21254   6.711   0.808   6.550 -0.9740  1.6493  0.7882
  185SLPC   O3121255   6.785   0.799   6.744  0.0356 -0.1310  0.3327
  185SLPC   C3121256   6.718   0.882   6.817 -0.2644 -0.8451 -0.1878
  185SLPC   O3221257   6.606   0.924   6.800 -0.1317 -0.8226 -0.0245
  185SLPC   C3221258   6.807   0.904   6.948  1.1658 -0.2304 -0.1596
  185SLPC   H2X21259   6.865   0.996   6.922 -1.0776  0.6405 -2.5493
  185SLPC   H2Y21260   6.881   0.821   6.951  0.9055 -0.4499  0.0935
  185SLPC   C2321261   6.855   0.363   6.926 -0.0325 -0.0209 -0.6223
  185SLPC   H3R21262   6.823   0.468   6.943  1.6628  0.5669 -0.9141
  185SLPC   H3S21263   6.965   0.364   6.912 -0.0437 -0.0595 -0.7097
  185SLPC   C2421264   6.842   0.261   7.047 -0.5389  0.2167  0.1490
  185SLPC   H4R21265   6.888   0.165   7.015  0.2534  0.2276  1.2074
  185SLPC   H4S21266   6.734   0.243   7.068 -0.5469  1.6566  1.5127
  185SLPC   C2521267   6.910   0.318   7.179  0.4374  0.3150 -0.2086
  185SLPC   H5R21268   6.858   0.408   7.217  1.2127  0.8315 -0.3489
  185SLPC   H5S21269   7.015   0.351   7.161  1.4118 -1.5524  1.5199
  185SLPC   C2621270   6.914   0.221   7.300  0.3402 -0.2013  0.7676
  185SLPC   H6R21271   6.973   0.132   7.271  0.4883  0.2252 -0.2584
  185SLPC   H6S21272   6.815   0.182   7.330  1.0011 -2.1222  0.5571
  185SLPC   C2721273   6.979   0.288   7.416 -0.0348 -0.0884 -0.1187
  185SLPC   H7R21274   6.921   0.378   7.444  0.9577  0.7795 -0.7604
  185SLPC   H7S21275   7.084   0.320   7.397  0.0943 -1.0224 -1.0857
  185SLPC   C2821276   6.991   0.199   7.541  0.0735  0.0197 -0.5436
  185SLPC   H8R21277   7.052   0.110   7.516 -0.7973 -0.6960 -0.1933
  185SLPC   H8S21278   6.887   0.169   7.565 -0.0581  1.4158  0.7874
  185SLPC   C2921279   7.068   0.283   7.646  0.4963  0.4640 -0.5963
  185SLPC   H9R21280   7.112   0.376   7.608  1.5745  1.1037  2.0195
  185SLPC  C21021281   7.067   0.254   7.783 -0.3494 -0.1763 -0.4444
  185SLPC  H10R21282   7.130   0.321   7.843 -1.2249  0.3064 -0.0463
  185SLPC  C21121283   7.010   0.131   7.846  0.1694  0.0382 -0.2977
  185SLPC  H11R21284   6.960   0.062   7.774 -0.3466  0.5094 -0.3943
  185SLPC  H11S21285   6.920   0.163   7.904 -0.9871 -0.3957 -1.7881
  185SLPC  C21221286   7.106   0.044   7.927  0.0013 -0.4636 -0.2248
  185SLPC  H12R21287   7.168  -0.023   7.866  0.6910 -0.9101  0.9216
  185SLPC  C21321288   7.138   0.044   8.058  0.2918  0.1713 -0.0579
  185SLPC  H13R21289   7.189  -0.045   8.097 -0.2707 -0.3252 -0.4398
  185SLPC  C21421290   7.071   0.129   8.165 -0.2604 -0.5758 -0.6089
  185SLPC  H14R21291   6.996   0.199   8.122  1.1749  0.3954 -1.6101
  185SLPC  H14S21292   7.152   0.187   8.214  1.1637 -2.1096 -1.0490
  185SLPC  C21521293   7.006   0.046   8.280  0.7081  0.4186  0.2306
  185SLPC  H15R21294   6.968   0.100   8.369 -3.5106 -0.5910 -0.7620
  185SLPC  H15S21295   7.079  -0.023   8.329  0.3122 -0.1683  0.0082
  185SLPC  C21621296   6.883  -0.038   8.227 -0.5174 -0.3596  0.6125
  185SLPC  H16R21297   6.909  -0.128   8.167 -1.8582 -1.0208  0.9879
  185SLPC  H16S21298   6.825   0.021   8.153 -0.7396 -0.6369  0.5627
  185SLPC  C21721299   6.787  -0.086   8.336 -0.3476 -0.5633  0.2635
  185SLPC  H17R21300   6.687  -0.081   8.288 -0.8522 -0.2756  1.3157
  185SLPC  H17S21301   6.797  -0.004   8.409 -0.3478  0.7829 -1.2002
  185SLPC  C21821302   6.814  -0.222   8.399  0.1582 -0.1424 -0.5560
  185SLPC  H18R21303   6.800  -0.314   8.338  3.5780 -0.9621 -0.2800
  185SLPC  H18S21304   6.760  -0.230   8.496 -0.4350  0.9050 -0.7765
  185SLPC  H18T21305   6.917  -0.207   8.437 -0.7278  2.0632  1.2140
  185SLPC   C3321306   6.733   0.939   7.086  0.2245  0.1460 -0.4666
  185SLPC   H3X21307   6.655   0.860   7.084  2.7987 -2.5838 -1.6060
  185SLPC   H3Y21308   6.685   1.036   7.064 -0.4177  0.0907  0.6537
  185SLPC   C3421309   6.821   0.941   7.212 -0.0903 -0.5222 -0.6447
  185SLPC   H4X21310   6.896   1.023   7.205 -0.7642  0.0731 -1.1102
  185SLPC   H4Y21311   6.894   0.858   7.222 -0.0693 -0.3849  0.4216
  185SLPC   C3521312   6.744   0.932   7.347 -0.2579 -0.6274 -0.0644
  185SLPC   H5X21313   6.694   0.835   7.369 -0.3801 -0.4695  0.3614
  185SLPC   H5Y21314   6.661   1.007   7.340 -0.5325 -0.8584  0.5947
  185SLPC   C3621315   6.833   0.960   7.465 -0.0863  0.8020  0.2237
  185SLPC   H6X21316   6.889   1.052   7.435  0.4756 -0.0752 -1.5385
  185SLPC   H6Y21317   6.907   0.879   7.481 -0.2987  0.1417 -1.8223
  185SLPC   C3721318   6.754   0.982   7.589  0.1357 -0.4015 -0.1067
  185SLPC   H7X21319   6.697   0.890   7.614  1.9975 -1.8848 -1.0593
  185SLPC   H7Y21320   6.676   1.056   7.560  0.4963 -0.1487 -0.4342
  185SLPC   C3821321   6.839   1.009   7.711  0.0769 -0.9026 -0.0709
  185SLPC   H8X21322   6.884   1.111   7.709  1.9980 -1.6237  2.2286
  185SLPC   H8Y21323   6.924   0.938   7.716 -0.3996 -1.6513 -1.8747
  185SLPC   C3921324   6.745   1.007   7.830  0.1295 -0.7538 -0.7669
  185SLPC   H9X21325   6.687   0.913   7.847 -0.5398 -0.0915  0.8377
  185SLPC   H9Y21326   6.674   1.091   7.814  2.7508  1.1702 -3.1426
  185SLPC  C31021327   6.823   1.047   7.964  0.3860  0.4319  0.2556
  185SLPC  H10X21328   6.889   1.135   7.948 -0.4728  1.2917  1.2610
  185SLPC  H10Y21329   6.887   0.956   7.976 -0.8468 -0.5926 -0.6495
  185SLPC  C31121330   6.719   1.047   8.070  0.2914 -0.3772  0.3886
  185SLPC  H11X21331   6.654   0.959   8.056 -0.7917  0.3078  1.0111
  185SLPC  H11Y21332   6.655   1.137   8.059 -0.6575 -0.8960  1.4735
  185SLPC  C31221333   6.760   1.075   8.214 -0.1748  0.2386 -0.1132
  185SLPC  H12X21334   6.667   1.085   8.274 -0.5741 -0.7040 -0.5432
  185SLPC  H12Y21335   6.813   1.172   8.218 -0.6477  0.5416 -0.9683
  185SLPC  C31321336   6.849   0.973   8.283 -0.2891  0.3292 -0.9127
  185SLPC  H13X21337   6.888   1.012   8.379 -1.8149  0.4596 -0.3098
  185SLPC  H13Y21338   6.937   0.964   8.216  0.3718  1.8972 -0.3200
  185SLPC  C31421339   6.792   0.842   8.308  0.3873 -0.0319 -0.1515
  185SLPC  H14X21340   6.881   0.784   8.341  0.5175 -0.8282 -1.7605
  185SLPC  H14Y21341   6.765   0.797   8.210  0.4296  1.7302 -1.0012
  185SLPC  C31521342   6.679   0.833   8.411 -0.6781 -0.4442 -0.1697
  185SLPC  H15X21343   6.610   0.918   8.393 -1.3326 -1.1288 -0.9291
  185SLPC  H15Y21344   6.729   0.842   8.510 -1.0161 -0.1437 -0.0240
  185SLPC  C31621345   6.589   0.709   8.398  0.5635 -0.2915  0.0013
  185SLPC  H16X21346   6.652   0.618   8.396 -1.5242 -1.8359  1.2860
  185SLPC  H16Y21347   6.513   0.714   8.317  0.7393  1.4607 -0.1000
  185SLPC  C31721348   6.515   0.692   8.536  0.2110 -0.4973 -0.8777
  185SLPC  H17X21349   6.438   0.772   8.550 -1.4992 -1.9908 -1.4084
  185SLPC  H17Y21350   6.583   0.710   8.622 -0.3810 -0.8010 -0.3364
  185SLPC  C31821351   6.435   0.563   8.567  0.5750  0.3429  0.0461
  185SLPC  H18X21352   6.407   0.560   8.675 -2.2102 -0.5829 -0.6123
  185SLPC  H18Y21353   6.487   0.471   8.532  0.8225  0.6793 -0.4822
  185SLPC  H18Z21354   6.334   0.575   8.522 -0.2567  1.2410  2.0591
  186SLPC     N21355   3.108   2.269   5.999 -0.2161 -0.1118 -0.6537
  186SLPC   C1321356   3.017   2.321   5.894 -0.8324  0.0749 -0.1305
  186SLPC  H13A21357   3.051   2.262   5.810  2.1782 -1.6735  2.0860
  186SLPC  H13B21358   2.912   2.304   5.909 -0.5379 -2.6115 -0.5697
  186SLPC  H13C21359   3.028   2.425   5.868  1.3273 -0.1789 -0.4601
  186SLPC   C1421360   3.249   2.295   5.963 -0.2936 -0.1273 -0.5256
  186SLPC  H14A21361   3.265   2.257   5.863  0.2163 -1.1782 -0.0670
  186SLPC  H14B21362   3.277   2.398   5.948  2.4183 -0.8606 -1.1103
  186SLPC  H14C21363   3.320   2.251   6.032 -2.4677  0.0319  1.9461
  186SLPC   C1521364   3.080   2.123   6.015 -0.3524 -0.0243  0.0127
  186SLPC  H15A21365   3.150   2.075   6.082  0.3982 -0.5743 -1.1371
  186SLPC  H15B21366   2.983   2.106   6.059 -0.3775 -0.2339 -0.1217
  186SLPC  H15C21367   3.085   2.070   5.921 -2.5271 -1.1695  0.4856
  186SLPC   C1221368   3.080   2.343   6.126 -0.1232  0.4641 -0.6407
  186SLPC  H12A21369   3.089   2.449   6.107  0.1257  0.3349 -1.2728
  186SLPC  H12B21370   3.155   2.309   6.196 -0.1126 -0.7307 -1.2065
  186SLPC   C1121371   2.951   2.329   6.209  0.1045 -0.2642 -0.3429
  186SLPC  H11A21372   2.958   2.388   6.303 -0.1741 -0.9368  0.1076
  186SLPC  H11B21373   2.938   2.227   6.252  1.1601  0.2267  1.2271
  186SLPC     P21374   2.800   2.527   6.113  0.3544 -0.2162 -0.3563
  186SLPC   O1321375   2.910   2.583   6.032  0.1594  0.1853 -0.3162
  186SLPC   O1421376   2.667   2.537   6.050 -0.3991  0.1909  0.3804
  186SLPC   O1221377   2.836   2.373   6.137 -0.2181 -0.3430  0.5933
  186SLPC   O1121378   2.807   2.603   6.258 -0.0284  0.1346 -0.3559
  186SLPC    C121379   2.698   2.588   6.349 -0.4112  0.0081  0.0486
  186SLPC    HA21380   2.609   2.645   6.313 -0.3616  0.1063  0.0821
  186SLPC    HB21381   2.670   2.481   6.349 -2.0844  0.4039 -0.1318
  186SLPC    C221382   2.722   2.643   6.490  0.4091 -0.7697 -0.4970
  186SLPC    HS21383   2.741   2.753   6.494  0.1427 -0.7499  2.9369
  186SLPC   O2121384   2.843   2.584   6.540 -0.1472 -0.0211  0.1184
  186SLPC   C2121385   2.953   2.650   6.515 -0.0914 -0.1116 -0.4213
  186SLPC   O2221386   2.963   2.766   6.476 -0.0716  0.0585  0.1495
  186SLPC   C2221387   3.072   2.564   6.548  0.0840  0.2819  0.2954
  186SLPC   H2R21388   3.043   2.459   6.523  1.9414 -0.4515  1.0101
  186SLPC   H2S21389   3.158   2.589   6.482  0.3251  0.6515  0.7466
  186SLPC    C321390   2.598   2.621   6.590 -0.2662  0.5077  0.9372
  186SLPC    HX21391   2.579   2.512   6.579  1.0424  0.3465  0.0243
  186SLPC    HY21392   2.507   2.671   6.551 -2.1281 -0.4636  3.6876
  186SLPC   O3121393   2.626   2.668   6.722 -0.1688  0.5975 -0.0239
  186SLPC   C3121394   2.597   2.584   6.816 -0.1183 -0.5264 -0.0580
  186SLPC   O3221395   2.555   2.470   6.806 -0.2043 -0.5981 -0.0140
  186SLPC   C3221396   2.632   2.646   6.956 -0.0156 -0.1448  0.7996
  186SLPC   H2X21397   2.600   2.751   6.941  1.7537  0.9418  3.8450
  186SLPC   H2Y21398   2.743   2.644   6.955  0.0632  2.0173  0.9178
  186SLPC   C2321399   3.128   2.561   6.701 -0.3349  0.3909 -1.0370
  186SLPC   H3R21400   3.167   2.662   6.725 -0.5727  1.0433 -3.2128
  186SLPC   H3S21401   3.204   2.483   6.722 -0.7650  0.3729  0.5819
  186SLPC   C2421402   3.015   2.521   6.795 -0.2909 -0.2406 -0.0448
  186SLPC   H4R21403   2.962   2.425   6.775 -0.9000 -0.3295  1.8024
  186SLPC   H4S21404   2.943   2.605   6.808  0.7379  0.4446  1.5551
  186SLPC   C2521405   3.071   2.507   6.939  0.8112  1.0361 -1.7471
  186SLPC   H5R21406   3.127   2.600   6.963  1.5218  0.3606 -0.7145
  186SLPC   H5S21407   3.147   2.426   6.943  0.9677  1.2042 -1.1560
  186SLPC   C2621408   2.958   2.472   7.035 -0.3613 -0.2868 -0.3390
  186SLPC   H6R21409   2.892   2.408   6.972  0.3290 -1.3570 -0.0152
  186SLPC   H6S21410   2.897   2.560   7.064 -1.7028 -0.8606 -1.2745
  186SLPC   C2721411   3.010   2.384   7.149 -0.4937  0.1754 -0.7028
  186SLPC   H7R21412   3.055   2.298   7.096  2.3758 -0.3831  2.3463
  186SLPC   H7S21413   2.917   2.358   7.204 -0.8046  0.0243 -1.2951
  186SLPC   C2821414   3.118   2.454   7.236  0.2906  0.6554  0.3515
  186SLPC   H8R21415   3.203   2.482   7.170  0.6466  0.1136  0.5755
  186SLPC   H8S21416   3.157   2.375   7.304  2.0335  1.4898  0.3785
  186SLPC   C2921417   3.075   2.571   7.318  0.1683  0.5188 -0.3678
  186SLPC   H9R21418   3.061   2.656   7.249 -0.6138 -0.6130 -1.6518
  186SLPC  C21021419   3.037   2.570   7.451  0.2457 -1.1945  0.3331
  186SLPC  H10R21420   3.005   2.664   7.500  1.3676 -0.1169 -0.9124
  186SLPC  C21121421   3.027   2.452   7.543 -0.7831  0.2151  0.1118
  186SLPC  H11R21422   3.034   2.361   7.479 -1.0527  2.0930 -2.7837
  186SLPC  H11S21423   2.930   2.460   7.596 -0.9810  2.1390 -0.4829
  186SLPC  C21221424   3.133   2.426   7.647  0.0113 -0.6853  0.4060
  186SLPC  H12R21425   3.232   2.450   7.606  0.3531 -3.4035 -0.5442
  186SLPC  C21321426   3.118   2.408   7.779 -0.0510 -0.4166  0.5665
  186SLPC  H13R21427   3.206   2.390   7.843 -0.0517 -2.0405  0.1725
  186SLPC  C21421428   2.988   2.398   7.848 -0.0509  0.4278 -0.5368
  186SLPC  H14R21429   2.934   2.308   7.814  0.1063  0.2060 -0.1980
  186SLPC  H14S21430   2.938   2.494   7.822 -1.7039 -0.0444  0.7207
  186SLPC  C21521431   3.022   2.398   8.002  0.0072  0.0200 -0.5222
  186SLPC  H15R21432   3.097   2.319   8.022  0.4252 -0.0321 -2.1837
  186SLPC  H15S21433   2.924   2.367   8.044 -0.5230  1.1202 -0.9084
  186SLPC  C21621434   3.064   2.526   8.055 -0.1525 -0.3629  0.3896
  186SLPC  H16R21435   3.001   2.610   8.020  2.1772  1.1656 -0.3731
  186SLPC  H16S21436   3.170   2.544   8.026  0.0528 -0.0189  1.3221
  186SLPC  C21721437   3.065   2.525   8.204 -0.5532  0.3530 -0.5855
  186SLPC  H17R21438   3.126   2.446   8.252  3.2240  3.2246 -0.1721
  186SLPC  H17S21439   2.962   2.519   8.246  0.3116 -2.7216  1.4499
  186SLPC  C21821440   3.125   2.657   8.264  0.3733 -0.3724  0.0685
  186SLPC  H18R21441   3.123   2.651   8.375  0.0864 -0.6253  0.0514
  186SLPC  H18S21442   3.064   2.748   8.242 -0.3025 -0.0410  2.8467
  186SLPC  H18T21443   3.230   2.675   8.235  0.0616 -1.2294 -1.7236
  186SLPC   C3321444   2.573   2.577   7.082 -0.0964  0.1747 -0.0116
  186SLPC   H3X21445   2.595   2.469   7.067  3.8400  0.8960 -0.6612
  186SLPC   H3Y21446   2.468   2.611   7.080 -0.5126 -1.0665  0.0348
  186SLPC   C3421447   2.635   2.618   7.214 -0.4444  0.3922 -0.1010
  186SLPC   H4X21448   2.648   2.725   7.242  0.9177 -0.1058  1.3367
  186SLPC   H4Y21449   2.736   2.571   7.211 -0.4264  0.4177  0.0837
  186SLPC   C3521450   2.555   2.553   7.333  0.4956 -0.5887  0.3234
  186SLPC   H5X21451   2.543   2.445   7.309  0.3714 -0.3615 -0.6748
  186SLPC   H5Y21452   2.452   2.595   7.339  1.1305  1.1056 -0.0001
  186SLPC   C3621453   2.628   2.564   7.466  1.0148 -0.0789 -0.2335
  186SLPC   H6X21454   2.649   2.672   7.482  0.7371  0.0558 -0.7497
  186SLPC   H6Y21455   2.725   2.510   7.463  1.5408  0.8314 -0.0504
  186SLPC   C3721456   2.534   2.519   7.584  0.1054  0.1324  0.2918
  186SLPC   H7X21457   2.523   2.408   7.577  0.9048  0.0681 -0.0647
  186SLPC   H7Y21458   2.432   2.563   7.573 -0.9814 -2.3142 -0.1742
  186SLPC   C3821459   2.601   2.550   7.715  0.7255  0.8526  0.9873
  186SLPC   H8X21460   2.604   2.661   7.720  0.1055  1.1706 -2.5761
  186SLPC   H8Y21461   2.700   2.505   7.696 -0.2076 -0.6208 -0.6786
  186SLPC   C3921462   2.545   2.478   7.833  0.3004 -0.2882  0.3741
  186SLPC   H9X21463   2.524   2.373   7.802 -1.0178  0.0742 -0.0600
  186SLPC   H9Y21464   2.446   2.521   7.860  0.2282  0.1953 -0.5958
  186SLPC  C31021465   2.640   2.487   7.950  0.0329 -0.4890  0.3482
  186SLPC  H10X21466   2.649   2.597   7.965  1.3375 -0.5675  0.1863
  186SLPC  H10Y21467   2.740   2.444   7.927 -0.2331 -0.0154 -1.8943
  186SLPC  C31121468   2.575   2.420   8.077  0.4573 -0.3943  0.2918
  186SLPC  H11X21469   2.534   2.321   8.050 -0.9090  0.5012 -1.0508
  186SLPC  H11Y21470   2.480   2.474   8.095  0.0813 -1.1066  0.4939
  186SLPC  C31221471   2.672   2.420   8.198  1.1307 -0.1147 -0.7491
  186SLPC  H12X21472   2.713   2.519   8.225 -0.8289  0.9669 -1.5171
  186SLPC  H12Y21473   2.753   2.348   8.173  1.5974  0.1167  0.0439
  186SLPC  C31321474   2.608   2.341   8.309 -0.7301 -0.4585 -0.1778
  186SLPC  H13X21475   2.560   2.252   8.264 -2.0368 -0.5878  1.3980
  186SLPC  H13Y21476   2.532   2.397   8.368  1.7966  2.1716  0.8371
  186SLPC  C31421477   2.722   2.286   8.401 -0.7182  0.0052 -0.8659
  186SLPC  H14X21478   2.767   2.365   8.464  0.0960 -0.9287 -0.2475
  186SLPC  H14Y21479   2.798   2.237   8.336 -1.4953 -1.9059 -0.4050
  186SLPC  C31521480   2.665   2.174   8.494  1.0228  0.0057 -0.0198
  186SLPC  H15X21481   2.640   2.096   8.420 -1.2254 -0.6433  1.3283
  186SLPC  H15Y21482   2.573   2.203   8.550  0.9336  0.0059 -0.1665
  186SLPC  C31621483   2.771   2.117   8.589  0.4850  0.1630  0.2325
  186SLPC  H16X21484   2.836   2.204   8.612  0.4509 -0.1853  1.7140
  186SLPC  H16Y21485   2.838   2.048   8.534 -0.0472  1.2922 -1.9787
  186SLPC  C31721486   2.711   2.057   8.720 -0.0495  0.0960  0.2047
  186SLPC  H17X21487   2.625   1.990   8.700  0.4929 -0.3529 -0.6792
  186SLPC  H17Y21488   2.673   2.146   8.775  0.6153  1.7754 -1.9183
  186SLPC  C31821489   2.821   2.007   8.808 -0.1061  0.1886  0.2930
  186SLPC  H18X21490   2.873   1.931   8.746 -0.9608  0.4078 -0.7236
  186SLPC  H18Y21491   2.796   1.962   8.906  0.6737 -0.0829  0.3789
  186SLPC  H18Z21492   2.889   2.094   8.820 -1.3750  1.2815 -0.3126
  187SLPC     N21493   1.771   6.813   6.472  0.6244  0.6055  0.6762
  187SLPC   C1321494   1.886   6.871   6.389  0.1938 -0.4154 -0.3341
  187SLPC  H13A21495   1.869   6.859   6.283 -1.5828 -0.4882 -0.0746
  187SLPC  H13B21496   1.899   6.973   6.419  1.5753 -1.0929  1.5799
  187SLPC  H13C21497   1.975   6.817   6.420  0.4901  0.6089  0.6700
  187SLPC   C1421498   1.785   6.832   6.618  0.0943 -0.2521 -0.3144
  187SLPC  H14A21499   1.881   6.799   6.653  0.4785  0.6155 -0.5211
  187SLPC  H14B21500   1.775   6.937   6.639 -2.8109 -0.5071  0.0400
  187SLPC  H14C21501   1.707   6.772   6.662 -0.1011 -1.3321 -2.0345
  187SLPC   C1521502   1.775   6.671   6.446  0.3595  0.0156 -0.0335
  187SLPC  H15A21503   1.675   6.634   6.460  0.2623  0.5107  0.6395
  187SLPC  H15B21504   1.809   6.653   6.345 -2.0944  3.7252 -1.7240
  187SLPC  H15C21505   1.850   6.625   6.509  0.0614  0.9501  1.0342
  187SLPC   C1221506   1.644   6.877   6.409 -0.4205  0.0061 -0.7401
  187SLPC  H12A21507   1.656   6.867   6.302  2.6646  0.0946 -0.4874
  187SLPC  H12B21508   1.643   6.983   6.428 -0.7205 -0.2082  0.5510
  187SLPC   C1121509   1.499   6.835   6.467 -0.3798  0.2885  0.3893
  187SLPC  H11A21510   1.418   6.876   6.404  1.6806  0.4026 -2.3679
  187SLPC  H11B21511   1.474   6.864   6.572 -1.9646 -2.8737  0.9823
  187SLPC     P21512   1.366   6.617   6.514  0.0921  0.1472 -0.2475
  187SLPC   O1321513   1.242   6.699   6.489  0.4382 -0.1627  0.2010
  187SLPC   O1421514   1.358   6.477   6.465 -0.6266  0.4389  0.1599
  187SLPC   O1221515   1.493   6.696   6.458  0.9966  0.7226  0.0879
  187SLPC   O1121516   1.394   6.608   6.671  0.6370 -0.0972 -0.4316
  187SLPC    C121517   1.527   6.569   6.716 -0.3110  0.0735 -0.0896
  187SLPC    HA21518   1.617   6.589   6.653  1.1885  0.2117  1.9707
  187SLPC    HB21519   1.543   6.624   6.811 -0.8311  0.3202 -0.1442
  187SLPC    C221520   1.537   6.418   6.760  0.0585  0.0913  0.8955
  187SLPC    HS21521   1.533   6.368   6.661  1.2517  0.5385  0.6082
  187SLPC   O2121522   1.428   6.389   6.849 -0.2704 -0.0562 -0.2720
  187SLPC   C2121523   1.411   6.260   6.855  0.6860 -0.5358  0.8035
  187SLPC   O2221524   1.467   6.174   6.788  0.3412 -0.2815 -0.7443
  187SLPC   C2221525   1.308   6.231   6.966 -0.1006  0.1110 -0.3065
  187SLPC   H2R21526   1.224   6.303   6.955 -1.4386 -1.3394  0.1002
  187SLPC   H2S21527   1.261   6.133   6.941  3.0526 -2.2779  2.2531
  187SLPC    C321528   1.680   6.381   6.808 -0.2044 -0.1372 -0.2035
  187SLPC    HX21529   1.749   6.396   6.722  0.0249 -1.0850 -0.1899
  187SLPC    HY21530   1.687   6.272   6.826 -1.8467 -0.0918  0.8949
  187SLPC   O3121531   1.714   6.454   6.930  0.0869  0.7413 -0.5316
  187SLPC   C3121532   1.813   6.552   6.914  0.1140 -0.7656  0.0920
  187SLPC   O3221533   1.863   6.573   6.806 -0.3005  0.4557 -0.1095
  187SLPC   C3221534   1.844   6.624   7.045 -0.6896  0.0560 -0.7457
  187SLPC   H2X21535   1.944   6.595   7.083 -1.5808 -2.3900 -0.1256
  187SLPC   H2Y21536   1.774   6.585   7.122 -0.9126 -0.4373 -1.1920
  187SLPC   C2321537   1.351   6.222   7.116  0.1490  0.8989 -0.3294
  187SLPC   H3R21538   1.355   6.326   7.154  1.4069  0.8401 -0.2592
  187SLPC   H3S21539   1.441   6.158   7.128 -0.3708 -0.2972 -2.2695
  187SLPC   C2421540   1.234   6.158   7.202  0.0179 -0.7209 -0.0116
  187SLPC   H4R21541   1.222   6.049   7.181  0.3150 -0.5668 -1.0320
  187SLPC   H4S21542   1.133   6.199   7.182  0.1847 -0.6917 -0.8555
  187SLPC   C2521543   1.262   6.175   7.357 -0.1103  0.5561  0.6202
  187SLPC   H5R21544   1.251   6.282   7.385  1.0080  0.6135  0.8478
  187SLPC   H5S21545   1.367   6.148   7.377  0.1533  0.4651 -0.7781
  187SLPC   C2621546   1.156   6.089   7.435  0.5031  0.0678  0.6422
  187SLPC   H6R21547   1.166   5.981   7.415 -0.5574  0.3790 -2.1096
  187SLPC   H6S21548   1.058   6.126   7.399 -0.7383 -2.2322  1.4649
  187SLPC   C2721549   1.151   6.120   7.588 -0.6640 -0.0639  0.4212
  187SLPC   H7R21550   1.055   6.079   7.625 -0.9437  0.7942  0.6660
  187SLPC   H7S21551   1.162   6.230   7.600  0.1212 -0.2100  1.1291
  187SLPC   C2821552   1.260   6.034   7.653  0.4098  0.1205  0.1002
  187SLPC   H8R21553   1.360   6.081   7.641 -0.4587  2.3255  0.9611
  187SLPC   H8S21554   1.269   5.940   7.595 -2.9152 -0.5915  0.5511
  187SLPC   C2921555   1.236   6.011   7.797 -0.3970  0.9176  0.0590
  187SLPC   H9R21556   1.134   5.978   7.819 -1.1018  2.0451 -1.3547
  187SLPC  C21021557   1.310   6.028   7.903  0.1766  0.2562 -0.7856
  187SLPC  H10R21558   1.255   6.012   7.997  1.0801 -0.2865 -0.3343
  187SLPC  C21121559   1.447   6.081   7.922 -0.8035  0.2314 -0.9195
  187SLPC  H11R21560   1.457   6.189   7.945 -1.8351  0.4877 -1.6224
  187SLPC  H11S21561   1.501   6.093   7.826  0.6785  1.5850  0.0314
  187SLPC  C21221562   1.532   5.996   8.009 -0.1369  0.0779  0.5335
  187SLPC  H12R21563   1.542   5.891   7.979 -1.0863 -0.1002  0.8061
  187SLPC  C21321564   1.588   6.035   8.127  0.3525  0.1344 -0.1337
  187SLPC  H13R21565   1.635   5.962   8.194 -0.9864  0.6810  1.4656
  187SLPC  C21421566   1.575   6.172   8.198  0.3470  0.2540 -0.0703
  187SLPC  H14R21567   1.484   6.166   8.262 -1.0227  0.2268 -1.9418
  187SLPC  H14S21568   1.544   6.258   8.135 -1.2919 -0.5639 -0.4367
  187SLPC  C21521569   1.679   6.226   8.287 -0.2515  0.4918  1.1170
  187SLPC  H15R21570   1.773   6.249   8.232 -0.4725  1.0155  0.9507
  187SLPC  H15S21571   1.710   6.162   8.372  2.2130 -0.8929 -0.6862
  187SLPC  C21621572   1.627   6.360   8.341 -0.4781 -1.2051 -0.1552
  187SLPC  H16R21573   1.532   6.341   8.395 -0.0544  0.7564  1.4365
  187SLPC  H16S21574   1.601   6.425   8.255  3.0132 -0.8184 -1.0431
  187SLPC  C21721575   1.715   6.428   8.447 -0.4008  0.5694  0.0694
  187SLPC  H17R21576   1.815   6.454   8.407 -0.0230  0.0143  0.6388
  187SLPC  H17S21577   1.748   6.348   8.517  1.2503  0.6039 -0.6190
  187SLPC  C21821578   1.650   6.532   8.534 -0.1113 -0.5773  0.3443
  187SLPC  H18R21579   1.722   6.574   8.608 -1.3798  1.2242  0.6336
  187SLPC  H18S21580   1.567   6.481   8.587 -0.7073  0.0195 -0.0008
  187SLPC  H18T21581   1.614   6.618   8.473 -0.5948  1.3560  3.1686
  187SLPC   C3321582   1.833   6.776   7.020  0.1505 -0.3945 -0.7317
  187SLPC   H3X21583   1.731   6.788   6.978 -0.0872 -1.3823 -0.4653
  187SLPC   H3Y21584   1.899   6.812   6.939  0.5867 -2.1151 -1.1767
  187SLPC   C3421585   1.847   6.854   7.151 -0.0501 -0.3369  0.5025
  187SLPC   H4X21586   1.852   6.965   7.142 -2.4981 -0.2357 -0.2898
  187SLPC   H4Y21587   1.944   6.824   7.195  0.9078  1.1765 -0.4682
  187SLPC   C3521588   1.729   6.846   7.242 -0.1670 -0.0924  1.0753
  187SLPC   H5X21589   1.706   6.739   7.259 -0.0817 -0.5569 -1.4202
  187SLPC   H5Y21590   1.641   6.889   7.189  1.2166 -1.3326 -2.4604
  187SLPC   C3621591   1.749   6.910   7.372 -0.0618 -0.1375 -0.4863
  187SLPC   H6X21592   1.655   6.898   7.430 -0.9893  0.6850 -1.7762
  187SLPC   H6Y21593   1.769   7.018   7.355 -1.6817  0.0496 -1.3703
  187SLPC   C3721594   1.865   6.852   7.463  1.0916  0.5743  0.1014
  187SLPC   H7X21595   1.844   6.745   7.481 -0.7441  0.2403 -3.2334
  187SLPC   H7Y21596   1.956   6.859   7.400  0.9906  3.7007  0.1068
  187SLPC   C3821597   1.883   6.917   7.599 -0.9161 -0.1984 -0.7659
  187SLPC   H8X21598   1.784   6.917   7.650  0.1038 -1.2089  1.3537
  187SLPC   H8Y21599   1.905   7.023   7.575 -1.6117 -0.1280 -1.1358
  187SLPC   C3921600   1.983   6.840   7.699  0.7037  0.0060  0.0980
  187SLPC   H9X21601   2.081   6.827   7.649  0.0691  1.0859 -1.5208
  187SLPC   H9Y21602   1.939   6.739   7.714 -1.3729  0.7090 -0.9310
  187SLPC  C31021603   2.007   6.901   7.835  0.0243 -0.1304 -0.4119
  187SLPC  H10X21604   1.924   6.931   7.903  1.0071 -0.2612  0.8812
  187SLPC  H10Y21605   2.051   7.002   7.816  0.0611 -0.1794 -0.5915
  187SLPC  C31121606   2.107   6.819   7.922 -0.4452  0.4254 -0.3038
  187SLPC  H11X21607   2.190   6.779   7.858  0.9285  0.2165  1.5346
  187SLPC  H11Y21608   2.051   6.732   7.963 -1.5101  0.5733 -1.3997
  187SLPC  C31221609   2.174   6.906   8.035 -0.7666  0.5833 -0.1514
  187SLPC  H12X21610   2.104   6.937   8.115 -2.0348 -0.3419 -0.8490
  187SLPC  H12Y21611   2.209   7.001   7.991  0.8606 -0.4297 -1.1519
  187SLPC  C31321612   2.299   6.844   8.109  0.0459  0.7859 -0.0213
  187SLPC  H13X21613   2.330   6.767   8.035 -2.4516 -1.9297  1.5352
  187SLPC  H13Y21614   2.274   6.783   8.198 -1.4357  0.5423 -0.5711
  187SLPC  C31421615   2.402   6.948   8.158 -0.6561  0.2506 -0.0669
  187SLPC  H14X21616   2.433   6.901   8.254 -2.8871  1.0872  1.1427
  187SLPC  H14Y21617   2.347   7.042   8.182 -3.0546 -1.0409 -0.1887
  187SLPC  C31521618   2.521   6.965   8.070 -0.0854 -0.5052  0.7638
  187SLPC  H15X21619   2.589   7.046   8.104 -0.8913  1.0102 -1.0395
  187SLPC  H15Y21620   2.477   7.008   7.977  1.0929  1.4033  1.0415
  187SLPC  C31621621   2.604   6.837   8.036 -0.6271 -0.3937 -0.0476
  187SLPC  H16X21622   2.680   6.850   7.956 -0.1523  0.3259  0.5107
  187SLPC  H16Y21623   2.543   6.751   8.000  1.3928 -0.5162 -3.7053
  187SLPC  C31721624   2.686   6.794   8.165  0.2277  0.3079 -0.2558
  187SLPC  H17X21625   2.618   6.780   8.252  1.2629  0.2885  0.5734
  187SLPC  H17Y21626   2.759   6.873   8.193 -0.7658  0.8406  0.9300
  187SLPC  C31821627   2.764   6.663   8.131  0.3805  0.1553 -0.2938
  187SLPC  H18X21628   2.693   6.597   8.075 -0.2271  0.7996 -0.3006
  187SLPC  H18Y21629   2.807   6.620   8.224 -0.4840 -1.2190 -0.4872
  187SLPC  H18Z21630   2.851   6.680   8.063  1.1181 -1.7304  0.1201
  188SLPC     N21631   2.943   0.736   6.228  0.4837 -0.1080  0.7032
  188SLPC   C1321632   2.973   0.887   6.228  0.4374  0.6340  0.7070
  188SLPC  H13A21633   2.883   0.935   6.264 -0.6361 -0.2945 -0.5946
  188SLPC  H13B21634   3.062   0.904   6.286  2.2337 -1.5988 -1.2042
  188SLPC  H13C21635   2.993   0.920   6.127 -2.0358 -0.1641 -0.1249
  188SLPC   C1421636   3.068   0.682   6.169  0.4637 -0.0884 -0.2201
  188SLPC  H14A21637   3.063   0.578   6.139 -0.3451  0.1970 -1.1046
  188SLPC  H14B21638   3.095   0.726   6.074 -1.1462 -1.1440 -1.2187
  188SLPC  H14C21639   3.155   0.703   6.229  0.2149 -1.6010  0.7343
  188SLPC   C1521640   2.835   0.711   6.129 -0.0371  0.2278  0.1814
  188SLPC  H15A21641   2.838   0.777   6.043  2.5281 -0.4611 -0.3480
  188SLPC  H15B21642   2.831   0.611   6.088 -1.3547  0.0732  0.6491
  188SLPC  H15C21643   2.743   0.712   6.185  0.1684 -0.7494  0.5639
  188SLPC   C1221644   2.921   0.680   6.361 -0.0530 -0.3767 -0.2192
  188SLPC  H12A21645   3.001   0.701   6.430  0.1469  2.7701 -1.2479
  188SLPC  H12B21646   2.911   0.573   6.355  0.8942 -0.5136  0.4580
  188SLPC   C1121647   2.788   0.708   6.439  0.6210  0.1071  0.3915
  188SLPC  H11A21648   2.775   0.819   6.441 -2.6443 -0.0782 -1.7706
  188SLPC  H11B21649   2.793   0.682   6.546 -2.0103 -0.5792  0.4264
  188SLPC     P21650   2.594   0.524   6.406 -0.7036  0.1395  0.2980
  188SLPC   O1321651   2.464   0.540   6.341 -0.0961  0.2256 -0.1308
  188SLPC   O1421652   2.673   0.408   6.358  0.1889 -0.0624  0.8297
  188SLPC   O1221653   2.677   0.657   6.367  0.1354  0.0268  0.6436
  188SLPC   O1121654   2.578   0.531   6.567  0.3706  0.3771  0.3536
  188SLPC    C121655   2.490   0.616   6.633 -0.2237 -0.2586  0.3184
  188SLPC    HA21656   2.554   0.699   6.672 -0.2556  0.1822 -0.5282
  188SLPC    HB21657   2.426   0.669   6.559 -0.1895 -0.9700 -0.2343
  188SLPC    C221658   2.407   0.532   6.730 -0.4851 -0.4487 -0.0857
  188SLPC    HS21659   2.308   0.581   6.736  0.0122  0.5833 -0.0335
  188SLPC   O2121660   2.476   0.536   6.859 -0.3718  0.1900  0.2680
  188SLPC   C2121661   2.396   0.551   6.969 -0.9582  0.0348 -0.1427
  188SLPC   O2221662   2.278   0.579   6.968  0.1671  0.4914 -0.0799
  188SLPC   C2221663   2.496   0.521   7.087  0.5351 -0.2087  0.4523
  188SLPC   H2R21664   2.520   0.413   7.082  0.0351 -0.2822 -0.9132
  188SLPC   H2S21665   2.582   0.590   7.073  0.7489 -0.3768  0.9342
  188SLPC    C321666   2.389   0.388   6.679 -0.0413 -0.0520  0.3389
  188SLPC    HX21667   2.494   0.351   6.671  1.4488  4.0100 -1.8140
  188SLPC    HY21668   2.358   0.382   6.573 -1.1103  2.5378  0.4447
  188SLPC   O3121669   2.311   0.303   6.766  0.3868 -0.2919 -0.4353
  188SLPC   C3121670   2.175   0.333   6.764 -0.0683 -0.2671  0.0463
  188SLPC   O3221671   2.129   0.424   6.703 -0.4398 -0.1229  0.2056
  188SLPC   C3221672   2.093   0.223   6.843 -0.1698 -0.2885 -0.4557
  188SLPC   H2X21673   2.158   0.132   6.847  1.7537  1.0438  0.2366
  188SLPC   H2Y21674   1.992   0.205   6.801 -1.0369 -0.8608  1.7151
  188SLPC   C2321675   2.425   0.534   7.223 -0.4754  0.0383  0.8394
  188SLPC   H3R21676   2.327   0.480   7.221 -0.7602  0.5258 -1.0442
  188SLPC   H3S21677   2.392   0.639   7.230 -0.1467  0.3028 -0.9762
  188SLPC   C2421678   2.512   0.473   7.341 -0.0059 -0.4016  0.3964
  188SLPC   H4R21679   2.607   0.528   7.329 -0.9788  1.0317 -1.0866
  188SLPC   H4S21680   2.522   0.364   7.320  0.2511 -0.7108  1.9898
  188SLPC   C2521681   2.453   0.504   7.488 -0.2670  0.2738 -0.0464
  188SLPC   H5R21682   2.362   0.447   7.515 -0.8605  0.9717 -0.5154
  188SLPC   H5S21683   2.427   0.612   7.495 -1.9478 -0.0870 -0.3588
  188SLPC   C2621684   2.563   0.473   7.599 -0.4310 -0.0131  0.0614
  188SLPC   H6R21685   2.660   0.522   7.574  0.0670 -0.4417  1.1012
  188SLPC   H6S21686   2.588   0.365   7.591 -0.8304 -0.0126 -1.7929
  188SLPC   C2721687   2.498   0.508   7.724 -0.1999 -0.0400 -0.3415
  188SLPC   H7R21688   2.399   0.459   7.737  0.1606 -0.2016  2.2683
  188SLPC   H7S21689   2.489   0.619   7.726  0.2578 -0.0077  0.1778
  188SLPC   C2821690   2.560   0.471   7.855  0.4346 -0.0341 -0.5109
  188SLPC   H8R21691   2.540   0.362   7.859 -0.4791  0.1104 -1.0602
  188SLPC   H8S21692   2.502   0.517   7.938 -1.1632  3.4927 -3.3565
  188SLPC   C2921693   2.711   0.507   7.860  0.0896 -0.6427 -0.4219
  188SLPC   H9R21694   2.785   0.479   7.784  1.6231 -1.0990  1.1910
  188SLPC  C21021695   2.767   0.577   7.965 -0.1320  0.0475  0.3186
  188SLPC  H10R21696   2.872   0.610   7.961 -0.0018 -0.2690  1.0262
  188SLPC  C21121697   2.685   0.633   8.080  0.3184 -0.3005 -1.0198
  188SLPC  H11R21698   2.756   0.661   8.161 -0.2085 -2.7311  0.3944
  188SLPC  H11S21699   2.610   0.560   8.116 -1.7842  1.3131 -1.9007
  188SLPC  C21221700   2.607   0.754   8.019 -0.1754  0.2668  0.1570
  188SLPC  H12R21701   2.555   0.736   7.924 -1.2803  1.3342  0.5354
  188SLPC  C21321702   2.591   0.871   8.074  0.2616 -0.4727  0.0568
  188SLPC  H13R21703   2.535   0.947   8.017 -0.4523 -0.7462  0.3739
  188SLPC  C21421704   2.637   0.931   8.207 -0.6611  0.9105 -0.5730
  188SLPC  H14R21705   2.702   1.021   8.197  2.2966 -0.8684  1.0141
  188SLPC  H14S21706   2.701   0.863   8.267  0.8811  2.4238 -0.4141
  188SLPC  C21521707   2.522   0.969   8.303 -0.4025 -0.3780  0.6144
  188SLPC  H15R21708   2.475   0.882   8.352  3.3319 -1.2857  3.0190
  188SLPC  H15S21709   2.451   1.041   8.256  1.4456  1.6659  0.7469
  188SLPC  C21621710   2.570   1.028   8.436 -0.3039 -0.6301 -0.5054
  188SLPC  H16R21711   2.618   1.128   8.423  0.4638 -0.8998  0.1327
  188SLPC  H16S21712   2.659   0.970   8.470  0.6278  1.1765  0.3103
  188SLPC  C21721713   2.467   1.025   8.553  0.2899  0.4351  0.2587
  188SLPC  H17R21714   2.424   0.922   8.550  0.6781  0.2921 -1.7837
  188SLPC  H17S21715   2.380   1.092   8.533  1.0861  0.8239 -2.1108
  188SLPC  C21821716   2.536   1.058   8.684 -0.3456  0.0194 -0.4274
  188SLPC  H18R21717   2.628   0.996   8.693  1.3941  2.3581 -1.2054
  188SLPC  H18S21718   2.474   1.051   8.776  1.8831  0.9511  1.2605
  188SLPC  H18T21719   2.570   1.164   8.682 -1.0889  0.2944  0.6175
  188SLPC   C3321720   2.068   0.268   6.987  0.3059  0.7973 -0.5938
  188SLPC   H3X21721   2.156   0.323   7.027 -0.0520  0.3990  0.7961
  188SLPC   H3Y21722   2.056   0.173   7.044  1.0532  1.4709  0.7363
  188SLPC   C3421723   1.955   0.371   7.008  0.0135 -0.4231 -0.2345
  188SLPC   H4X21724   1.861   0.314   6.994  1.2557 -2.3110 -1.3572
  188SLPC   H4Y21725   1.960   0.429   6.914  0.8648 -0.3435 -0.1516
  188SLPC   C3521726   1.961   0.459   7.133  0.7354  0.5084  0.7508
  188SLPC   H5X21727   1.874   0.526   7.151 -0.1895  0.1378 -1.9501
  188SLPC   H5Y21728   2.043   0.532   7.122  0.6573  1.0536  3.1873
  188SLPC   C3621729   2.000   0.392   7.259  0.4159  0.3344  0.2038
  188SLPC   H6X21730   2.100   0.351   7.231  0.0345  0.3252 -1.2550
  188SLPC   H6Y21731   1.926   0.312   7.281  1.2329 -1.1252 -1.8718
  188SLPC   C3721732   2.011   0.492   7.372 -0.2775  0.0432  0.0218
  188SLPC   H7X21733   1.907   0.528   7.387 -0.4229 -1.0136  2.0001
  188SLPC   H7Y21734   2.078   0.574   7.342 -1.3782  1.5587  1.5307
  188SLPC   C3821735   2.066   0.437   7.507  0.5932 -0.0017 -0.2928
  188SLPC   H8X21736   2.171   0.402   7.493  2.1937  2.8322  3.0112
  188SLPC   H8Y21737   2.004   0.350   7.536 -1.5454  1.6016  0.1440
  188SLPC   C3921738   2.083   0.536   7.622 -0.1686 -0.2805 -0.1239
  188SLPC   H9X21739   2.003   0.613   7.628 -0.1725  0.1578 -3.6858
  188SLPC   H9Y21740   2.176   0.596   7.613  0.0082  0.2873  3.9490
  188SLPC  C31021741   2.107   0.450   7.752 -0.9264  0.1016 -0.4012
  188SLPC  H10X21742   2.171   0.362   7.732  0.3636  0.7490  0.7121
  188SLPC  H10Y21743   2.012   0.400   7.782  0.6520 -1.2205  2.8727
  188SLPC  C31121744   2.136   0.529   7.879  0.0791  0.1595 -0.2875
  188SLPC  H11X21745   2.047   0.595   7.884  0.7326  1.0650 -0.4082
  188SLPC  H11Y21746   2.217   0.604   7.865  0.3864 -0.1406 -0.1348
  188SLPC  C31221747   2.158   0.456   8.011  0.5446 -0.7120 -0.3831
  188SLPC  H12X21748   2.244   0.386   7.999  2.1169  0.7279  1.7406
  188SLPC  H12Y21749   2.071   0.403   8.053 -0.3419  0.7761 -0.2670
  188SLPC  C31321750   2.195   0.550   8.132  1.2356 -0.0230  0.4283
  188SLPC  H13X21751   2.102   0.597   8.170 -0.0113 -0.8200 -1.4660
  188SLPC  H13Y21752   2.256   0.636   8.095 -1.0129  1.5430  0.1736
  188SLPC  C31421753   2.281   0.479   8.241 -0.0509  0.0106 -0.3633
  188SLPC  H14X21754   2.370   0.441   8.187 -0.2308 -1.9221  0.6280
  188SLPC  H14Y21755   2.227   0.390   8.278  2.2106 -0.4718  2.1762
  188SLPC  C31521756   2.315   0.568   8.358 -0.5805  0.9676  0.1881
  188SLPC  H15X21757   2.221   0.593   8.412 -0.6755  0.8218  0.0911
  188SLPC  H15Y21758   2.364   0.662   8.327  0.2117  1.2186  2.0664
  188SLPC  C31621759   2.405   0.509   8.462 -0.7759 -0.0796 -0.4344
  188SLPC  H16X21760   2.499   0.481   8.409 -0.5993 -1.4585  0.5303
  188SLPC  H16Y21761   2.377   0.410   8.505 -1.1856  0.1707 -0.1257
  188SLPC  C31721762   2.433   0.604   8.584 -0.7622  0.1733 -0.2488
  188SLPC  H17X21763   2.402   0.557   8.680 -0.4235  1.3706  0.4741
  188SLPC  H17Y21764   2.375   0.696   8.562  0.0466  0.6274 -0.5314
  188SLPC  C31821765   2.580   0.658   8.600  0.2237  1.0341 -0.2385
  188SLPC  H18X21766   2.649   0.573   8.620 -0.0753  0.7424 -0.4490
  188SLPC  H18Y21767   2.601   0.730   8.683  1.7374  1.1962 -0.7286
  188SLPC  H18Z21768   2.618   0.705   8.507  1.2040 -0.5362 -0.6700
  189SLPC     N21769   5.128   4.609   6.030 -0.0767  0.9272 -0.2297
  189SLPC   C1321770   5.021   4.706   6.047 -0.2833  0.1057  1.2836
  189SLPC  H13A21771   5.038   4.784   6.120 -0.3613  0.5636  0.8192
  189SLPC  H13B21772   5.001   4.758   5.955 -1.4032 -1.2732  0.7026
  189SLPC  H13C21773   4.925   4.660   6.065  0.1144 -2.0695 -1.5512
  189SLPC   C1421774   5.250   4.698   6.004 -0.5327  0.0050 -0.0642
  189SLPC  H14A21775   5.333   4.649   5.956 -2.2865 -0.9819 -2.2906
  189SLPC  H14B21776   5.226   4.778   5.936  2.3638  0.4034 -0.7370
  189SLPC  H14C21777   5.276   4.753   6.093 -0.4756  1.7445 -1.1104
  189SLPC   C1521778   5.100   4.515   5.910 -0.0364 -0.1896  0.7302
  189SLPC  H15A21779   4.998   4.479   5.916  0.8608 -3.1087  0.3011
  189SLPC  H15B21780   5.137   4.561   5.820 -0.4779  0.6650  0.9772
  189SLPC  H15C21781   5.154   4.422   5.916 -1.4811 -1.0387  1.0375
  189SLPC   C1221782   5.140   4.528   6.159  0.0583 -0.0564 -0.0522
  189SLPC  H12A21783   5.201   4.442   6.138 -1.0195 -0.8310 -0.0854
  189SLPC  H12B21784   5.041   4.491   6.183 -0.1036  0.8459  0.7262
  189SLPC   C1121785   5.207   4.596   6.285  0.7696 -1.0079  0.4283
  189SLPC  H11A21786   5.168   4.553   6.380  0.1060 -2.5041 -0.4955
  189SLPC  H11B21787   5.175   4.703   6.287 -1.9397 -1.7717  1.8797
  189SLPC     P21788   5.438   4.475   6.323  0.3269  0.1487 -0.1313
  189SLPC   O1321789   5.391   4.350   6.264  0.1037  0.0556  0.1909
  189SLPC   O1421790   5.578   4.513   6.291  0.8857  0.3269  0.5390
  189SLPC   O1221791   5.351   4.596   6.278  0.6113  0.1089  0.0320
  189SLPC   O1121792   5.411   4.471   6.478 -0.4736 -0.0230  0.1717
  189SLPC    C121793   5.448   4.586   6.551 -0.0224  0.0484  0.2655
  189SLPC    HA21794   5.555   4.607   6.530  0.3464 -1.3122  0.6785
  189SLPC    HB21795   5.382   4.669   6.520  0.2740  0.0963 -0.2431
  189SLPC    C221796   5.415   4.574   6.705 -0.4202  0.3424  0.1875
  189SLPC    HS21797   5.465   4.479   6.735 -0.7557  0.0453 -0.1805
  189SLPC   O2121798   5.267   4.571   6.721 -0.5751  0.1667  0.0388
  189SLPC   C2121799   5.219   4.458   6.779  0.0258 -0.1334  0.0982
  189SLPC   O2221800   5.293   4.364   6.813  0.8408  0.5360  0.5144
  189SLPC   C2221801   5.067   4.478   6.790 -0.3804 -0.0102  0.4566
  189SLPC   H2R21802   5.026   4.540   6.707 -0.7482  0.4114  0.9424
  189SLPC   H2S21803   5.023   4.381   6.759 -1.1437  0.7272 -0.8840
  189SLPC    C321804   5.481   4.691   6.779  0.0964  0.1214 -0.7043
  189SLPC    HX21805   5.444   4.786   6.734 -0.3587  0.2670 -0.0422
  189SLPC    HY21806   5.589   4.680   6.758  0.3862 -4.4698  1.9332
  189SLPC   O3121807   5.463   4.680   6.922  0.0183 -0.3251 -0.1230
  189SLPC   C3121808   5.366   4.756   6.969 -0.7288  0.8909 -0.5548
  189SLPC   O3221809   5.311   4.846   6.911 -0.6029 -0.5534 -0.3728
  189SLPC   C3221810   5.339   4.714   7.117 -0.9533  0.0245 -0.3550
  189SLPC   H2X21811   5.432   4.738   7.172 -1.8067 -0.1414  1.2163
  189SLPC   H2Y21812   5.318   4.605   7.128 -1.9114  0.3651  1.7435
  189SLPC   C2321813   5.028   4.543   6.919  0.8341  0.0762 -0.1245
  189SLPC   H3R21814   5.083   4.640   6.919 -1.9847  1.8880 -3.4555
  189SLPC   H3S21815   5.049   4.484   7.011  2.7315  0.1055 -0.4966
  189SLPC   C2421816   4.881   4.574   6.906 -0.2547 -0.3814  0.4615
  189SLPC   H4R21817   4.822   4.480   6.895  0.0680 -0.5466  0.1637
  189SLPC   H4S21818   4.864   4.625   6.810  0.9075  0.3200  0.6119
  189SLPC   C2521819   4.827   4.648   7.028 -0.0682  0.3890 -0.1908
  189SLPC   H5R21820   4.717   4.655   7.013 -0.1517  2.4077  0.9283
  189SLPC   H5S21821   4.865   4.752   7.032 -2.7484  1.4045  1.5360
  189SLPC   C2621822   4.857   4.580   7.163  0.5043 -0.0020  0.6617
  189SLPC   H6R21823   4.966   4.586   7.185  0.6062 -1.3516  0.5588
  189SLPC   H6S21824   4.814   4.478   7.165 -2.4835  1.0766 -1.2750
  189SLPC   C2721825   4.771   4.653   7.273 -0.2615 -0.6599  0.3488
  189SLPC   H7R21826   4.671   4.651   7.225  0.0924  0.4494 -0.4696
  189SLPC   H7S21827   4.808   4.757   7.279 -0.6211 -0.4603 -0.6759
  189SLPC   C2821828   4.754   4.566   7.401 -0.2110  0.0275  0.5154
  189SLPC   H8R21829   4.726   4.462   7.375  0.8474 -0.4020  1.0647
  189SLPC   H8S21830   4.672   4.615   7.458 -0.6938  1.4004 -1.2699
  189SLPC   C2921831   4.881   4.556   7.477 -0.1966 -0.5831  0.1826
  189SLPC   H9R21832   4.969   4.544   7.413  0.3399  0.9844  0.5755
  189SLPC  C21021833   4.903   4.572   7.609 -0.3473  0.4907  0.4651
  189SLPC  H10R21834   5.007   4.577   7.643  0.2888 -2.1786 -0.8194
  189SLPC  C21121835   4.799   4.591   7.719  0.3061  0.4195 -0.4676
  189SLPC  H11R21836   4.711   4.526   7.699 -1.7998  1.7696  3.2832
  189SLPC  H11S21837   4.771   4.699   7.721  0.6196  0.5006 -0.4626
  189SLPC  C21221838   4.840   4.561   7.861  0.3080  0.2967  0.2492
  189SLPC  H12R21839   4.931   4.504   7.884  1.9520  2.1447 -1.3234
  189SLPC  C21321840   4.775   4.614   7.962  0.2718  0.0216 -0.4033
  189SLPC  H13R21841   4.806   4.584   8.063 -0.3509 -0.2873 -0.3042
  189SLPC  C21421842   4.651   4.704   7.954 -0.2604  0.1875 -1.4036
  189SLPC  H14R21843   4.595   4.691   7.858  1.5696 -1.5253 -2.3195
  189SLPC  H14S21844   4.686   4.809   7.951  2.4792 -0.6431 -1.1369
  189SLPC  C21521845   4.542   4.687   8.071 -0.1490 -0.4724  0.1825
  189SLPC  H15R21846   4.500   4.585   8.074 -0.8399 -0.1952  0.1120
  189SLPC  H15S21847   4.456   4.752   8.042 -0.3670 -0.8077  0.0797
  189SLPC  C21621848   4.599   4.719   8.214  0.3251  0.2317 -0.0581
  189SLPC  H16R21849   4.630   4.826   8.211  0.2054  0.2664 -3.2782
  189SLPC  H16S21850   4.692   4.658   8.224 -0.3388 -0.7143  0.5109
  189SLPC  C21721851   4.506   4.673   8.327  0.6857 -0.3588  0.4257
  189SLPC  H17R21852   4.464   4.574   8.298  0.7003 -1.0711  2.6220
  189SLPC  H17S21853   4.427   4.752   8.331  0.8547 -0.1918  0.4655
  189SLPC  C21821854   4.569   4.648   8.464  0.3000  0.5000  0.9098
  189SLPC  H18R21855   4.495   4.604   8.535 -1.4975 -1.4959 -2.0000
  189SLPC  H18S21856   4.625   4.733   8.507  0.7059  0.8472 -0.2670
  189SLPC  H18T21857   4.657   4.581   8.457  0.8476  1.2703  0.1940
  189SLPC   C3321858   5.225   4.787   7.195  0.3024 -0.4752  0.2883
  189SLPC   H3X21859   5.131   4.758   7.144  0.9835  1.0652 -2.0552
  189SLPC   H3Y21860   5.256   4.894   7.190  1.1966 -0.7527 -0.5375
  189SLPC   C3421861   5.205   4.727   7.333 -0.1735 -0.0653 -0.5276
  189SLPC   H4X21862   5.168   4.622   7.325 -1.9523  0.0527  3.5266
  189SLPC   H4Y21863   5.124   4.790   7.376  2.1211  1.6961  1.5401
  189SLPC   C3521864   5.322   4.736   7.430  0.1763  1.1974  0.2078
  189SLPC   H5X21865   5.383   4.828   7.430  0.1164  1.3434 -2.9976
  189SLPC   H5Y21866   5.387   4.650   7.401  0.3235  1.2104  0.4957
  189SLPC   C3621867   5.274   4.722   7.571  0.8642  0.3174  0.2386
  189SLPC   H6X21868   5.354   4.659   7.615  0.8626 -1.3507 -1.9456
  189SLPC   H6Y21869   5.177   4.669   7.580  0.6327  0.7178  0.1381
  189SLPC   C3721870   5.257   4.854   7.639 -0.0532 -0.5305 -0.7856
  189SLPC   H7X21871   5.233   4.927   7.558  0.9465 -1.1234 -1.6321
  189SLPC   H7Y21872   5.359   4.873   7.678 -0.2134 -1.9317  0.4196
  189SLPC   C3821873   5.150   4.858   7.748 -0.5567 -0.0774  0.1492
  189SLPC   H8X21874   5.057   4.801   7.724 -0.5893 -0.4148  1.0192
  189SLPC   H8Y21875   5.115   4.962   7.765 -3.1845 -0.8047 -0.3532
  189SLPC   C3921876   5.202   4.813   7.884 -0.2868 -0.5855 -0.3272
  189SLPC   H9X21877   5.286   4.877   7.920  1.4388 -1.7904 -1.9996
  189SLPC   H9Y21878   5.244   4.710   7.890  0.7187 -0.1270  2.8218
  189SLPC  C31021879   5.086   4.811   7.987  0.1029 -0.1325  0.9190
  189SLPC  H10X21880   5.023   4.721   7.968  0.0718 -0.2652  1.6071
  189SLPC  H10Y21881   5.029   4.906   7.977  1.5463  0.8859  1.9067
  189SLPC  C31121882   5.131   4.789   8.134  0.0822 -0.1709 -0.2423
  189SLPC  H11X21883   5.137   4.887   8.186 -1.3919  0.8429 -1.8525
  189SLPC  H11Y21884   5.236   4.754   8.121  0.6510  1.0324  0.8645
  189SLPC  C31221885   5.045   4.685   8.201  0.8754 -0.6889  0.2436
  189SLPC  H12X21886   5.041   4.591   8.143  1.7514 -1.0993  0.8172
  189SLPC  H12Y21887   4.947   4.736   8.206  0.0186 -2.0930 -1.3896
  189SLPC  C31321888   5.102   4.650   8.336  0.4401 -0.4678 -0.0338
  189SLPC  H13X21889   5.116   4.746   8.391 -0.3080 -0.4877  0.2019
  189SLPC  H13Y21890   5.201   4.602   8.318  0.8765 -0.5318  2.2236
  189SLPC  C31421891   5.021   4.558   8.419  0.9996  0.4378  0.2182
  189SLPC  H14X21892   5.023   4.453   8.382 -0.2855 -0.2210  1.9060
  189SLPC  H14Y21893   4.914   4.587   8.414  1.1693  0.9410 -1.0088
  189SLPC  C31521894   5.060   4.559   8.567 -0.5455  0.8280 -0.8918
  189SLPC  H15X21895   4.992   4.486   8.617 -0.0204  0.4347 -0.7393
  189SLPC  H15Y21896   5.052   4.662   8.607 -0.2936  1.1412 -1.6332
  189SLPC  C31621897   5.206   4.512   8.600 -0.1563 -0.2484  0.5194
  189SLPC  H16X21898   5.284   4.573   8.548  1.3015 -1.4734  1.2091
  189SLPC  H16Y21899   5.229   4.410   8.564  1.2032 -0.4898  1.9417
  189SLPC  C31721900   5.236   4.529   8.748  0.1145 -0.1412 -0.1899
  189SLPC  H17X21901   5.316   4.463   8.788 -1.4985 -2.0672 -0.0367
  189SLPC  H17Y21902   5.147   4.508   8.812  0.0441 -1.3438 -0.6587
  189SLPC  C31821903   5.281   4.673   8.779 -0.4374  0.4202 -0.2224
  189SLPC  H18X21904   5.217   4.755   8.738 -0.5239  1.6027  2.1192
  189SLPC  H18Y21905   5.386   4.675   8.744  1.0910 -0.4052  3.7598
  189SLPC  H18Z21906   5.276   4.687   8.889 -1.6008  1.4178 -0.3673
  190SLPC     N21907   5.781   3.011   6.278 -0.4917 -0.2839 -0.3791
  190SLPC   C1321908   5.897   2.987   6.190 -0.3703 -0.3824 -0.3506
  190SLPC  H13A21909   5.863   2.946   6.096  0.4022 -0.4081 -0.6185
  190SLPC  H13B21910   5.942   3.078   6.154 -1.1629  0.9293  1.8142
  190SLPC  H13C21911   5.966   2.912   6.226 -0.7710 -1.2192 -1.2615
  190SLPC   C1421912   5.681   3.104   6.210 -0.0346 -0.7022 -0.2534
  190SLPC  H14A21913   5.730   3.201   6.212 -0.5671 -0.4357  1.6169
  190SLPC  H14B21914   5.659   3.080   6.107 -0.7338 -2.1658  0.2102
  190SLPC  H14C21915   5.587   3.099   6.262 -1.4319  1.7534 -2.2842
  190SLPC   C1521916   5.830   3.086   6.402  0.6255  0.3720 -0.1923
  190SLPC  H15A21917   5.877   3.021   6.474 -0.3518 -0.4016 -0.2322
  190SLPC  H15B21918   5.908   3.158   6.385  0.4511  1.3904  2.7338
  190SLPC  H15C21919   5.751   3.132   6.460  1.1629  0.4042  0.5311
  190SLPC   C1221920   5.706   2.882   6.305 -0.1860 -0.4946 -0.1312
  190SLPC  H12A21921   5.622   2.908   6.369  0.3361 -0.6544  0.6388
  190SLPC  H12B21922   5.768   2.812   6.359  0.5432 -0.5261 -1.0019
  190SLPC   C1121923   5.649   2.808   6.178  0.8717  0.6295  0.0022
  190SLPC  H11A21924   5.576   2.879   6.135  1.6208  1.7631  0.5413
  190SLPC  H11B21925   5.581   2.725   6.208  2.7608 -0.2895  2.0488
  190SLPC     P21926   5.818   2.620   6.154 -0.0332 -0.1473  0.0908
  190SLPC   O1321927   5.738   2.510   6.082 -0.0919 -0.9148 -0.2022
  190SLPC   O1421928   5.962   2.624   6.124  0.0528 -0.7801 -0.2559
  190SLPC   O1221929   5.754   2.754   6.098  0.1311 -0.3743  0.2568
  190SLPC   O1121930   5.786   2.617   6.309  0.1356 -0.2419 -0.5866
  190SLPC    C121931   5.739   2.501   6.379  0.4484 -0.5819  0.4560
  190SLPC    HA21932   5.628   2.491   6.372  0.0591  2.0528  1.6121
  190SLPC    HB21933   5.793   2.414   6.335 -1.0316 -0.9976 -0.6172
  190SLPC    C221934   5.787   2.507   6.525 -0.2086 -0.2085  0.5530
  190SLPC    HS21935   5.745   2.590   6.586  1.7060 -1.0275  3.1948
  190SLPC   O2121936   5.933   2.516   6.528  0.1926 -0.1126 -0.2197
  190SLPC   C2121937   5.982   2.637   6.529  1.0899 -0.0677 -0.7366
  190SLPC   O2221938   5.920   2.744   6.514  0.3322 -0.0025 -0.5005
  190SLPC   C2221939   6.137   2.626   6.534  0.6766 -0.2009  0.4601
  190SLPC   H2R21940   6.175   2.561   6.452  2.0508 -1.3971  1.9931
  190SLPC   H2S21941   6.178   2.726   6.505  1.5311 -0.1638  1.7411
  190SLPC    C321942   5.739   2.372   6.581  0.0008  0.4306  0.0174
  190SLPC    HX21943   5.785   2.285   6.529 -3.7544 -3.0288  1.8715
  190SLPC    HY21944   5.631   2.360   6.559  0.1078  1.5233 -1.2706
  190SLPC   O3121945   5.767   2.347   6.719  0.0217  0.1872 -0.8121
  190SLPC   C3121946   5.701   2.413   6.807  0.5177  0.0314  0.0293
  190SLPC   O3221947   5.599   2.481   6.785 -0.5983 -0.1689  0.5310
  190SLPC   C3221948   5.765   2.380   6.943 -0.7790 -0.6463  0.2328
  190SLPC   H2X21949   5.859   2.439   6.951 -1.4520  0.6233 -0.7541
  190SLPC   H2Y21950   5.781   2.271   6.932  0.0446 -0.6121  1.0507
  190SLPC   C2321951   6.184   2.579   6.675  0.3410  0.0348 -0.8830
  190SLPC   H3R21952   6.288   2.540   6.669  1.0183  1.6390 -0.0839
  190SLPC   H3S21953   6.119   2.490   6.692 -0.7352  0.6605 -1.6066
  190SLPC   C2421954   6.156   2.674   6.790 -0.0047  0.2147  0.5417
  190SLPC   H4R21955   6.056   2.722   6.785 -0.0892 -0.1074 -1.7240
  190SLPC   H4S21956   6.234   2.751   6.775 -1.5896  1.6349 -0.9162
  190SLPC   C2521957   6.170   2.603   6.929  0.8505  0.9217 -0.0605
  190SLPC   H5R21958   6.267   2.550   6.940  1.4762  1.2030 -3.2490
  190SLPC   H5S21959   6.095   2.522   6.923 -0.5584  1.9197  2.3447
  190SLPC   C2621960   6.156   2.703   7.039  0.1692  0.3974  0.4493
  190SLPC   H6R21961   6.056   2.753   7.040 -0.6990 -1.2241 -1.2138
  190SLPC   H6S21962   6.226   2.787   7.018  0.6207  0.2395  1.2944
  190SLPC   C2721963   6.187   2.648   7.179  0.0884 -0.2943  0.5875
  190SLPC   H7R21964   6.193   2.743   7.236 -0.0316  3.2397 -4.6319
  190SLPC   H7S21965   6.281   2.590   7.177  0.5359  0.4415  0.1439
  190SLPC   C2821966   6.084   2.549   7.230  0.1319 -0.1222  0.0498
  190SLPC   H8R21967   6.098   2.455   7.173  0.0262 -0.4160  0.5005
  190SLPC   H8S21968   5.978   2.580   7.219  0.0078  0.2396  1.9308
  190SLPC   C2921969   6.110   2.529   7.378 -0.4664  0.5325  0.1934
  190SLPC   H9R21970   6.137   2.623   7.428 -2.5468  1.8293 -1.0091
  190SLPC  C21021971   6.125   2.418   7.449  0.2772  0.5841 -0.6187
  190SLPC  H10R21972   6.153   2.433   7.554 -1.0738 -1.2557  0.0613
  190SLPC  C21121973   6.099   2.281   7.391 -0.3026  0.2341 -0.1383
  190SLPC  H11R21974   6.200   2.244   7.364 -0.9926 -1.1629 -0.8900
  190SLPC  H11S21975   6.040   2.277   7.297 -0.3129  0.5666 -0.1493
  190SLPC  C21221976   6.034   2.188   7.498  0.4184 -0.7147 -0.1540
  190SLPC  H12R21977   5.926   2.201   7.518  0.8304  0.3254  1.5959
  190SLPC  C21321978   6.102   2.112   7.586  0.6703 -0.5411  0.6136
  190SLPC  H13R21979   6.049   2.036   7.647 -0.5692 -1.6696 -1.7468
  190SLPC  C21421980   6.257   2.097   7.586  0.0440  0.1701 -0.0472
  190SLPC  H14R21981   6.314   2.190   7.608  0.6701 -0.5119  1.3461
  190SLPC  H14S21982   6.292   2.044   7.495 -0.1496 -0.0194 -0.0128
  190SLPC  C21521983   6.304   2.008   7.711  0.2980 -0.1192 -0.5492
  190SLPC  H15R21984   6.279   1.900   7.697 -0.7586 -0.0014  0.3068
  190SLPC  H15S21985   6.269   2.036   7.812  1.8308 -0.3456  0.0799
  190SLPC  C21621986   6.456   2.009   7.736 -1.1250  0.0439  0.4729
  190SLPC  H16R21987   6.481   1.940   7.820  2.3716  2.4439  1.6371
  190SLPC  H16S21988   6.494   2.112   7.752  1.9206 -0.6889 -1.2735
  190SLPC  C21721989   6.524   1.959   7.615 -0.1402  0.2573 -0.7859
  190SLPC  H17R21990   6.510   2.021   7.524  0.8078 -1.0050 -1.8246
  190SLPC  H17S21991   6.476   1.862   7.590 -0.6852  0.8879 -2.3201
  190SLPC  C21821992   6.678   1.948   7.630 -0.1730 -0.0510 -0.5371
  190SLPC  H18R21993   6.726   2.046   7.605 -3.0210  1.3417 -0.8987
  190SLPC  H18S21994   6.704   1.877   7.549 -1.1418 -1.3533  0.2655
  190SLPC  H18T21995   6.715   1.897   7.722 -0.4204  0.2446 -0.2711
  190SLPC   C3321996   5.677   2.422   7.064  0.3436 -0.1017  0.3550
  190SLPC   H3X21997   5.572   2.387   7.053 -0.4049  1.6855  1.5137
  190SLPC   H3Y21998   5.692   2.531   7.072  0.5329 -0.1662  0.9127
  190SLPC   C3421999   5.731   2.366   7.190  0.0883  0.5569 -0.2750
  190SLPC   H4X22000   5.841   2.383   7.196  0.1609 -0.0341  0.2690
  190SLPC   H4Y22001   5.717   2.256   7.192  0.9320  0.4352 -0.6644
  190SLPC   C3522002   5.667   2.415   7.322  0.1211 -0.4083  0.3997
  190SLPC   H5X22003   5.562   2.379   7.329 -0.4332  1.0909  0.1593
  190SLPC   H5Y22004   5.656   2.525   7.339  2.2540 -0.0990  0.0549
  190SLPC   C3622005   5.738   2.367   7.446 -0.4952  0.0885 -0.3334
  190SLPC   H6X22006   5.841   2.407   7.447 -1.0719  1.6811 -0.9700
  190SLPC   H6Y22007   5.737   2.256   7.451 -1.3384  0.1234  0.7026
  190SLPC   C3722008   5.666   2.407   7.572 -0.5179  0.0011 -0.2484
  190SLPC   H7X22009   5.570   2.351   7.574  0.0908 -1.2591 -2.3463
  190SLPC   H7Y22010   5.644   2.516   7.572  0.0446  0.1727  2.1281
  190SLPC   C3822011   5.739   2.372   7.700  0.3553 -0.3876 -0.1398
  190SLPC   H8X22012   5.781   2.269   7.689 -0.8015 -0.7733 -1.2551
  190SLPC   H8Y22013   5.683   2.367   7.795  0.1389  2.9356  0.0076
  190SLPC   C3922014   5.844   2.474   7.740  0.2153 -0.6491  0.1246
  190SLPC   H9X22015   5.794   2.572   7.755  1.5676 -0.2065  2.0586
  190SLPC   H9Y22016   5.916   2.482   7.656 -1.4630  0.7344 -1.2843
  190SLPC  C31022017   5.924   2.442   7.874 -0.1253 -0.6591  0.2675
  190SLPC  H10X22018   5.843   2.434   7.949  0.6768 -0.9232  1.1282
  190SLPC  H10Y22019   5.977   2.536   7.901 -0.8744  0.4323 -1.8112
  190SLPC  C31122020   6.017   2.325   7.864 -0.5420 -0.0229 -0.0016
  190SLPC  H11X22021   6.090   2.347   7.783 -1.5117  1.2830 -0.5467
  190SLPC  H11Y22022   5.967   2.233   7.828  3.4290 -2.4588  0.0122
  190SLPC  C31222023   6.098   2.281   7.991  0.0130  0.3100  0.0718
  190SLPC  H12X22024   6.149   2.379   8.000  3.6019 -1.0268 -3.0008
  190SLPC  H12Y22025   6.175   2.206   7.963 -2.4451 -1.0124 -4.0396
  190SLPC  C31322026   6.003   2.236   8.104  0.1669  0.9288  0.5026
  190SLPC  H13X22027   5.959   2.137   8.079  0.2548  1.2490 -1.0397
  190SLPC  H13Y22028   5.920   2.310   8.103  0.2290  1.0164  1.6546
  190SLPC  C31422029   6.066   2.237   8.244  0.4976 -0.0852 -0.1129
  190SLPC  H14X22030   5.990   2.201   8.316 -0.7241 -2.3222 -2.3390
  190SLPC  H14Y22031   6.104   2.340   8.262 -1.3357  0.5990  0.0527
  190SLPC  C31522032   6.182   2.142   8.261  0.1438 -0.7159 -0.5391
  190SLPC  H15X22033   6.251   2.151   8.175 -0.0522  0.4811 -0.5789
  190SLPC  H15Y22034   6.147   2.038   8.278  0.2439 -0.4369  1.8174
  190SLPC  C31622035   6.264   2.167   8.388  0.2026 -0.5550 -0.8654
  190SLPC  H16X22036   6.206   2.148   8.481  1.0085  0.4958 -0.1140
  190SLPC  H16Y22037   6.286   2.276   8.394  1.9646 -0.9298  0.2857
  190SLPC  C31722038   6.395   2.096   8.407 -0.1579  0.8561 -0.1442
  190SLPC  H17X22039   6.453   2.090   8.312 -0.2713 -2.0811 -0.1260
  190SLPC  H17Y22040   6.372   1.987   8.416  1.9383  0.3261 -0.4930
  190SLPC  C31822041   6.479   2.127   8.526  0.3680 -0.0626  0.4131
  190SLPC  H18X22042   6.531   2.222   8.498  2.6114 -1.5688 -0.8539
  190SLPC  H18Y22043   6.550   2.043   8.540  1.4790  1.1374  2.4385
  190SLPC  H18Z22044   6.420   2.158   8.615  0.5001  1.1880  0.0866
  191SLPC     N22045   2.761   4.644   5.793  0.0160 -0.3506  0.0637
  191SLPC   C1322046   2.841   4.655   5.670  0.2747  0.2056 -0.3869
  191SLPC  H13A22047   2.866   4.560   5.626 -0.5480 -0.5535  0.7496
  191SLPC  H13B22048   2.793   4.719   5.597  1.1859 -0.3773 -1.5275
  191SLPC  H13C22049   2.934   4.702   5.698  0.2460 -0.6074  1.1588
  191SLPC   C1422050   2.824   4.543   5.887 -0.5275  0.2845 -0.0933
  191SLPC  H14A22051   2.926   4.570   5.909 -0.3877  0.7651 -1.2675
  191SLPC  H14B22052   2.766   4.540   5.978 -1.2849 -1.1201 -0.5975
  191SLPC  H14C22053   2.835   4.438   5.863  1.6141  0.0479  1.5897
  191SLPC   C1522054   2.623   4.600   5.765  0.4028  0.7043 -0.3336
  191SLPC  H15A22055   2.622   4.503   5.718 -1.0786  0.4148  0.2205
  191SLPC  H15B22056   2.558   4.593   5.851  0.4247 -1.5454 -0.4438
  191SLPC  H15C22057   2.586   4.672   5.693  0.6825  0.1335 -1.0586
  191SLPC   C1222058   2.753   4.776   5.853  0.1406  0.5309 -0.2074
  191SLPC  H12A22059   2.716   4.845   5.778 -0.5952  1.2413  0.7808
  191SLPC  H12B22060   2.855   4.803   5.874 -0.0591  1.3460 -0.2535
  191SLPC   C1122061   2.688   4.781   5.991  0.1291  0.8283  0.0110
  191SLPC  H11A22062   2.734   4.871   6.037  1.2483 -0.6969  2.0430
  191SLPC  H11B22063   2.720   4.701   6.062 -1.0485  0.8979  0.6602
  191SLPC     P22064   2.467   4.923   5.917  0.3030 -0.0981  0.0358
  191SLPC   O1322065   2.536   4.973   5.802  0.0249  0.7387  0.1289
  191SLPC   O1422066   2.324   4.888   5.895 -0.4165 -1.1002  0.7273
  191SLPC   O1222067   2.540   4.800   5.973 -0.2177 -0.7968  0.0067
  191SLPC   O1122068   2.476   5.047   6.027 -0.0081 -0.1973  0.0733
  191SLPC    C122069   2.421   5.015   6.154  0.2175 -0.6967 -0.4115
  191SLPC    HA22070   2.309   5.015   6.152  0.1185 -3.6895  0.0974
  191SLPC    HB22071   2.449   4.913   6.188  1.2321 -0.8916 -1.7657
  191SLPC    C222072   2.474   5.106   6.264  0.5134 -0.4673 -0.1402
  191SLPC    HS22073   2.457   5.208   6.224 -1.6504 -0.8459 -0.3412
  191SLPC   O2122074   2.612   5.068   6.286  0.2060  0.9853  0.8232
  191SLPC   C2122075   2.681   5.165   6.318 -0.1634  0.3307  0.0771
  191SLPC   O2222076   2.651   5.283   6.335 -0.1201  0.0031  0.2224
  191SLPC   C2222077   2.833   5.120   6.327  0.2934  0.0139  0.2822
  191SLPC   H2R22078   2.844   5.012   6.303  0.9472  0.0638  0.3463
  191SLPC   H2S22079   2.883   5.172   6.244 -0.0846 -0.7890 -0.4658
  191SLPC    C322080   2.393   5.082   6.393  0.5991  0.0218  0.0120
  191SLPC    HX22081   2.397   4.972   6.401 -1.2884 -0.0725  0.1262
  191SLPC    HY22082   2.288   5.106   6.365  0.7219 -0.4852 -0.8909
  191SLPC   O3122083   2.443   5.147   6.513  0.1410  0.0692 -0.1547
  191SLPC   C3122084   2.391   5.263   6.536  0.1803  0.1995  0.2514
  191SLPC   O3222085   2.317   5.322   6.459 -0.2796 -0.0775 -0.3785
  191SLPC   C3222086   2.440   5.307   6.681  0.4333  0.2619 -0.6689
  191SLPC   H2X22087   2.548   5.332   6.683  0.7191 -0.9084 -0.2558
  191SLPC   H2Y22088   2.428   5.221   6.751  2.3125  0.0636 -0.5318
  191SLPC   C2322089   2.894   5.178   6.457  0.4711  1.0911 -0.0704
  191SLPC   H3R22090   2.866   5.284   6.472  0.1744  0.8478  1.2635
  191SLPC   H3S22091   3.005   5.178   6.452  0.5971 -2.6891 -0.2834
  191SLPC   C2422092   2.867   5.098   6.588 -0.4204 -0.0538  0.4680
  191SLPC   H4R22093   2.889   4.989   6.584 -0.3991 -0.0048 -1.2496
  191SLPC   H4S22094   2.761   5.111   6.618 -0.4239  1.3846 -0.1201
  191SLPC   C2522095   2.952   5.154   6.702 -0.9228 -0.1895 -0.6743
  191SLPC   H5R22096   3.034   5.208   6.651 -0.7302  0.9392  0.7673
  191SLPC   H5S22097   2.989   5.073   6.769 -1.1079 -1.2333 -1.8033
  191SLPC   C2622098   2.870   5.254   6.785  0.8536 -0.3760  0.0456
  191SLPC   H6R22099   2.769   5.214   6.805  0.2386  0.0869 -1.9522
  191SLPC   H6S22100   2.842   5.336   6.716 -0.5565 -2.5663 -2.1480
  191SLPC   C2722101   2.932   5.299   6.909  0.3688 -0.4917  0.1525
  191SLPC   H7R22102   2.896   5.397   6.948  3.1997  0.2304  1.2087
  191SLPC   H7S22103   3.038   5.319   6.883  1.5551 -3.9504  1.7817
  191SLPC   C2822104   2.944   5.194   7.025 -0.1887 -0.1060 -0.2304
  191SLPC   H8R22105   3.002   5.239   7.108 -1.8725  0.5022  0.6573
  191SLPC   H8S22106   3.006   5.105   7.002  0.4959  0.0883  0.7894
  191SLPC   C2922107   2.808   5.144   7.069  0.3739 -0.4879  0.5860
  191SLPC   H9R22108   2.748   5.102   6.988  1.0506 -0.4932  0.0765
  191SLPC  C21022109   2.760   5.155   7.197 -0.3181  0.2001 -0.5755
  191SLPC  H10R22110   2.663   5.108   7.220 -0.7121  1.7531  1.1368
  191SLPC  C21122111   2.821   5.221   7.317 -0.3498 -0.5056 -0.0983
  191SLPC  H11R22112   2.747   5.257   7.392  1.0072 -0.0281  1.0658
  191SLPC  H11S22113   2.853   5.323   7.285  1.1208  0.1643  3.0966
  191SLPC  C21222114   2.940   5.147   7.377  0.6826  0.2161 -0.0401
  191SLPC  H12R22115   2.969   5.057   7.322  0.0064 -0.1362  0.1608
  191SLPC  C21322116   2.992   5.168   7.499  0.8842 -0.4007 -0.4111
  191SLPC  H13R22117   3.070   5.093   7.520  1.3616 -0.2763 -1.6746
  191SLPC  C21422118   2.955   5.270   7.610  0.3071 -0.4530 -0.1780
  191SLPC  H14R22119   2.964   5.224   7.711 -2.6930 -2.3860 -0.6788
  191SLPC  H14S22120   2.853   5.314   7.603  0.6865  0.8941  1.7673
  191SLPC  C21522121   3.059   5.389   7.609 -0.4529  0.5796  0.3552
  191SLPC  H15R22122   3.057   5.444   7.512 -0.6404  0.3700  0.2390
  191SLPC  H15S22123   3.161   5.345   7.617 -0.3168  0.8270  0.0294
  191SLPC  C21622124   3.047   5.477   7.735 -0.4589 -0.0428  0.6612
  191SLPC  H16R22125   3.055   5.420   7.831 -1.5099  1.6824  1.8252
  191SLPC  H16S22126   2.947   5.526   7.730 -0.4922 -0.2143 -0.7276
  191SLPC  C21722127   3.145   5.593   7.731  0.3529  0.5324  0.6668
  191SLPC  H17R22128   3.135   5.658   7.642  1.1766 -1.9245 -1.3481
  191SLPC  H17S22129   3.248   5.551   7.740 -0.9913 -3.5777 -0.9235
  191SLPC  C21822130   3.109   5.688   7.842 -0.3523  0.1510 -0.2888
  191SLPC  H18R22131   3.173   5.778   7.830 -0.1424  0.2594  1.4105
  191SLPC  H18S22132   3.130   5.649   7.944 -0.8987  0.4884 -0.0447
  191SLPC  H18T22133   3.004   5.722   7.834 -0.4912 -0.6857 -3.4475
  191SLPC   C3322134   2.366   5.435   6.733  0.3569 -0.5109 -0.0391
  191SLPC   H3X22135   2.273   5.450   6.674 -0.5697 -3.6400  0.4169
  191SLPC   H3Y22136   2.430   5.522   6.706 -0.9671  1.0268  1.5066
  191SLPC   C3422137   2.344   5.451   6.878 -0.0537 -1.1331 -0.4067
  191SLPC   H4X22138   2.282   5.369   6.920 -2.3253  1.0108  0.6411
  191SLPC   H4Y22139   2.280   5.540   6.898  0.4621 -0.4913 -1.4893
  191SLPC   C3522140   2.478   5.466   6.959 -0.0207 -0.5110  0.4068
  191SLPC   H5X22141   2.503   5.574   6.946 -0.0493 -0.5439  0.0485
  191SLPC   H5Y22142   2.561   5.408   6.913  0.9901  1.1839 -0.0240
  191SLPC   C3622143   2.469   5.416   7.098  0.7258  0.3426 -0.5528
  191SLPC   H6X22144   2.563   5.431   7.155  1.9802 -1.3078 -2.1111
  191SLPC   H6Y22145   2.440   5.309   7.103 -1.0176  0.8143  0.4552
  191SLPC   C3722146   2.361   5.489   7.185  0.7562 -0.2390  0.1349
  191SLPC   H7X22147   2.268   5.507   7.126  0.8658  2.2742  0.6211
  191SLPC   H7Y22148   2.406   5.587   7.210  1.6559 -0.4161 -0.7097
  191SLPC   C3822149   2.330   5.418   7.320 -0.6593  0.0348 -0.2302
  191SLPC   H8X22150   2.269   5.329   7.295  1.1546 -0.9687 -1.3299
  191SLPC   H8Y22151   2.265   5.486   7.379  1.5583  0.5262  1.8182
  191SLPC   C3922152   2.453   5.403   7.406  0.1495  0.2000  0.0173
  191SLPC   H9X22153   2.517   5.493   7.395  0.1856  0.4522  1.9757
  191SLPC   H9Y22154   2.518   5.319   7.373 -0.4734  0.0594 -0.8795
  191SLPC  C31022155   2.424   5.379   7.552  0.1148 -1.5370 -0.2456
  191SLPC  H10X22156   2.365   5.287   7.567 -0.5241 -0.9473  1.0167
  191SLPC  H10Y22157   2.361   5.458   7.598  0.7477 -0.3005 -1.4327
  191SLPC  C31122158   2.556   5.371   7.639  0.0079 -0.3999 -0.1950
  191SLPC  H11X22159   2.603   5.471   7.623 -0.2888 -0.1022  0.7595
  191SLPC  H11Y22160   2.619   5.288   7.600 -0.1412  0.2500 -1.9043
  191SLPC  C31222161   2.536   5.335   7.785  0.7277 -0.3061 -0.0259
  191SLPC  H12X22162   2.489   5.234   7.793  1.1596 -0.6550 -1.5644
  191SLPC  H12Y22163   2.469   5.407   7.837 -0.2223  0.6627 -2.4592
  191SLPC  C31322164   2.667   5.318   7.857 -0.2101  0.9217  0.8131
  191SLPC  H13X22165   2.733   5.407   7.845  1.0132 -0.0040  0.5356
  191SLPC  H13Y22166   2.723   5.233   7.813  0.6009  2.3944 -1.1289
  191SLPC  C31422167   2.658   5.280   8.008  0.1277  0.0922  0.1008
  191SLPC  H14X22168   2.592   5.193   8.031 -0.7800  0.5787 -0.5880
  191SLPC  H14Y22169   2.591   5.359   8.047 -0.3029 -0.8939  1.4442
  191SLPC  C31522170   2.785   5.288   8.084  0.6676  0.3018 -0.0471
  191SLPC  H15X22171   2.869   5.224   8.049  1.1951  1.0227 -0.1206
  191SLPC  H15Y22172   2.760   5.260   8.189 -0.9598  1.1235 -0.1813
  191SLPC  C31622173   2.846   5.434   8.095  0.5834 -0.5651 -0.4983
  191SLPC  H16X22174   2.762   5.494   8.136  2.0891  0.3913  1.3217
  191SLPC  H16Y22175   2.869   5.464   7.990  1.9609 -3.1397 -1.0129
  191SLPC  C31722176   2.961   5.452   8.185 -0.1015 -0.5233  0.4604
  191SLPC  H17X22177   3.031   5.536   8.165 -1.9830  0.9489 -0.1596
  191SLPC  H17Y22178   3.021   5.359   8.174  2.9792  1.1827  1.4080
  191SLPC  C31822179   2.937   5.441   8.336 -0.2856  0.4846  0.6620
  191SLPC  H18X22180   2.872   5.527   8.364 -0.2006  0.2735  1.5206
  191SLPC  H18Y22181   3.034   5.446   8.391  0.6442  2.5573 -1.0049
  191SLPC  H18Z22182   2.891   5.344   8.363 -0.7260  0.6353  0.4568
  192SLPC     N22183   4.139   4.142   6.233 -0.2157  0.4059  0.9887
  192SLPC   C1322184   4.282   4.161   6.182  0.8195 -0.4327  0.0652
  192SLPC  H13A22185   4.289   4.164   6.075  2.2806 -0.0989  0.1497
  192SLPC  H13B22186   4.318   4.258   6.212 -0.7689  1.0963 -2.6570
  192SLPC  H13C22187   4.355   4.088   6.214  0.3241 -0.4307  1.2767
  192SLPC   C1422188   4.086   4.011   6.189  0.1265 -0.1676 -0.1545
  192SLPC  H14A22189   4.148   3.929   6.220 -0.6735 -0.9423 -0.5696
  192SLPC  H14B22190   3.982   4.004   6.217  0.2972  1.2390  0.9505
  192SLPC  H14C22191   4.083   4.009   6.081 -0.9445 -1.5652 -0.1338
  192SLPC   C1522192   4.049   4.244   6.171  0.3941  0.0588  0.0646
  192SLPC  H15A22193   3.947   4.238   6.207 -0.4235  1.1860 -1.8790
  192SLPC  H15B22194   4.087   4.342   6.192  1.0153  0.2405 -1.7150
  192SLPC  H15C22195   4.037   4.230   6.064  3.4294  0.2210 -0.3736
  192SLPC   C1222196   4.143   4.155   6.373 -0.0112  0.0982  0.3519
  192SLPC  H12A22197   4.210   4.080   6.413  0.6928  0.9529  0.8181
  192SLPC  H12B22198   4.051   4.133   6.425 -0.0012 -0.4266  0.1541
  192SLPC   C1122199   4.183   4.298   6.408  0.0157 -0.0061 -0.5112
  192SLPC  H11A22200   4.180   4.310   6.518  0.2979  1.9751 -0.6765
  192SLPC  H11B22201   4.102   4.370   6.383 -1.8520 -1.5511  0.8001
  192SLPC     P22202   4.363   4.482   6.401  0.0135 -0.0718  0.1967
  192SLPC   O1322203   4.499   4.498   6.350 -0.7614 -0.1332  0.4113
  192SLPC   O1422204   4.259   4.569   6.340 -0.1250  0.5344 -0.1786
  192SLPC   O1222205   4.320   4.330   6.378 -0.3482 -0.0835  0.7649
  192SLPC   O1122206   4.358   4.490   6.558 -0.0530  0.1815  0.2157
  192SLPC    C122207   4.269   4.576   6.625  0.0407 -0.4242  0.9270
  192SLPC    HA22208   4.164   4.559   6.593  0.2286  1.2263 -0.7162
  192SLPC    HB22209   4.275   4.555   6.734 -1.6905 -0.0555  1.1338
  192SLPC    C222210   4.302   4.729   6.607 -0.4170 -0.7240 -0.4957
  192SLPC    HS22211   4.303   4.752   6.498 -1.0162  0.1855 -0.3253
  192SLPC   O2122212   4.421   4.761   6.678  0.8838 -0.5198 -0.1789
  192SLPC   C2122213   4.487   4.861   6.627 -0.0107  0.1801  0.2437
  192SLPC   O2222214   4.446   4.931   6.532 -0.0854 -0.3818 -0.7517
  192SLPC   C2222215   4.625   4.873   6.682  0.4711 -0.4510  0.0110
  192SLPC   H2R22216   4.630   4.803   6.769  0.1649 -0.6158 -0.1026
  192SLPC   H2S22217   4.685   4.817   6.607 -0.2784 -1.0321 -0.1706
  192SLPC    C322218   4.188   4.818   6.661 -0.1340 -0.1461  0.0950
  192SLPC    HX22219   4.096   4.779   6.613 -1.5844  1.3731  1.4803
  192SLPC    HY22220   4.205   4.921   6.623  2.3086  0.0257  1.4533
  192SLPC   O3122221   4.191   4.816   6.809  0.0921 -0.5004 -0.1569
  192SLPC   C3122222   4.156   4.918   6.875  0.6085 -0.2359 -0.2736
  192SLPC   O3222223   4.111   5.025   6.831  0.6819 -0.0574 -0.6193
  192SLPC   C3222224   4.168   4.888   7.027  0.0012  0.9324  0.0394
  192SLPC   H2X22225   4.277   4.867   7.041 -0.0923 -0.7202 -1.3890
  192SLPC   H2Y22226   4.117   4.790   7.033  1.3837  0.2285  0.8712
  192SLPC   C2322227   4.659   5.022   6.717  0.1063 -0.0093  1.0954
  192SLPC   H3R22228   4.636   5.085   6.628  0.1032 -1.2271  0.2042
  192SLPC   H3S22229   4.769   5.027   6.728  0.0195  0.1171  1.9772
  192SLPC   C2422230   4.599   5.082   6.844 -0.3940  0.0053  0.7796
  192SLPC   H4R22231   4.490   5.093   6.830 -0.3911 -2.1465 -1.6330
  192SLPC   H4S22232   4.650   5.179   6.862 -1.4340  0.3796  1.7899
  192SLPC   C2522233   4.631   5.001   6.970  0.0804 -0.4134 -0.2435
  192SLPC   H5R22234   4.741   4.983   6.970  0.0496 -0.8319 -2.1649
  192SLPC   H5S22235   4.571   4.907   6.969 -2.4053  1.1063 -0.9253
  192SLPC   C2622236   4.592   5.073   7.103  0.4166 -0.2414  0.3382
  192SLPC   H6R22237   4.488   5.109   7.086  0.2346 -1.9174 -2.9564
  192SLPC   H6S22238   4.657   5.155   7.139  0.3091  0.4455 -1.0126
  192SLPC   C2722239   4.574   4.975   7.216 -0.1591  0.3159 -0.1342
  192SLPC   H7R22240   4.671   4.922   7.220 -0.3573 -0.0425 -0.1123
  192SLPC   H7S22241   4.496   4.898   7.201  1.7307 -1.4240 -1.4435
  192SLPC   C2822242   4.552   5.052   7.350  0.3862  0.0040  0.1127
  192SLPC   H8R22243   4.449   5.092   7.363  0.8545  0.8831  1.3114
  192SLPC   H8S22244   4.609   5.146   7.371  0.0326 -0.2170  2.2967
  192SLPC   C2922245   4.578   4.956   7.461 -0.0136 -0.0272 -0.0699
  192SLPC   H9R22246   4.633   4.869   7.422 -1.8426 -0.5593 -1.6164
  192SLPC  C21022247   4.547   4.965   7.588 -0.0971 -0.3549  0.1203
  192SLPC  H10R22248   4.596   4.893   7.655 -0.5493 -2.7376 -1.9790
  192SLPC  C21122249   4.474   5.081   7.648  0.1821  0.5744 -0.3421
  192SLPC  H11R22250   4.390   5.102   7.578 -1.1301  0.5457  1.1536
  192SLPC  H11S22251   4.532   5.175   7.645 -1.2274  1.4413 -1.5238
  192SLPC  C21222252   4.422   5.058   7.793  0.0382 -0.4709 -0.0306
  192SLPC  H12R22253   4.494   5.065   7.876  0.1104  4.0348 -0.2028
  192SLPC  C21322254   4.298   5.042   7.824 -0.0413 -1.0785  0.8865
  192SLPC  H13R22255   4.275   5.029   7.931 -0.7066  1.8659  1.1912
  192SLPC  C21422256   4.180   5.038   7.728 -0.2107 -0.2414 -0.1813
  192SLPC  H14R22257   4.178   4.946   7.666  0.3495 -0.4659  0.1242
  192SLPC  H14S22258   4.200   5.119   7.654 -0.9969  1.9907  1.9315
  192SLPC  C21522259   4.050   5.073   7.801  0.1751  0.2062  0.0557
  192SLPC  H15R22260   3.973   5.102   7.727  0.1600  0.7377  0.2743
  192SLPC  H15S22261   4.056   5.168   7.858 -0.8773  0.9679 -1.0593
  192SLPC  C21622262   4.000   4.956   7.887  0.1046 -0.2433  0.5339
  192SLPC  H16R22263   4.079   4.910   7.949  1.9512  0.2147 -1.3529
  192SLPC  H16S22264   3.959   4.875   7.823 -0.1494  1.3813 -1.4781
  192SLPC  C21722265   3.887   5.005   7.975 -0.3212 -0.2332 -0.4908
  192SLPC  H17R22266   3.933   5.059   8.061  1.2278 -3.1988  0.6973
  192SLPC  H17S22267   3.812   5.071   7.926 -2.4204 -1.2750  1.1376
  192SLPC  C21822268   3.806   4.890   8.033  0.5471  0.0815 -0.1220
  192SLPC  H18R22269   3.751   4.831   7.956 -0.7231 -2.1602  2.3508
  192SLPC  H18S22270   3.741   4.922   8.116  1.2695  1.8398 -0.1947
  192SLPC  H18T22271   3.876   4.810   8.066 -0.4029 -1.3041 -1.3408
  192SLPC   C3322272   4.100   4.986   7.125 -0.4108  0.2412 -0.6999
  192SLPC   H3X22273   4.037   5.054   7.063  0.1357 -0.5368 -2.1440
  192SLPC   H3Y22274   4.176   5.057   7.165  0.0734 -0.9119  0.4963
  192SLPC   C3422275   4.023   4.916   7.237  0.7845 -0.1912 -0.5278
  192SLPC   H4X22276   4.090   4.859   7.305 -1.0796 -1.5202  0.2803
  192SLPC   H4Y22277   3.952   4.838   7.200 -0.0946  0.9925 -1.4167
  192SLPC   C3522278   3.948   5.014   7.334  0.5681 -0.3863 -0.6470
  192SLPC   H5X22279   3.877   5.079   7.279  1.2454  0.6708 -0.2879
  192SLPC   H5Y22280   4.027   5.083   7.370 -1.1518  2.1729 -1.4804
  192SLPC   C3622281   3.869   4.944   7.444  0.1030 -0.1525 -0.3732
  192SLPC   H6X22282   3.918   4.908   7.537 -0.3374 -0.8298 -0.3920
  192SLPC   H6Y22283   3.838   4.849   7.394 -2.6027  0.8078 -0.6901
  192SLPC   C3722284   3.749   5.028   7.494 -0.5683  0.7602  0.4896
  192SLPC   H7X22285   3.681   5.058   7.411 -0.0985  0.6648  0.0666
  192SLPC   H7Y22286   3.793   5.122   7.532  1.4865  1.8066 -3.9032
  192SLPC   C3822287   3.660   4.967   7.600 -0.1065  0.5681  0.1142
  192SLPC   H8X22288   3.741   4.937   7.670  1.1000  2.2783 -0.5034
  192SLPC   H8Y22289   3.610   4.873   7.568  3.2027 -0.8374 -1.2883
  192SLPC   C3922290   3.559   5.066   7.662  0.1584 -0.0712 -0.5122
  192SLPC   H9X22291   3.489   5.094   7.580  1.2876 -0.7438 -1.7543
  192SLPC   H9Y22292   3.603   5.156   7.709 -2.3195  0.9158  0.0332
  192SLPC  C31022293   3.459   4.999   7.764 -0.1181  0.0270  0.0422
  192SLPC  H10X22294   3.507   4.956   7.855  2.2596 -0.1034 -1.1708
  192SLPC  H10Y22295   3.397   4.919   7.718 -1.1107 -0.7924  2.6298
  192SLPC  C31122296   3.345   5.098   7.814 -1.0181 -0.6749 -0.2871
  192SLPC  H11X22297   3.283   5.129   7.728 -2.4087 -1.6116  0.3508
  192SLPC  H11Y22298   3.376   5.190   7.869  0.0879  0.1909 -2.2276
  192SLPC  C31222299   3.242   5.029   7.908 -0.3637 -0.3431  0.6670
  192SLPC  H12X22300   3.296   4.948   7.961  2.5543  0.4141 -0.9399
  192SLPC  H12Y22301   3.178   4.975   7.835  1.0823 -1.5227  0.2225
  192SLPC  C31322302   3.163   5.119   8.008  0.8531 -0.4887  0.7863
  192SLPC  H13X22303   3.086   5.055   8.057 -1.3806  0.5090 -1.2091
  192SLPC  H13Y22304   3.126   5.203   7.945 -0.3923 -0.9921  0.8119
  192SLPC  C31422305   3.246   5.169   8.129  0.3422 -0.6682  0.2786
  192SLPC  H14X22306   3.197   5.262   8.165 -0.4370 -1.0568  0.2386
  192SLPC  H14Y22307   3.346   5.202   8.094  0.8758  0.3082  2.5312
  192SLPC  C31522308   3.256   5.064   8.234 -0.2887  0.3130 -0.1747
  192SLPC  H15X22309   3.303   4.976   8.185 -0.1187  0.4604 -0.2784
  192SLPC  H15Y22310   3.157   5.033   8.272  0.4932 -0.0672  1.6548
  192SLPC  C31622311   3.361   5.112   8.341 -0.7518 -0.6615 -0.0202
  192SLPC  H16X22312   3.456   5.142   8.293 -1.7583  0.5798 -1.3380
  192SLPC  H16Y22313   3.370   5.029   8.415  0.4955  1.5300  2.4116
  192SLPC  C31722314   3.303   5.247   8.413 -0.3192  0.8975 -0.4080
  192SLPC  H17X22315   3.193   5.233   8.428 -0.2007  1.7031  1.4891
  192SLPC  H17Y22316   3.321   5.327   8.339  0.7562  1.7764  0.7793
  192SLPC  C31822317   3.373   5.288   8.543 -0.4816 -0.2170  0.0746
  192SLPC  H18X22318   3.325   5.384   8.572 -0.1397  0.1366 -0.4908
  192SLPC  H18Y22319   3.482   5.309   8.546 -0.2385 -1.4497  0.6509
  192SLPC  H18Z22320   3.357   5.215   8.625 -0.5662 -1.2063 -0.8014
  193SOD    SOD22321   3.204   1.825   5.322 -0.2020  0.0883  0.5334
  194SOD    SOD22322   4.952   4.723  15.816  0.1250 -0.5623 -0.1297
  195SOD    SOD22323   6.843   6.503   6.464  0.6039  0.2702  0.1388
  196SOD    SOD22324   5.891   5.614   6.107 -0.2652  0.6554  0.3847
  197SOD    SOD22325   2.730   2.487  13.735 -0.2556  0.4401 -0.2154
  198SOD    SOD22326   2.847   0.602  11.914 -0.2759 -0.2470  0.1159
  199SOD    SOD22327   3.232   3.629  16.950 -0.5105  0.6096 -0.1761
  200SOD    SOD22328   1.854   3.106   4.316 -0.2270 -0.4624  0.0330
  201SOD    SOD22329   3.224   0.451   3.793  0.2757  0.0594  0.2420
  202SOD    SOD22330   0.397   5.030   4.316 -0.1400  0.5293 -0.5759
  203SOD    SOD22331   1.256   6.637   3.204  0.2000 -0.3538 -0.4798
  204SOD    SOD22332   6.070   4.294  14.357 -0.5017  0.1222  1.1294
  205SOD    SOD22333   3.917   1.988  13.653  0.2732  0.0766 -0.3706
  206SOD    SOD22334   5.338   3.719  10.381 -0.0715  0.3166 -0.3423
  207SOD    SOD22335   4.700   6.284  16.102  0.0096  0.0279 -0.3215
  208SOD    SOD22336   5.162   3.100   0.333 -0.2530  0.0382  0.1993
  209SOD    SOD22337   2.093   3.628   5.263 -0.5085 -0.3576  0.2218
  210SOD    SOD22338   5.651   5.813   0.366 -0.0228 -0.1602 -0.4949
  211SOD    SOD22339   3.308   0.704  15.104 -0.1269  0.9261  0.1578
  212SOD    SOD22340   6.275   5.468  16.896 -0.1532 -0.3827 -0.1341
  213SOD    SOD22341   0.986   2.790   6.087  0.4172 -0.2448  0.4371
  214SOD    SOD22342   2.168   2.083   0.438 -0.4443 -0.0168 -0.0277
  215SOD    SOD22343   6.503   4.703   2.920 -0.7773  0.6243  0.6412
  216SOD    SOD22344   6.061   3.254  12.357  0.2834  0.7080  0.0551
  217SOD    SOD22345   1.585   6.178  11.550 -0.0647  0.3120  0.2263
  218SOD    SOD22346   4.912   2.481   5.167 -0.0821  0.2554 -0.1581
  219SOD    SOD22347   0.361   4.543  15.837  0.1076  0.2452  0.1050
  220SOD    SOD22348   2.455   2.426  11.519  0.5922  0.3100  0.2603
  221SOD    SOD22349   0.684   3.010  16.239 -0.3498 -0.0707 -0.2454
  222SOD    SOD22350   0.290   4.385   0.079 -0.1076 -0.7705 -0.4426
  223SOD    SOD22351   3.688   3.533   3.758  0.4062 -0.0810 -0.0434
  224SOD    SOD22352   6.643   6.526   4.832 -0.2854  0.1952  0.4766
  225SOD    SOD22353   0.817   2.036   1.925 -0.5480 -0.3234 -0.2711
  226SOD    SOD22354   2.920   3.918   6.071  0.0085 -0.1368 -0.2594
  227SOD    SOD22355   6.333   3.833   1.143  0.3023 -0.2517 -0.0345
  228SOD    SOD22356   0.221   1.292   3.587  0.0716  0.0326 -0.1748
  229SOD    SOD22357   2.260   2.685   5.256 -0.3286  0.2469 -0.1934
  230SOD    SOD22358   5.059   3.182   5.473 -0.2164  0.0940  0.4781
  231SOD    SOD22359   6.637   0.453   3.820 -0.0723  0.2038 -0.2745
  232SOD    SOD22360   4.216   3.507  11.569  0.2356 -0.1855 -0.0655
  233SOD    SOD22361   5.256   4.386  15.217 -0.1419  0.0457 -0.2557
  234SOD    SOD22362   0.929   4.714  14.806 -0.3083 -0.3956 -0.5883
  235SOD    SOD22363   1.310   2.775  10.880  0.0087 -0.0335  0.3339
  236SOD    SOD22364   6.516   6.477   0.744 -0.0544 -0.4553  0.6705
  237SOD    SOD22365   0.481   1.261  10.462  0.2403  0.2444 -0.1592
  238SOD    SOD22366   0.661   6.521   5.546  0.6195 -0.0982 -0.2595
  239SOD    SOD22367   1.698   1.973   4.565  0.1983  0.0905  0.0823
  240SOD    SOD22368   4.354   3.646   1.648  0.4473 -0.0994 -0.1003
  241SOD    SOD22369   3.896   1.945   6.264  0.0766 -0.1909  0.7209
  242SOD    SOD22370   4.024   1.785   0.086 -0.0104  0.0747 -0.4299
  243SOD    SOD22371   2.862   3.903  12.233  0.5326 -0.0955  0.0546
  244SOD    SOD22372   2.568   0.462   5.144 -0.2537 -0.3521 -0.7331
  245SOD    SOD22373   3.076   2.104  10.602 -0.3660 -0.4880  0.4016
  246SOD    SOD22374   6.341   6.514  13.236  0.3564 -0.2992  0.0395
  247SOD    SOD22375   5.164   1.544  11.576 -0.0539 -0.3014 -0.0821
  248SOD    SOD22376   1.353   4.793  11.070  0.1285  0.0140 -0.0485
  249SOD    SOD22377   2.128   3.887  15.594 -0.1841  0.0604 -0.2971
  250SOD    SOD22378   1.195   0.534  16.452 -0.3188 -0.3528  0.5940
  251SOD    SOD22379   0.114   6.220  15.757 -0.2390 -0.1194 -0.4161
  252SOD    SOD22380   6.363   2.074   4.943 -0.0923 -0.4327 -0.2545
  253SOD    SOD22381   3.104   3.597  10.115 -0.2141  0.0412 -0.4157
  254SOD    SOD22382   4.877   4.167   4.778  0.0157 -0.4361  0.4040
  255SOD    SOD22383   1.595   2.173  15.113 -0.1732  0.0920  0.1443
  256SOD    SOD22384   5.311   6.100   3.699  0.1428  0.2639  0.0957
  257SOD    SOD22385   0.949   6.716  12.236 -0.0575  0.4472  0.2334
  258SOD    SOD22386   3.757   0.381  11.292 -0.1835 -0.0691  0.3683
  259SOD    SOD22387   2.248   5.997  13.481  0.1360  0.1730 -0.2933
  260SOD    SOD22388   5.366   0.995  14.559 -0.6752  0.1166 -0.8523
  261SOD    SOD22389   4.356   0.130   0.406 -0.0213 -0.6310  0.1307
  262SOD    SOD22390   1.702   3.572  11.880  0.3360  0.0050  0.4116
  263SOD    SOD22391   1.415   1.011   5.533  0.2299  0.0799  0.0018
  264SOD    SOD22392   6.703   1.102   1.315 -0.1433 -0.2718  0.1614
  265SOD    SOD22393   4.230   3.423  14.774  0.0272  0.3141 -0.1359
  266CLA    CLA22394   3.973   2.165  16.358 -0.1070  0.3084  0.3942
  267CLA    CLA22395   0.963   2.522   6.031 -0.2169 -0.2827  0.0788
  268CLA    CLA22396   1.855   0.275  15.495 -0.2761  0.1844  0.2451
  269CLA    CLA22397   4.839   2.136  13.706 -0.0439  0.0880 -0.2783
  270CLA    CLA22398   2.062   1.619  14.070 -0.1015  0.1226  0.2736
  271CLA    CLA22399   0.847   4.941  12.052  0.1121  0.4082  0.2293
  272CLA    CLA22400   6.469   3.023   4.832 -0.1970 -0.0425 -0.1852
  273CLA    CLA22401   4.117   6.714   0.686 -0.0864  0.2433  0.2353
  274CLA    CLA22402   0.766   2.838   1.409  0.0615  0.4740  0.1075
  275CLA    CLA22403   3.135   0.707  12.260 -0.1776 -0.3168 -0.4942
  276CLA    CLA22404   6.634   1.143   0.845  0.1087  0.3155 -0.1457
  277CLA    CLA22405   4.417   4.480  12.236  0.0299 -0.4443 -0.4143
  278CLA    CLA22406   6.079   5.778   4.157  0.4174  0.1698 -0.0701
  279CLA    CLA22407   5.492   3.011   1.469  0.0359  0.1737  0.1364
  280CLA    CLA22408   3.325   2.389   4.960  0.2790  0.2090 -0.1323
  281CLA    CLA22409   4.575   5.044  15.380  0.0159  0.0521 -0.2995
  282CLA    CLA22410   5.184   3.816   5.039 -0.2176  0.1478 -0.0353
  283CLA    CLA22411   0.594   5.804  16.911  0.0111  0.2976 -0.4805
  284CLA    CLA22412   5.440   3.977  14.554 -0.2618 -0.2038  0.4646
  285CLA    CLA22413   2.290   5.845   1.122  0.1136 -0.0083 -0.2194
  286CLA    CLA22414   2.090   2.254   4.455 -0.0760  0.1631  0.1180
  287CLA    CLA22415   4.937   0.925  13.791 -0.2809 -0.2211 -0.3339
  288CLA    CLA22416   0.624   2.553  14.546 -0.2042  0.0119  0.0612
  289CLA    CLA22417   5.585   2.046   2.901 -0.5002 -0.3080  0.0339
  290CLA    CLA22418   4.260   5.976  11.886  0.2367 -0.2818 -0.0118
  291CLA    CLA22419   0.621   4.140   2.842  0.3190 -0.2778  0.1817
  292CLA    CLA22420   4.401   6.749   1.673  0.4815  0.4817 -0.0143
  293CLA    CLA22421   4.529   4.487   3.874 -0.4749 -0.0157 -0.1665
  294CLA    CLA22422   3.523   2.820  11.681  0.0775  0.0652  0.1379
  295CLA    CLA22423   0.484   4.049   0.593  0.0474 -0.5595 -0.4250
  296CLA    CLA22424   6.520   0.873   5.081 -0.0480 -0.1254 -0.0978
  297CLA    CLA22425   6.574   1.958  12.980  0.6236 -0.2183  0.2291
  298CLA    CLA22426   4.129   2.025   5.444 -0.3749  0.3250  0.1967
  299CLA    CLA22427   0.160   3.703  16.460 -0.2060 -0.4538 -0.3372
  300CLA    CLA22428   4.967   5.570  15.453  0.3692 -0.5199  0.0607
  301CLA    CLA22429   5.331   5.115  12.549 -0.3259 -0.5695 -0.0273
  302CLA    CLA22430   2.806   3.663  13.828 -0.0109 -0.2429 -0.4641
  303CLA    CLA22431   2.158   5.989   2.542 -0.1429 -0.1406 -0.0595
  304CLA    CLA22432   6.047   3.131   2.703  0.0370  0.1269  0.4394
  305CLA    CLA22433   6.505   4.812   3.371 -0.0560  0.1486 -0.0030
  306CLA    CLA22434   3.386   0.240  15.674 -0.1211  0.4158  0.1121
  307CLA    CLA22435   5.258   0.071   4.598  0.3044 -0.4963  0.1123
  308CLA    CLA22436   6.411   1.584   0.094 -0.2418 -0.4613 -0.0747
  309CLA    CLA22437   5.771   5.703  13.385  0.5762 -0.3880 -0.2522
  310CLA    CLA22438   1.653   2.504  14.267 -0.0527 -0.1127  0.0646
  311CLA    CLA22439   6.106   5.284  15.807 -0.1381 -0.7795 -0.1813
  312CLA    CLA22440   1.358   6.460   3.628 -0.1693 -0.0110  0.2301
  313CLA    CLA22441   3.151   5.844   0.049  0.0008  0.3860 -0.0546
  314CLA    CLA22442   1.124   1.862   0.646  0.2143 -0.0795  0.1459
  315CLA    CLA22443   5.791   3.539  15.811  0.3368 -0.1744 -0.1014
  316CLA    CLA22444   2.341   2.520  12.064  0.2826  0.1544  0.1280
  317CLA    CLA22445   0.857   2.733   4.298  0.0404  0.6029  0.3477
  318CLA    CLA22446   1.611   2.951  12.596  0.1699 -0.2940  0.0022
  319TIP3   OH222447   3.205   4.846  13.186 -0.0171 -0.0044 -0.3197
  319TIP3    H122448   3.248   4.798  13.257  2.4216 -1.3833 -2.5708
  319TIP3    H222449   3.118   4.808  13.180  0.0603 -0.5102  1.2681
  320TIP3   OH222450   0.971   1.482  13.603 -0.2420  0.3509 -0.2397
  320TIP3    H122451   1.022   1.477  13.522 -0.6762  1.5383 -0.6051
  320TIP3    H222452   0.886   1.517  13.575 -0.6750  0.0033  0.6119
  321TIP3   OH222453   2.905   6.673   1.123 -0.0081 -0.2424  0.0350
  321TIP3    H122454   2.827   6.618   1.130  0.6173 -1.1467  0.0732
  321TIP3    H222455   2.925   6.673   1.030  0.5341 -0.8833  0.1375
  322TIP3   OH222456   3.018   4.911  17.179  0.1189  0.0514 -0.2674
  322TIP3    H122457   3.035   4.911  17.273  0.7363 -1.9890 -0.3239
  322TIP3    H222458   3.105   4.901  17.139  0.1071  2.7768 -1.1978
  323TIP3   OH222459   2.608   3.241  14.048 -1.0646 -0.3504 -0.3378
  323TIP3    H122460   2.622   3.176  14.116 -0.9739 -0.4862 -0.4869
  323TIP3    H222461   2.531   3.290  14.077 -0.5103  0.1652  0.3016
  324TIP3   OH222462   6.436   0.012   2.402 -0.6249  0.3559  0.4107
  324TIP3    H122463   6.414  -0.080   2.417 -0.2244  0.4765  1.9476
  324TIP3    H222464   6.437   0.051   2.490 -0.8185  1.8395 -0.2190
  325TIP3   OH222465   4.209   3.985  13.382 -0.3794 -0.4760  0.2913
  325TIP3    H122466   4.235   3.968  13.291 -0.0012 -0.8594  0.4702
  325TIP3    H222467   4.172   4.073  13.380 -0.2014 -0.4094 -0.2038
  326TIP3   OH222468   2.646   3.554   2.917 -0.2033 -0.4613  0.0224
  326TIP3    H122469   2.646   3.493   2.991 -0.1367  1.1232  1.3919
  326TIP3    H222470   2.553   3.569   2.899 -0.2570 -2.0646 -1.3407
  327TIP3   OH222471   3.773   5.004   2.769 -0.3110 -0.1971 -0.6776
  327TIP3    H122472   3.687   4.973   2.797 -0.1807  0.4318  0.4825
  327TIP3    H222473   3.771   4.998   2.674 -1.3079 -1.0402 -0.6151
  328TIP3   OH222474   6.126   0.229  13.672  0.4028 -0.1666  0.3062
  328TIP3    H122475   6.205   0.180  13.651 -0.2138 -0.1737 -2.2274
  328TIP3    H222476   6.071   0.222  13.595 -0.5590  2.8783  0.5574
  329TIP3   OH222477   5.174   2.997  12.433  0.2859  0.0103 -0.1457
  329TIP3    H122478   5.119   2.935  12.385  0.4644  0.6118 -1.1656
  329TIP3    H222479   5.137   2.999  12.521  0.2128 -1.4594 -0.1115
  330TIP3   OH222480   6.101   3.266  14.609  0.0320  0.3127  0.0694
  330TIP3    H122481   6.162   3.292  14.540  0.2413  1.6072  0.7061
  330TIP3    H222482   6.042   3.203  14.567  1.1396 -0.1474 -0.8392
  331TIP3   OH222483   0.990   6.351   1.068 -0.4036  0.2743  0.6639
  331TIP3    H122484   0.923   6.312   1.012  0.8833 -0.9410 -0.1186
  331TIP3    H222485   1.038   6.410   1.010  0.7080 -0.7141  0.5390
  332TIP3   OH222486   3.685   1.716  15.879  0.1263  0.2511 -1.0570
  332TIP3    H122487   3.643   1.754  15.957  2.2021  1.8291 -0.6139
  332TIP3    H222488   3.716   1.630  15.908  0.1374  0.4775 -0.3789
  333TIP3   OH222489   3.328   5.762   4.355  0.6695  0.0408  0.0727
  333TIP3    H122490   3.421   5.744   4.349  0.9089  1.6124 -2.4149
  333TIP3    H222491   3.322   5.841   4.409  0.9852  0.8293 -0.9943
  334TIP3   OH222492   0.406   4.374   4.953 -0.3729 -1.0970 -0.5268
  334TIP3    H122493   0.382   4.349   5.042  0.5815 -0.1112  0.0325
  334TIP3    H222494   0.323   4.387   4.907 -0.8715 -2.1020  0.0661
  335TIP3   OH222495   1.723   6.255  12.982  0.5993 -0.4203  0.2114
  335TIP3    H122496   1.677   6.229  13.062 -1.1338  1.1885 -0.2102
  335TIP3    H222497   1.731   6.174  12.932 -2.0765 -0.7581  0.1881
  336TIP3   OH222498   4.690   4.938  14.563  0.3050  0.2942 -0.2801
  336TIP3    H122499   4.785   4.936  14.548  0.1942 -0.8428 -0.9691
  336TIP3    H222500   4.670   5.030  14.578  1.1026  1.0124 -3.0459
  337TIP3   OH222501   4.025   5.444  14.190  0.0942 -0.2503  0.4528
  337TIP3    H122502   3.949   5.501  14.198 -0.1972 -0.5395 -0.2235
  337TIP3    H222503   4.080   5.485  14.123  0.1853 -0.4267  0.4174
  338TIP3   OH222504   2.593   6.271   3.283  0.1639  0.0850  0.3756
  338TIP3    H122505   2.532   6.285   3.210 -0.4607 -1.6686  0.5118
  338TIP3    H222506   2.545   6.215   3.344  0.8741  1.0829  1.9005
  339TIP3   OH222507   5.208   3.018   5.420  0.0703  0.0395  0.2065
  339TIP3    H122508   5.297   3.019   5.384  0.9868 -0.0791  2.3321
  339TIP3    H222509   5.191   2.926   5.440 -0.3869  0.1140  0.1622
  340TIP3   OH222510   4.858   2.944  11.136 -0.2960 -0.2214 -0.3071
  340TIP3    H122511   4.929   2.941  11.073  0.6226 -2.1513  0.7447
  340TIP3    H222512   4.889   2.893  11.211 -2.0283  0.5078  0.9973
  341TIP3   OH222513   1.014   3.161  11.695  0.5443 -0.1023  0.2699
  341TIP3    H122514   1.072   3.097  11.735  0.3625 -1.3733 -1.4114
  341TIP3    H222515   1.045   3.170  11.605  0.1050  1.6400  0.2440
  342TIP3   OH222516   2.990   0.035  14.652  0.1511  0.2605 -0.0903
  342TIP3    H122517   2.950  -0.036  14.600  1.0903 -0.5866  0.3205
  342TIP3    H222518   3.031  -0.009  14.726  1.6095  1.1224 -0.3452
  343TIP3   OH222519   2.469   1.689  12.596 -0.3889  0.0209 -0.3104
  343TIP3    H122520   2.494   1.762  12.540  0.3565  0.1945  0.2247
  343TIP3    H222521   2.430   1.730  12.674 -1.6218 -0.2235 -0.7799
  344TIP3   OH222522   3.449   2.141  13.343 -0.9311 -0.1439 -0.3178
  344TIP3    H122523   3.491   2.084  13.278 -0.6152 -0.7748  0.4222
  344TIP3    H222524   3.458   2.093  13.426 -0.8856  0.8702  0.2737
  345TIP3   OH222525   4.758   2.906   2.353  0.5602 -0.4573  0.4404
  345TIP3    H122526   4.678   2.866   2.386 -0.0967 -1.8802 -2.5403
  345TIP3    H222527   4.794   2.954   2.428 -2.5824 -0.4930  2.1140
  346TIP3   OH222528   5.416   5.508   0.615  0.0109 -0.2088 -0.0675
  346TIP3    H122529   5.376   5.507   0.528 -0.0817 -0.9570 -0.0233
  346TIP3    H222530   5.485   5.442   0.610  2.1669  1.9405 -0.5441
  347TIP3   OH222531   4.928   5.492   0.800  0.4832  0.2371  0.3175
  347TIP3    H122532   5.021   5.512   0.801  0.6844 -0.6340  1.4034
  347TIP3    H222533   4.894   5.538   0.723  1.3395  2.6132  1.2712
  348TIP3   OH222534   4.051   3.325  14.316 -0.1786 -0.0604  0.0840
  348TIP3    H122535   4.082   3.416  14.321 -0.4087  0.1864 -2.0528
  348TIP3    H222536   4.130   3.272  14.318  0.0353  0.2596  0.0944
  349TIP3   OH222537   1.675   3.347   5.407  0.1668  0.3275  0.1873
  349TIP3    H122538   1.676   3.275   5.470 -1.6591  0.2621  0.1839
  349TIP3    H222539   1.688   3.305   5.322 -1.6155 -0.1436  0.1046
  350TIP3   OH222540   4.069   1.971  11.046  0.2397  0.1496  0.6522
  350TIP3    H122541   4.058   1.932  10.959 -0.3910 -2.0706  1.6474
  350TIP3    H222542   4.163   1.963  11.064  0.5609  1.6200 -0.2196
  351TIP3   OH222543   0.631   6.439  16.731 -0.4814 -0.1646 -0.1534
  351TIP3    H122544   0.636   6.373  16.662  2.6438  2.1837 -2.4623
  351TIP3    H222545   0.712   6.488  16.723 -2.4450  3.7862  1.5993
  352TIP3   OH222546   3.678   3.160  15.273  0.1238  0.3152  0.0101
  352TIP3    H122547   3.678   3.218  15.196 -1.7196  0.7675  0.2874
  352TIP3    H222548   3.700   3.218  15.346  3.8540 -0.4771 -0.2913
  353TIP3   OH222549   5.393   6.039  14.237  0.4155  0.8349  0.2893
  353TIP3    H122550   5.394   5.955  14.284  2.6319 -0.5733 -2.0321
  353TIP3    H222551   5.477   6.078  14.258 -0.5205  2.4634  1.1847
  354TIP3   OH222552   0.021   0.259   5.294 -0.2060 -0.1071  0.4770
  354TIP3    H122553   0.040   0.316   5.219  0.3444  2.2659  2.2735
  354TIP3    H222554  -0.072   0.239   5.285 -0.8155  2.3844  0.4964
  355TIP3   OH222555   6.005   1.110  11.418  0.4015  0.0416  0.1975
  355TIP3    H122556   6.019   1.065  11.501  1.2946  0.3207  0.2050
  355TIP3    H222557   6.057   1.189  11.424 -0.3139  0.5577 -0.2412
  356TIP3   OH222558   1.961   2.652   0.428 -0.2364 -0.0678  0.0792
  356TIP3    H122559   1.993   2.634   0.340  1.8887 -0.9544  0.9423
  356TIP3    H222560   1.929   2.567   0.460  2.5480 -0.7229  1.4238
  357TIP3   OH222561   3.274   5.258   1.643 -0.2409 -0.6300 -0.3083
  357TIP3    H122562   3.317   5.242   1.559  0.3233 -1.4911  0.1247
  357TIP3    H222563   3.297   5.182   1.696  0.6222  0.5600  1.1083
  358TIP3   OH222564   5.342   2.694   1.635  0.0378 -0.6610  0.1457
  358TIP3    H122565   5.420   2.714   1.583 -0.1823  1.0536  0.4124
  358TIP3    H222566   5.278   2.661   1.571  0.7551 -1.4783 -0.1688
  359TIP3   OH222567   6.687   3.681  16.409  0.2771  0.0577 -0.1400
  359TIP3    H122568   6.696   3.649  16.499  0.4703  4.4066  1.6127
  359TIP3    H222569   6.777   3.696  16.380  0.2842 -2.3344 -1.6160
  360TIP3   OH222570   4.151   3.829  15.836  0.0327  0.2104 -0.5299
  360TIP3    H122571   4.164   3.900  15.773 -1.5419  0.0778 -1.0645
  360TIP3    H222572   4.076   3.780  15.801 -0.0394 -0.6519  0.7628
  361TIP3   OH222573   3.209   1.453  14.962  0.3508 -0.1518 -0.2731
  361TIP3    H122574   3.118   1.422  14.956  0.6684 -0.9059 -2.0618
  361TIP3    H222575   3.205   1.544  14.932  0.2398 -0.3587 -0.9187
  362TIP3   OH222576   5.857   3.483   3.328 -0.4184  0.0443  0.5406
  362TIP3    H122577   5.813   3.519   3.405 -0.8916 -0.6906  0.6229
  362TIP3    H222578   5.792   3.491   3.258 -0.2842 -0.0454  0.4066
  363TIP3   OH222579   3.146   1.215  13.770  0.5276 -0.2718 -0.4425
  363TIP3    H122580   3.156   1.191  13.678  2.6318 -1.0850 -0.0579
  363TIP3    H222581   3.088   1.148  13.806  1.0939 -0.9754 -0.8093
  364TIP3   OH222582   5.990   2.334   2.901 -0.0660 -0.4713  0.0972
  364TIP3    H122583   5.902   2.308   2.871 -1.1096 -0.0068  2.4903
  364TIP3    H222584   5.989   2.429   2.896  0.0754 -0.4376  0.6407
  365TIP3   OH222585   5.955   3.472   4.908 -0.0500  0.2392 -0.1017
  365TIP3    H122586   5.948   3.411   4.835  0.7931 -0.5346  0.4297
  365TIP3    H222587   5.892   3.440   4.973 -2.1730  2.0041 -1.1577
  366TIP3   OH222588   5.367   4.825   2.644 -0.2068  0.4002 -0.7284
  366TIP3    H122589   5.402   4.882   2.713 -1.5612 -0.9439  1.2022
  366TIP3    H222590   5.331   4.885   2.579 -1.0611  1.8086  0.9452
  367TIP3   OH222591   2.045   0.233   2.890 -0.5691 -0.0056 -0.5832
  367TIP3    H122592   2.139   0.249   2.889 -0.7718  1.2559 -2.1075
  367TIP3    H222593   2.008   0.306   2.940 -0.8409  0.0658 -0.8895
  368TIP3   OH222594   6.640   3.778  13.645 -0.1150  0.0864 -0.2667
  368TIP3    H122595   6.681   3.859  13.615 -0.0490 -0.5174 -1.8756
  368TIP3    H222596   6.564   3.767  13.587 -0.3036 -0.8352  0.1397
  369TIP3   OH222597   2.920   5.962  14.042  0.7269  0.2628 -0.0704
  369TIP3    H122598   3.006   5.999  14.063  0.5041  1.1612 -0.6972
  369TIP3    H222599   2.865   5.986  14.118  0.2722  2.3367 -0.9788
  370TIP3   OH222600   3.796   3.414  15.420  0.3932 -0.8180  0.1116
  370TIP3    H122601   3.809   3.499  15.378 -1.6790 -0.0247  0.9369
  370TIP3    H222602   3.874   3.363  15.397  0.9225  0.7338 -1.7660
  371TIP3   OH222603   5.814   1.871  17.097 -0.4634 -0.0716  0.5954
  371TIP3    H122604   5.798   1.893  17.188 -0.0285 -0.8419  0.8622
  371TIP3    H222605   5.907   1.892  17.083 -0.8772  1.4949 -0.1067
  372TIP3   OH222606   5.720   2.513  14.253  0.7119 -0.5547  0.2692
  372TIP3    H122607   5.773   2.575  14.302 -0.5520  0.5390  0.3117
  372TIP3    H222608   5.630   2.539  14.271  0.1750 -1.6593 -0.6846
  373TIP3   OH222609   0.558   3.699  16.310  0.0865 -0.4001  0.0386
  373TIP3    H122610   0.614   3.622  16.302  0.0176 -0.6024  1.3103
  373TIP3    H222611   0.510   3.702  16.227 -0.2407 -1.9922  0.1386
  374TIP3   OH222612   3.407   4.877   1.801  0.1295  0.1861 -0.1195
  374TIP3    H122613   3.384   4.967   1.825  0.2166  0.3147 -0.5084
  374TIP3    H222614   3.345   4.823   1.850  0.9686  0.3804  1.2157
  375TIP3   OH222615   0.828   4.936  14.836  0.0229 -0.4360  0.0377
  375TIP3    H122616   0.763   4.949  14.767 -0.0618 -1.9097 -0.1895
  375TIP3    H222617   0.886   5.012  14.828 -2.1334  1.3978  0.8400
  376TIP3   OH222618   2.089   4.493  15.066  0.5031 -0.0802  0.4201
  376TIP3    H122619   2.017   4.496  15.129  0.4959  0.2198  0.3995
  376TIP3    H222620   2.127   4.581  15.069 -1.3332  0.9042 -2.1401
  377TIP3   OH222621   0.940   0.230   3.632  0.2032 -0.2818  0.3350
  377TIP3    H122622   0.888   0.179   3.694 -0.3112 -0.2681 -0.0746
  377TIP3    H222623   0.980   0.299   3.685 -0.5103 -0.0588  0.6024
  378TIP3   OH222624   1.705   0.143  12.260 -0.1309 -0.6239  0.2421
  378TIP3    H122625   1.744   0.156  12.347  1.7029 -0.6619 -0.5323
  378TIP3    H222626   1.778   0.155  12.199 -1.6723  0.9808 -1.4229
  379TIP3   OH222627   2.413   5.191  17.132 -0.0923  0.2453 -0.2207
  379TIP3    H122628   2.423   5.097  17.145 -0.8577  0.0494 -0.9398
  379TIP3    H222629   2.422   5.229  17.220  0.0912 -0.5081  0.0922
  380TIP3   OH222630   2.314   3.965   5.411 -0.2580  0.1377  0.2508
  380TIP3    H122631   2.339   3.873   5.406 -0.2218  0.2112 -1.6954
  380TIP3    H222632   2.391   4.013   5.381 -0.2136  0.8296  1.4254
  381TIP3   OH222633   2.937   6.415  16.954  0.5707  0.0068  0.3261
  381TIP3    H122634   2.951   6.335  16.904 -1.1179 -1.1006  1.5244
  381TIP3    H222635   2.929   6.385  17.045 -1.0519  1.4106  0.6851
  382TIP3   OH222636   0.843   2.341  16.455 -0.4084  0.3665 -0.1127
  382TIP3    H122637   0.848   2.417  16.512 -2.3794  0.7713 -0.3839
  382TIP3    H222638   0.768   2.359  16.398  0.4645 -0.7777 -1.7118
  383TIP3   OH222639   3.431   4.267   5.583 -0.3289 -0.1190 -0.4567
  383TIP3    H122640   3.524   4.245   5.590 -0.5583 -0.9102  0.2750
  383TIP3    H222641   3.396   4.249   5.670 -1.1899  0.0800 -0.7573
  384TIP3   OH222642   1.355   6.576  16.160 -0.3506 -0.1257  0.4812
  384TIP3    H122643   1.358   6.571  16.256 -0.0870 -1.7100  0.4204
  384TIP3    H222644   1.262   6.577  16.139 -0.4105 -0.2007  0.7394
  385TIP3   OH222645   4.339   0.953  16.530  0.2309 -0.0257  0.5757
  385TIP3    H122646   4.319   0.995  16.613 -0.5806  1.2337 -0.2124
  385TIP3    H222647   4.313   1.018  16.464  0.2046 -1.2508 -0.6671
  386TIP3   OH222648   3.579   4.114  13.083 -0.0069 -0.0490  0.5283
  386TIP3    H122649   3.487   4.123  13.107 -0.0715  0.1586  0.2032
  386TIP3    H222650   3.595   4.184  13.020  0.9311  1.3034  2.1889
  387TIP3   OH222651   5.672   0.670   5.382  0.7949  0.2525 -0.2993
  387TIP3    H122652   5.602   0.605   5.391  1.4735 -0.5237 -0.4932
  387TIP3    H222653   5.701   0.688   5.471  0.8538  0.0070 -0.2695
  388TIP3   OH222654   2.230   0.724  14.861 -0.6708 -0.5557 -1.1322
  388TIP3    H122655   2.141   0.701  14.888 -0.8572  0.2427 -1.0307
  388TIP3    H222656   2.238   0.817  14.880  0.4979 -0.7953 -0.3289
  389TIP3   OH222657   1.887   1.536   0.409 -0.1235 -0.1914 -0.0956
  389TIP3    H122658   1.901   1.457   0.462 -2.5260 -1.0284 -0.6113
  389TIP3    H222659   1.976   1.569   0.393  0.8607 -1.8222  1.5446
  390TIP3   OH222660   3.152   5.417   5.035 -0.1223 -0.0909 -0.3673
  390TIP3    H122661   3.141   5.333   4.991 -0.5662 -0.0451 -0.3484
  390TIP3    H222662   3.067   5.460   5.028 -0.0876  0.0841  0.1907
  391TIP3   OH222663   4.096   0.313  12.981  0.5001 -0.1449 -0.0528
  391TIP3    H122664   4.044   0.377  12.932  1.3927  1.8551  1.4555
  391TIP3    H222665   4.105   0.239  12.921 -1.6428  0.5902 -1.4233
  392TIP3   OH222666   6.233   0.292   2.372 -0.1574 -0.8359  0.4547
  392TIP3    H122667   6.252   0.205   2.408 -0.5747  0.0475  3.0164
  392TIP3    H222668   6.141   0.308   2.395  0.2257  0.7105  1.0304
  393TIP3   OH222669   6.354   3.497  15.279  0.3339 -0.6533 -0.4391
  393TIP3    H122670   6.350   3.423  15.340  2.5934 -0.5395 -0.0650
  393TIP3    H222671   6.362   3.456  15.193  1.4115 -0.8949 -0.2466
  394TIP3   OH222672   1.764   0.109   2.976  0.3433 -0.0267  0.4241
  394TIP3    H122673   1.734   0.065   3.056  0.2335 -2.5560 -0.8991
  394TIP3    H222674   1.849   0.069   2.957  0.4758  0.7082 -0.5905
  395TIP3   OH222675   3.842   1.072  13.340  0.4467 -0.0509  0.4141
  395TIP3    H122676   3.838   1.150  13.395  0.8279  0.6019 -0.4710
  395TIP3    H222677   3.930   1.074  13.302  1.3150 -2.0991  2.0816
  396TIP3   OH222678   2.940   3.298  10.868  0.4683 -0.2600  0.3984
  396TIP3    H122679   2.994   3.370  10.900  2.0754 -1.0857 -0.2876
  396TIP3    H222680   2.956   3.227  10.929  0.3523 -0.5866  0.0549
  397TIP3   OH222681   1.939   4.571  11.379  0.1573  0.1515 -0.1947
  397TIP3    H122682   1.931   4.655  11.333  0.8737  0.3584  0.0508
  397TIP3    H222683   1.864   4.570  11.439  0.4325  0.8469  0.1636
  398TIP3   OH222684   1.207   1.267  12.179  0.5014  0.3748  0.2366
  398TIP3    H122685   1.234   1.180  12.208 -2.6938 -0.8204 -0.0166
  398TIP3    H222686   1.270   1.290  12.110  2.0260 -1.2342  1.0242
  399TIP3   OH222687   2.223   5.020  16.240 -0.3932  0.0515 -0.0543
  399TIP3    H122688   2.269   4.950  16.286  0.8867  0.7112 -0.2893
  399TIP3    H222689   2.290   5.087  16.225 -1.3818  0.9426 -0.6193
  400TIP3   OH222690   3.836   5.911   2.210 -0.7677 -0.4054 -0.7495
  400TIP3    H122691   3.917   5.902   2.260 -0.1895 -0.4636 -1.6728
  400TIP3    H222692   3.781   5.969   2.264 -0.8453 -1.8018  0.7359
  401TIP3   OH222693   1.861   5.565   1.961  0.4451 -0.1792 -0.3615
  401TIP3    H122694   1.841   5.476   1.933  0.9190 -0.0359 -1.1881
  401TIP3    H222695   1.786   5.617   1.932  0.1669 -0.3082  0.1241
  402TIP3   OH222696   6.427   0.344  11.318  0.1583  0.0491 -0.1916
  402TIP3    H122697   6.472   0.260  11.318 -1.2800 -0.7553  0.2986
  402TIP3    H222698   6.361   0.336  11.249  1.1858  1.4728 -1.4090
  403TIP3   OH222699   1.520   6.418  12.712 -0.3533 -0.1944  0.3719
  403TIP3    H122700   1.466   6.432  12.634  1.4086  1.6034 -0.6209
  403TIP3    H222701   1.464   6.441  12.785 -1.4030  0.1521 -0.5179
  404TIP3   OH222702   6.398   0.086   0.868  0.2193 -0.8881 -0.8252
  404TIP3    H122703   6.334   0.015   0.869  1.8203 -2.4793  1.7789
  404TIP3    H222704   6.480   0.044   0.843  0.7578  0.5802 -1.6493
  405TIP3   OH222705   2.664   0.840   2.198  0.2181 -0.0761  0.1581
  405TIP3    H122706   2.611   0.826   2.277  0.1189 -1.6792 -0.1478
  405TIP3    H222707   2.600   0.843   2.127  0.3914  0.0694  0.0106
  406TIP3   OH222708   5.983   4.995  10.419 -0.4381  0.0382 -0.1092
  406TIP3    H122709   5.964   4.936  10.345  0.6315  0.3287 -0.6399
  406TIP3    H222710   5.915   4.976  10.483 -0.6849 -1.0898 -0.6772
  407TIP3   OH222711   2.882   5.524   4.679 -0.7913  0.4441 -0.1554
  407TIP3    H122712   2.934   5.472   4.617 -1.4580 -0.9401  0.3874
  407TIP3    H222713   2.800   5.542   4.633 -0.6457  0.8415 -0.2631
  408TIP3   OH222714   2.868   3.207  17.060 -0.6816  0.3571 -0.1878
  408TIP3    H122715   2.828   3.289  17.089  1.0951  0.5539  1.9314
  408TIP3    H222716   2.916   3.175  17.136  1.1750 -1.1024 -1.8685
  409TIP3   OH222717   0.225   3.490  12.404  0.3748  0.7967 -0.1405
  409TIP3    H122718   0.199   3.431  12.474  0.8241  0.4439 -0.2721
  409TIP3    H222719   0.173   3.463  12.328 -0.4924  1.5068  0.1824
  410TIP3   OH222720   5.961   0.232  15.682 -0.6823  0.4600 -0.0106
  410TIP3    H122721   6.049   0.201  15.659 -1.4663 -0.2900 -2.1852
  410TIP3    H222722   5.938   0.182  15.760  0.1368 -0.6074 -0.4299
  411TIP3   OH222723   4.835   4.699   1.414  0.6299 -0.0678  0.6360
  411TIP3    H122724   4.805   4.674   1.501 -0.4977 -2.0540 -0.2645
  411TIP3    H222725   4.917   4.650   1.402  1.1002  0.6631  0.7766
  412TIP3   OH222726   5.335   0.007  16.405 -0.0104  0.5716  0.6998
  412TIP3    H122727   5.294  -0.046  16.337 -0.1811  2.4790 -0.7846
  412TIP3    H222728   5.298  -0.025  16.486 -2.7761  0.7168 -0.4114
  413TIP3   OH222729   5.730   1.458  10.822  0.4470 -0.3725  0.4954
  413TIP3    H122730   5.723   1.363  10.808 -0.8307 -0.1230 -0.9326
  413TIP3    H222731   5.651   1.493  10.781  0.4190  1.2507  1.8416
  414TIP3   OH222732   5.828   1.885   0.635 -0.3915  0.3730 -0.5196
  414TIP3    H122733   5.809   1.965   0.586  1.6122  1.8717  0.9573
  414TIP3    H222734   5.905   1.907   0.687 -0.6858 -2.0574  1.1083
  415TIP3   OH222735   1.612   3.299   0.070  0.3952  0.3898  0.1508
  415TIP3    H122736   1.607   3.209   0.103 -0.0763  0.1682 -0.5139
  415TIP3    H222737   1.704   3.311   0.045  0.4625  0.1013  0.2592
  416TIP3   OH222738   6.425   5.794  12.295  0.2796 -0.3749  0.6383
  416TIP3    H122739   6.416   5.819  12.203  1.0879  1.7796  1.0822
  416TIP3    H222740   6.499   5.847  12.327  0.2525 -1.3437  2.4423
  417TIP3   OH222741   4.130   4.533   5.749  0.2477 -0.0661 -0.0047
  417TIP3    H122742   4.066   4.600   5.772 -0.5415 -0.5068 -0.8336
  417TIP3    H222743   4.174   4.511   5.831 -0.0874  0.8345  0.4221
  418TIP3   OH222744   0.594   4.230  11.580  0.3542  0.1820  0.0737
  418TIP3    H122745   0.545   4.149  11.594  0.4331  0.0780 -0.2413
  418TIP3    H222746   0.540   4.282  11.522  0.3200  0.3410  0.2480
  419TIP3   OH222747   6.720   5.275   2.793  0.0581  0.2422 -0.3574
  419TIP3    H122748   6.809   5.269   2.827  0.1076  0.2801 -0.4792
  419TIP3    H222749   6.702   5.189   2.755 -0.4186 -0.1811  0.7921
  420TIP3   OH222750   4.485   4.777   3.773  0.2162  0.1522  0.1807
  420TIP3    H122751   4.497   4.819   3.858  0.3508 -0.0113  0.2428
  420TIP3    H222752   4.486   4.683   3.792  0.8290  0.0978 -0.0727
  421TIP3   OH222753   5.640   0.587  12.739 -0.3877 -0.1967  0.2096
  421TIP3    H122754   5.699   0.613  12.810  1.6077 -0.6339 -1.1810
  421TIP3    H222755   5.561   0.638  12.753  0.3315  0.4902  2.1438
  422TIP3   OH222756   2.162   3.149  14.422  0.0365  0.4613  0.2765
  422TIP3    H122757   2.205   3.193  14.495  1.3193  0.0211 -0.1759
  422TIP3    H222758   2.105   3.083  14.463 -2.8717  3.2034  1.0270
  423TIP3   OH222759   1.761   6.100  15.548 -0.2698 -0.4021 -0.6489
  423TIP3    H122760   1.792   6.010  15.546 -0.1985 -0.3658 -1.2508
  423TIP3    H222761   1.797   6.141  15.469  0.5721  0.4500  0.1501
  424TIP3   OH222762   2.496   5.815  14.814  0.5171 -0.1992  0.2152
  424TIP3    H122763   2.539   5.805  14.729  0.4084 -0.8021  0.2296
  424TIP3    H222764   2.425   5.751  14.813  0.0112  0.3457  0.4454
  425TIP3   OH222765   5.161   5.485   1.111  0.2991  0.4609 -0.3624
  425TIP3    H122766   5.200   5.520   1.030  1.4918 -2.5864 -1.2462
  425TIP3    H222767   5.236   5.468   1.168  0.4502 -4.0788 -1.5016
  426TIP3   OH222768   4.320   6.196   1.843  0.2950  0.0306 -0.0366
  426TIP3    H122769   4.246   6.178   1.784 -1.0902 -0.8282  1.8461
  426TIP3    H222770   4.319   6.291   1.854 -1.5631 -0.0845  1.1572
  427TIP3   OH222771   5.685   0.777  11.608  0.1206 -0.0916 -0.1666
  427TIP3    H122772   5.752   0.783  11.540 -0.9271  0.3195 -1.1956
  427TIP3    H222773   5.630   0.853  11.594 -1.7968 -1.5063 -0.7100
  428TIP3   OH222774   1.151   4.677   5.876 -0.4332 -0.3142  0.1325
  428TIP3    H122775   1.143   4.595   5.925 -0.0826  0.5679  1.7467
  428TIP3    H222776   1.243   4.680   5.849  0.1002  0.4605  1.8660
  429TIP3   OH222777   2.406   2.000   4.420  0.0900 -0.6134  0.5212
  429TIP3    H122778   2.315   1.990   4.449 -0.2959 -0.5646 -0.5957
  429TIP3    H222779   2.439   2.076   4.468 -1.1773  0.7475 -0.6715
  430TIP3   OH222780   0.317   6.184  16.374  0.2547 -0.4254 -0.4845
  430TIP3    H122781   0.230   6.146  16.358 -0.4201  0.6297  0.5206
  430TIP3    H222782   0.375   6.136  16.315 -1.2061 -0.3324 -2.0800
  431TIP3   OH222783   6.083   3.825   4.895  0.2612  0.2915 -0.1787
  431TIP3    H122784   6.026   3.811   4.820  0.7878 -0.1508 -0.4988
  431TIP3    H222785   6.080   3.743   4.944  0.4137  0.3586 -0.0537
  432TIP3   OH222786   5.610   5.175  12.697  0.0845  0.5947  0.4155
  432TIP3    H122787   5.517   5.164  12.681  0.3634 -1.4040 -0.1539
  432TIP3    H222788   5.635   5.252  12.646 -0.9489  0.1165 -0.8741
  433TIP3   OH222789   5.458   5.177   0.574 -0.0608  0.2250 -0.7782
  433TIP3    H122790   5.383   5.177   0.634  0.7893 -1.7013  0.3852
  433TIP3    H222791   5.475   5.084   0.557  2.8236  0.5314  0.0087
  434TIP3   OH222792   0.876   1.343   2.701  0.1963 -0.4358 -0.0553
  434TIP3    H122793   0.905   1.278   2.766 -0.5560  0.3284  1.0900
  434TIP3    H222794   0.936   1.416   2.712 -0.9803  0.4139  1.0637
  435TIP3   OH222795   5.635   4.059   1.619 -0.6449 -0.1342  0.5197
  435TIP3    H122796   5.551   4.052   1.574 -0.1087  0.2588 -0.5801
  435TIP3    H222797   5.654   4.153   1.623  1.1049 -0.2788 -1.9573
  436TIP3   OH222798   4.786   5.207   5.152 -0.2038  0.7080  0.1122
  436TIP3    H122799   4.732   5.146   5.102 -0.8116  2.1678 -1.1172
  436TIP3    H222800   4.744   5.212   5.238 -2.1995  1.9001 -0.8432
  437TIP3   OH222801   4.227   6.397  16.384 -0.1139  0.1900  0.3375
  437TIP3    H122802   4.244   6.302  16.387 -2.0006 -0.1739  0.9645
  437TIP3    H222803   4.180   6.410  16.302 -0.6502  0.4095  0.6723
  438TIP3   OH222804   1.547   5.689  13.907 -0.7551  0.6591  0.2168
  438TIP3    H122805   1.511   5.754  13.967 -2.1483  0.9926 -0.9225
  438TIP3    H222806   1.539   5.605  13.953 -2.1588  0.8594  0.3768
  439TIP3   OH222807   6.769   5.575   6.303  0.0436 -0.5737 -0.2820
  439TIP3    H122808   6.841   5.569   6.365  0.3573  1.4585 -0.3718
  439TIP3    H222809   6.691   5.553   6.354  0.2867  1.1370  0.9131
  440TIP3   OH222810   0.452   3.541   4.128 -0.4066  0.6803  0.3404
  440TIP3    H122811   0.361   3.542   4.099  0.1097 -1.9799 -1.7540
  440TIP3    H222812   0.457   3.469   4.191  0.1028  1.4731  1.2498
  441TIP3   OH222813   6.291   0.245  14.649 -0.3052 -0.0447  0.3784
  441TIP3    H122814   6.374   0.291  14.637  1.1869 -2.2759  1.4351
  441TIP3    H222815   6.294   0.173  14.587 -0.8792 -0.8630  1.2715
  442TIP3   OH222816   2.730   2.664   0.923  0.9111 -0.3450 -0.4509
  442TIP3    H122817   2.751   2.631   0.835  0.4893 -0.3440 -0.5552
  442TIP3    H222818   2.725   2.759   0.912  3.7270 -0.0096  0.1733
  443TIP3   OH222819   0.719   3.474  12.642 -0.3155 -0.3969  0.5900
  443TIP3    H122820   0.744   3.470  12.549  1.6142 -1.9525  1.1035
  443TIP3    H222821   0.626   3.455  12.642 -0.3978 -0.1831 -1.0349
  444TIP3   OH222822   0.578   3.185  15.857  0.0145 -0.3482 -0.3156
  444TIP3    H122823   0.493   3.142  15.871  0.5496 -1.2850  0.1732
  444TIP3    H222824   0.585   3.246  15.930  0.2906 -1.1552  0.3481
  445TIP3   OH222825   5.283   3.722   4.328  0.1722  0.2271  0.3134
  445TIP3    H122826   5.308   3.681   4.246 -0.8329  0.0046  0.1157
  445TIP3    H222827   5.355   3.783   4.346 -0.3519  1.4966 -1.5733
  446TIP3   OH222828   3.728   1.485   2.104  0.5049  0.4629 -0.6398
  446TIP3    H122829   3.647   1.433   2.106  0.0845  0.8486 -3.5260
  446TIP3    H222830   3.703   1.570   2.140 -0.0152  0.1436 -0.2419
  447TIP3   OH222831   5.495   1.001   5.228 -0.3028 -0.7076 -0.1120
  447TIP3    H122832   5.441   0.924   5.246  0.5574 -1.3381 -0.1548
  447TIP3    H222833   5.491   1.053   5.308  0.1513 -1.4427  0.3944
  448TIP3   OH222834   1.091   2.873  11.336 -1.0275  0.7364 -0.4601
  448TIP3    H122835   1.062   2.960  11.362 -1.0874 -0.0537  2.5301
  448TIP3    H222836   1.177   2.863  11.379 -0.5014 -0.2792 -1.6899
  449TIP3   OH222837   1.919   6.645   2.682  0.1966 -0.1277 -0.1628
  449TIP3    H122838   1.940   6.738   2.683 -1.0557  0.1670 -0.0794
  449TIP3    H222839   1.825   6.641   2.696  0.3685 -1.4566  0.8334
  450TIP3   OH222840   0.918   3.265   2.629 -0.0379  0.2184 -0.6024
  450TIP3    H122841   0.976   3.313   2.689 -0.1959  1.2856 -1.2835
  450TIP3    H222842   0.833   3.308   2.640 -0.7520 -1.3623  0.4221
  451TIP3   OH222843   3.267   3.633   3.515  0.4811  0.0716 -0.1379
  451TIP3    H122844   3.340   3.640   3.577  1.3554  1.3640 -1.2781
  451TIP3    H222845   3.304   3.588   3.439 -0.4980 -1.2046  0.1068
  452TIP3   OH222846   2.973   2.232  14.119 -0.5949 -0.3217 -0.5019
  452TIP3    H122847   3.057   2.271  14.144 -1.3255  1.1210 -0.1275
  452TIP3    H222848   2.941   2.190  14.198 -0.0483 -1.2246 -0.7558
  453TIP3   OH222849   6.505   6.189   0.281  0.5147  0.3120  0.0973
  453TIP3    H122850   6.555   6.115   0.314  1.3287  0.2473 -1.2261
  453TIP3    H222851   6.564   6.264   0.288  0.7358  0.2836 -1.2380
  454TIP3   OH222852   1.036   6.436   5.357 -0.6950  0.6060  0.2782
  454TIP3    H122853   0.976   6.501   5.395  0.0926  1.1846  0.5473
  454TIP3    H222854   1.055   6.469   5.269 -2.5883 -0.7790 -0.7254
  455TIP3   OH222855   2.767   3.816  10.198  0.3507 -0.3740 -0.3863
  455TIP3    H122856   2.732   3.837  10.112  0.6044 -2.5364 -1.0747
  455TIP3    H222857   2.690   3.817  10.256 -0.1898 -0.9986 -1.0731
  456TIP3   OH222858   6.836   1.226   2.286 -0.2255 -0.0400  0.0295
  456TIP3    H122859   6.870   1.238   2.375 -1.0526 -0.3445  0.4005
  456TIP3    H222860   6.894   1.160   2.247 -0.0943 -0.2014  0.4829
  457TIP3   OH222861   5.670   4.289   5.349 -0.2270  0.1902  0.3941
  457TIP3    H122862   5.606   4.220   5.332 -0.5390  0.7369 -0.8288
  457TIP3    H222863   5.663   4.347   5.272  0.9872  0.8334  0.7407
  458TIP3   OH222864   3.267   1.551   4.898  0.1386 -0.3761 -0.6904
  458TIP3    H122865   3.312   1.592   4.824  0.3249  0.2762 -0.2338
  458TIP3    H222866   3.312   1.467   4.910  0.0186 -0.5457 -1.3951
  459TIP3   OH222867   4.876   3.594  14.565  0.2580  0.7394 -0.3198
  459TIP3    H122868   4.906   3.681  14.590  1.2146  0.4561 -0.4560
  459TIP3    H222869   4.856   3.550  14.648  1.6627  0.4309 -0.1153
  460TIP3   OH222870   1.149   3.103  13.052  0.1392  0.3401  0.0727
  460TIP3    H122871   1.062   3.138  13.069 -0.4446 -0.4400 -1.2070
  460TIP3    H222872   1.206   3.180  13.048 -0.5125  0.8597  0.7617
  461TIP3   OH222873   2.856   5.117  11.725 -0.2209  0.1535 -0.2227
  461TIP3    H122874   2.843   5.209  11.751 -1.2466  0.4750 -1.7260
  461TIP3    H222875   2.775   5.094  11.678 -0.2301 -1.7271  0.6532
  462TIP3   OH222876   3.875   2.505  13.210 -0.0181  0.0044  0.6757
  462TIP3    H122877   3.943   2.571  13.196 -2.0913  2.1220 -0.1112
  462TIP3    H222878   3.807   2.527  13.145 -0.7399 -3.0452  0.2661
  463TIP3   OH222879   3.897   2.138  13.968  0.1067 -0.4652  0.4627
  463TIP3    H122880   3.892   2.044  13.951 -0.0670 -0.5116  0.7582
  463TIP3    H222881   3.991   2.157  13.970  0.2151 -1.0216  2.4655
  464TIP3   OH222882   2.994   4.107  16.270  0.8043  0.7563  0.5001
  464TIP3    H122883   3.005   4.031  16.327  1.1458  0.7405  0.4130
  464TIP3    H222884   2.948   4.073  16.193  0.5314  0.7354  0.6681
  465TIP3   OH222885   5.705   4.085  16.734  0.1153 -0.5019  0.2488
  465TIP3    H122886   5.616   4.071  16.767 -0.5808 -0.3051 -1.4126
  465TIP3    H222887   5.692   4.120  16.646  1.8515 -0.6818 -0.1127
  466TIP3   OH222888   6.008   5.767  12.657 -0.2576 -0.2154  0.5332
  466TIP3    H122889   6.101   5.779  12.638 -0.7968  1.2337 -1.6181
  466TIP3    H222890   5.999   5.792  12.749  0.9870  3.1307 -0.0950
  467TIP3   OH222891   5.916   5.450   0.831 -0.7097 -0.1328  0.6460
  467TIP3    H122892   5.913   5.461   0.926 -0.9370 -1.2840  0.7918
  467TIP3    H222893   5.825   5.433   0.806 -0.9052  1.7278 -0.0055
  468TIP3   OH222894   1.398   5.871  14.054 -0.4341  0.5833 -0.4732
  468TIP3    H122895   1.304   5.850  14.048 -0.6202  1.3974 -0.6496
  468TIP3    H222896   1.411   5.896  14.145 -0.9136  2.6579 -0.9106
  469TIP3   OH222897   5.991   2.057  11.213  0.0625  0.5578  0.6213
  469TIP3    H122898   6.022   1.969  11.190 -0.3447  0.2927  1.0518
  469TIP3    H222899   5.984   2.103  11.130 -1.7187 -0.4916  0.1302
  470TIP3   OH222900   6.719   0.448  12.449 -0.6436  0.2721 -0.4592
  470TIP3    H122901   6.667   0.501  12.389 -1.3586  1.1548  0.8887
  470TIP3    H222902   6.765   0.512  12.504  0.0660 -0.5114 -0.1169
  471TIP3   OH222903   3.627   5.662  15.140  0.4299 -0.2648 -0.3998
  471TIP3    H122904   3.628   5.753  15.112 -1.9003 -0.0282  0.1464
  471TIP3    H222905   3.536   5.634  15.133  0.7245 -1.9444  1.3544
  472TIP3   OH222906   0.475   2.012   4.401  0.4373 -0.2713 -0.3691
  472TIP3    H122907   0.530   1.939   4.431  0.4334  0.2657  0.9970
  472TIP3    H222908   0.428   2.040   4.479 -0.3424  0.5394 -1.1090
  473TIP3   OH222909   6.303   0.539   3.286 -0.9127 -0.0981  0.4671
  473TIP3    H122910   6.243   0.543   3.211  0.3488 -0.8405 -0.6227
  473TIP3    H222911   6.329   0.447   3.291 -1.2925 -0.1405  2.1007
  474TIP3   OH222912   1.767   6.282  14.378  0.0803  0.0267  0.1428
  474TIP3    H122913   1.778   6.312  14.288 -0.7521  0.1927  0.0899
  474TIP3    H222914   1.762   6.362  14.430 -1.0469 -0.0148  0.1317
  475TIP3   OH222915   6.245   2.641   4.386  0.1024  0.1178  0.2620
  475TIP3    H122916   6.250   2.562   4.332 -2.2532 -0.6253  0.9962
  475TIP3    H222917   6.289   2.616   4.468  0.0163 -0.1981  0.2155
  476TIP3   OH222918   3.215   5.980  13.197 -0.8808 -0.2230 -1.2856
  476TIP3    H122919   3.303   6.009  13.172 -1.1948 -0.1982 -2.4230
  476TIP3    H222920   3.162   5.996  13.119 -2.0369  0.3523 -0.4070
  477TIP3   OH222921   5.859   3.077   4.911  0.3514  0.0960  0.4369
  477TIP3    H122922   5.835   2.988   4.885  1.3530  0.0939 -0.5577
  477TIP3    H222923   5.941   3.067   4.959  0.0816  0.4130  0.9643
  478TIP3   OH222924   4.233   4.213  11.779  0.2462  0.1624 -0.3545
  478TIP3    H122925   4.207   4.302  11.754 -0.5602  0.1000  0.2015
  478TIP3    H222926   4.195   4.201  11.866  1.6735 -0.1720  0.2380
  479TIP3   OH222927   4.350   4.838   3.276  0.8092 -0.6238 -0.9515
  479TIP3    H122928   4.258   4.816   3.261  0.5894 -0.5098  0.1512
  479TIP3    H222929   4.387   4.759   3.315  0.7114 -0.0615  0.3418
  480TIP3   OH222930   6.264   2.077  16.525  0.0912 -0.5797  0.3480
  480TIP3    H122931   6.289   1.985  16.513  0.1687 -0.4132 -0.8942
  480TIP3    H222932   6.169   2.078  16.515  0.1989 -0.3764 -0.7939
  481TIP3   OH222933   5.826   6.408   5.971  0.4127 -0.1560 -0.0358
  481TIP3    H122934   5.811   6.468   6.045 -0.4725 -0.9418  0.4524
  481TIP3    H222935   5.809   6.321   6.008  1.1829 -0.6617 -0.8618
  482TIP3   OH222936   5.788   5.034  16.684  0.2644 -0.1073 -0.0788
  482TIP3    H122937   5.708   4.995  16.648 -0.8073  0.5599  1.4281
  482TIP3    H222938   5.851   5.030  16.613 -1.2038 -0.4009 -1.4314
  483TIP3   OH222939   5.584   3.333   3.833  0.2415 -0.2073 -0.0082
  483TIP3    H122940   5.570   3.372   3.747  1.1527 -0.2703 -0.1972
  483TIP3    H222941   5.513   3.366   3.887 -0.4068 -0.2609 -0.8192
  484TIP3   OH222942   4.433   3.741   3.902 -0.1498 -0.2613 -0.9772
  484TIP3    H122943   4.483   3.677   3.953 -0.5923 -0.4976 -0.8309
  484TIP3    H222944   4.379   3.786   3.966  1.6294  1.7136 -0.7586
  485TIP3   OH222945   1.321   6.073  12.087  0.5486 -0.5237  0.3184
  485TIP3    H122946   1.306   6.007  12.020 -1.3133 -1.0975  1.2172
  485TIP3    H222947   1.356   6.024  12.162  1.8680 -0.0137  0.0594
  486TIP3   OH222948   3.653   5.476   5.810 -0.3693  0.1664 -0.5061
  486TIP3    H122949   3.572   5.492   5.858  0.2260  0.4482  0.4414
  486TIP3    H222950   3.702   5.414   5.866  0.5091  0.8058 -0.5414
  487TIP3   OH222951   0.878   2.700   0.333  0.3184 -1.0937 -0.1642
  487TIP3    H122952   0.802   2.657   0.373  0.8008 -1.9072 -0.1047
  487TIP3    H222953   0.949   2.685   0.396  0.6511 -0.7932 -0.4683
  488TIP3   OH222954   1.475   1.318  12.527  0.3244 -0.3913 -0.3160
  488TIP3    H122955   1.430   1.244  12.487  0.2294  0.0524 -1.0398
  488TIP3    H222956   1.404   1.372  12.563  0.4426 -1.2308  1.2850
  489TIP3   OH222957   4.879   2.551  14.195 -0.4685 -0.0467 -0.1539
  489TIP3    H122958   4.874   2.466  14.153 -2.0735 -0.1713  0.2165
  489TIP3    H222959   4.787   2.580  14.202 -0.2804  0.0982  2.9316
  490TIP3   OH222960   2.719   5.640   6.029 -0.2896 -0.0656  0.2091
  490TIP3    H122961   2.671   5.722   6.016  0.3373  0.5262  1.4546
  490TIP3    H222962   2.664   5.590   6.090 -1.4290 -1.2706 -1.7063
  491TIP3   OH222963   4.556   0.352  11.032  0.0673  0.0106  0.3253
  491TIP3    H122964   4.547   0.446  11.013  0.5165  0.2630  1.2905
  491TIP3    H222965   4.487   0.311  10.980 -0.5794  0.9487  0.4106
  492TIP3   OH222966   6.332   6.404   3.729  0.7689  0.2439  0.2955
  492TIP3    H122967   6.414   6.369   3.765  0.7523  1.4686  1.6138
  492TIP3    H222968   6.284   6.434   3.806  0.5969  2.7469 -0.7061
  493TIP3   OH222969   5.477   2.169  12.467 -0.3858  0.2209 -0.3489
  493TIP3    H122970   5.554   2.223  12.445 -1.8513  2.1841 -0.9132
  493TIP3    H222971   5.505   2.119  12.544  1.5304  0.6871 -0.6764
  494TIP3   OH222972   0.638   4.266  12.255  0.3054  0.6937 -0.6566
  494TIP3    H122973   0.591   4.198  12.206  0.8351  1.6620 -2.5924
  494TIP3    H222974   0.658   4.333  12.190 -1.1813  3.3079  1.3563
  495TIP3   OH222975   3.478   5.470   4.625  0.2781 -0.1982 -0.0642
  495TIP3    H122976   3.435   5.449   4.543  0.5840 -0.0335 -0.2705
  495TIP3    H222977   3.571   5.476   4.602  0.3092  0.3447  0.1923
  496TIP3   OH222978   2.478   6.757  16.817  0.0125 -0.1760  0.4130
  496TIP3    H122979   2.566   6.721  16.808 -0.4638 -1.0348 -1.1652
  496TIP3    H222980   2.437   6.702  16.884  0.3294 -0.4411  0.3945
  497TIP3   OH222981   6.671   3.528   6.163  0.1262  0.1967  0.1881
  497TIP3    H122982   6.738   3.487   6.217 -0.6619  1.9492  2.7244
  497TIP3    H222983   6.588   3.496   6.199 -0.4364  1.7846  0.4197
  498TIP3   OH222984   3.584   2.765   0.534 -0.0775  0.0109  0.3707
  498TIP3    H122985   3.633   2.750   0.453 -0.8461 -2.2673  0.2479
  498TIP3    H222986   3.519   2.831   0.512  0.0789 -0.1912 -0.7149
  499TIP3   OH222987   1.565   0.830  17.059 -0.0748 -0.6078 -0.2020
  499TIP3    H122988   1.477   0.819  17.095 -0.1632 -0.2955 -0.3214
  499TIP3    H222989   1.621   0.837  17.137  0.0666 -2.3826 -0.0998
  500TIP3   OH222990   2.695   5.506   3.201  0.4350 -0.0616 -0.1549
  500TIP3    H122991   2.785   5.516   3.231 -0.3593  1.6432  1.9172
  500TIP3    H222992   2.700   5.438   3.134  3.1052 -0.6357  0.4918
  501TIP3   OH222993   2.029   4.306  15.407  0.4797  0.4363  0.4765
  501TIP3    H122994   1.985   4.386  15.379 -0.4066  0.2912  1.3982
  501TIP3    H222995   2.104   4.337  15.458  1.9375  0.6997 -1.6486
  502TIP3   OH222996   6.127   3.524   5.392  0.1618 -0.3160 -0.1020
  502TIP3    H122997   6.133   3.612   5.354  3.5147 -1.4616 -2.7513
  502TIP3    H222998   6.186   3.527   5.468 -0.8437  0.0574  0.6792
  503TIP3   OH222999   2.075   2.397   1.551 -0.0210  0.4641 -0.2302
  503TIP3    H123000   1.992   2.445   1.545  0.6106  1.6388  0.0950
  503TIP3    H223001   2.142   2.462   1.528  0.7201 -0.8599 -2.0294
  504TIP3   OH223002   4.343   0.420  11.551  0.3595  0.0785  0.3333
  504TIP3    H123003   4.434   0.445  11.561  0.2861  0.3427  0.3530
  504TIP3    H223004   4.335   0.398  11.458  0.4808 -0.1047  0.3653
  505TIP3   OH223005   4.510   3.352   3.926  0.8571  0.0294  0.4498
  505TIP3    H123006   4.542   3.293   3.994  2.2005 -1.9822 -1.7561
  505TIP3    H223007   4.589   3.378   3.877 -0.0900  1.0293 -0.6268
  506TIP3   OH223008   4.209   3.887  12.633 -0.3389 -0.1708 -0.6906
  506TIP3    H123009   4.197   3.793  12.623  1.8919 -0.3626 -2.0940
  506TIP3    H223010   4.220   3.920  12.544 -1.6277  1.5368 -0.2704
  507TIP3   OH223011   0.225   1.523   3.544  0.4024 -0.2077  0.4545
  507TIP3    H123012   0.229   1.584   3.470  0.3512  0.1328  0.7274
  507TIP3    H223013   0.238   1.579   3.621  0.3452 -0.5440  0.7083
  508TIP3   OH223014   0.967   1.540   2.363 -0.1399  0.7751 -0.2112
  508TIP3    H123015   1.039   1.592   2.327 -0.9384  0.4759 -2.4176
  508TIP3    H223016   0.997   1.449   2.355 -0.2292  0.7140  0.1336
  509TIP3   OH223017   0.095   2.791   4.507  0.1171 -0.0299 -0.3173
  509TIP3    H123018   0.016   2.799   4.560 -0.2736 -2.7775 -0.3536
  509TIP3    H223019   0.080   2.851   4.433 -0.1412  2.4220  1.6051
  510TIP3   OH223020   3.416   1.399   3.376  0.1205  0.2461  0.8051
  510TIP3    H123021   3.350   1.438   3.319  0.4109  0.8608  0.8693
  510TIP3    H223022   3.457   1.331   3.323 -2.4497 -2.1884  1.6762
  511TIP3   OH223023   6.126   0.137  16.568 -0.7255  0.4426  0.2727
  511TIP3    H123024   6.105   0.063  16.511 -0.4462  0.3475  0.2926
  511TIP3    H223025   6.041   0.168  16.600 -0.7401 -1.7803  2.6971
  512TIP3   OH223026   0.916   5.675  12.914  0.3978 -0.3315  0.0034
  512TIP3    H123027   0.901   5.759  12.956  0.5029 -0.7849  0.9935
  512TIP3    H223028   0.891   5.688  12.823  1.0272  0.9436 -0.0036
  513TIP3   OH223029   3.392   5.284  14.342  0.3564  0.0435 -0.5631
  513TIP3    H123030   3.475   5.263  14.300 -0.3159 -0.1393 -1.8672
  513TIP3    H223031   3.344   5.201  14.343 -0.6044  0.5534 -1.7362
  514TIP3   OH223032   5.647   5.064   3.404  0.3037 -0.3102  0.3157
  514TIP3    H123033   5.663   4.989   3.347  0.4792 -0.0977  0.0819
  514TIP3    H223034   5.731   5.079   3.448  0.4891  0.2104 -0.1990
  515TIP3   OH223035   3.925   5.265   0.425 -0.2370 -0.6838  0.0193
  515TIP3    H123036   3.859   5.260   0.356 -0.6527  0.2247  0.3471
  515TIP3    H223037   3.878   5.295   0.503  0.6346  0.4891  0.1324
  516TIP3   OH223038   3.309   3.464  13.760  0.5696 -0.0508 -0.1721
  516TIP3    H123039   3.367   3.408  13.811  0.8164  1.0744  0.8081
  516TIP3    H223040   3.240   3.405  13.729  1.5551 -1.1578 -0.3172
  517TIP3   OH223041   6.679   0.786   0.047  0.2118  0.1051 -0.1290
  517TIP3    H123042   6.605   0.838   0.019  0.5491  0.4627 -0.3688
  517TIP3    H223043   6.746   0.801  -0.020  0.1974 -0.9052 -0.3883
  518TIP3   OH223044   4.199   4.058  14.090  0.0126  0.3649  0.2080
  518TIP3    H123045   4.255   4.125  14.128  0.2854  0.4542 -0.3520
  518TIP3    H223046   4.247   3.976  14.102  0.2105  0.4271 -0.1754
  519TIP3   OH223047   5.983   1.450  12.227  0.2048 -0.6438  0.3336
  519TIP3    H123048   5.890   1.440  12.243  0.1048 -1.4184 -0.6493
  519TIP3    H223049   6.011   1.516  12.290 -1.9296  3.2814 -2.4176
  520TIP3   OH223050   0.041   6.352  16.771 -0.5929 -0.3456  0.4477
  520TIP3    H123051  -0.048   6.364  16.804 -0.4773  0.2077  0.5653
  520TIP3    H223052   0.094   6.410  16.825 -0.0328 -1.2962  0.9384
  521TIP3   OH223053   6.127   4.993  15.262  0.0655 -0.8406  0.6287
  521TIP3    H123054   6.089   5.080  15.273  0.8575 -0.3515 -0.3440
  521TIP3    H223055   6.196   4.988  15.328  1.6087  0.2291 -0.8124
  522TIP3   OH223056   1.207   4.100   6.069 -0.1596 -0.5968  0.2433
  522TIP3    H123057   1.246   4.101   6.156 -0.9004  0.6169  0.6028
  522TIP3    H223058   1.180   4.191   6.055 -0.4386 -0.8683 -1.0762
  523TIP3   OH223059   6.074   4.453   4.715  0.3743  0.2166 -0.1579
  523TIP3    H123060   6.036   4.538   4.692 -0.7128 -0.3102 -0.3731
  523TIP3    H223061   6.052   4.396   4.641 -0.9548 -0.8487  1.0062
  524TIP3   OH223062   6.836   0.819  13.344 -0.2401  0.6727 -0.1376
  524TIP3    H123063   6.786   0.876  13.403  1.0359 -0.7062  2.3893
  524TIP3    H223064   6.769   0.779  13.288 -1.5600  1.6506  0.6706
  525TIP3   OH223065   1.479   5.062  15.338 -0.7689 -0.1973  0.4358
  525TIP3    H123066   1.571   5.068  15.313 -0.9847 -1.9917 -0.9650
  525TIP3    H223067   1.431   5.087  15.258 -1.4770 -2.2689  0.1658
  526TIP3   OH223068   4.349   4.384   0.415 -0.1712 -0.1345 -0.3831
  526TIP3    H123069   4.438   4.367   0.445 -0.2657  0.1684  0.0637
  526TIP3    H223070   4.319   4.299   0.381 -0.0693 -0.4855  0.3810
  527TIP3   OH223071   4.620   1.301  12.219 -0.1994 -0.6247  0.7765
  527TIP3    H123072   4.631   1.354  12.298  0.9517  2.2861 -1.1902
  527TIP3    H223073   4.548   1.342  12.172  1.4976  0.0682 -1.3824
  528TIP3   OH223074   6.492   5.085  13.350 -0.2629 -0.0930 -0.0953
  528TIP3    H123075   6.484   5.006  13.403  2.5079 -0.8998 -0.7350
  528TIP3    H223076   6.403   5.104  13.322 -1.0789 -2.7197  0.4389
  529TIP3   OH223077   4.507   5.764   1.832 -0.3225  0.1261  0.0041
  529TIP3    H123078   4.599   5.740   1.834 -0.8433 -2.1614 -0.3350
  529TIP3    H223079   4.464   5.697   1.886 -1.7811  1.2235  0.2645
  530TIP3   OH223080   3.540   1.872  11.117  0.6126  0.1943 -0.3584
  530TIP3    H123081   3.621   1.915  11.146  3.0185 -2.6424 -2.2597
  530TIP3    H223082   3.544   1.875  11.022 -0.2086 -2.1849 -0.5372
  531TIP3   OH223083   1.581   2.614  16.239 -0.5077 -0.1785  0.4417
  531TIP3    H123084   1.549   2.679  16.301  0.0919 -0.5620  1.1746
  531TIP3    H223085   1.517   2.543  16.244 -2.1364  1.0088 -1.6403
  532TIP3   OH223086   6.444   0.759  13.419 -0.0397  0.0830 -0.8607
  532TIP3    H123087   6.407   0.789  13.503 -0.2193  1.7777 -1.5060
  532TIP3    H223088   6.521   0.708  13.444  0.4439  1.3211  0.3478
  533TIP3   OH223089   0.973   5.783   0.090  0.1823  0.1948 -0.0180
  533TIP3    H123090   0.939   5.833   0.015 -1.0972 -0.8699 -0.1748
  533TIP3    H223091   0.968   5.843   0.164 -0.1255  0.7107 -0.4540
  534TIP3   OH223092   4.405   1.395  13.947 -0.7479 -0.4610  0.6063
  534TIP3    H123093   4.453   1.478  13.944 -0.6127 -0.5290  0.8350
  534TIP3    H223094   4.465   1.332  13.906 -0.8319 -0.4544  0.4727
  535TIP3   OH223095   6.643   0.972  15.195 -0.1657 -0.0033 -0.2035
  535TIP3    H123096   6.669   1.044  15.138  0.0479 -0.1697 -0.3188
  535TIP3    H223097   6.661   1.003  15.283  0.3091 -0.0715 -0.2770
  536TIP3   OH223098   4.674   6.617  11.786  0.5479 -0.4173  0.5327
  536TIP3    H123099   4.609   6.565  11.832  0.0221 -1.8829 -1.6965
  536TIP3    H223100   4.756   6.598  11.832  0.0882 -1.9329  0.7873
  537TIP3   OH223101   2.905   3.534  10.491  0.0276  0.0009 -0.4200
  537TIP3    H123102   2.857   3.543  10.409 -0.6676  2.1583  0.1632
  537TIP3    H223103   2.884   3.446  10.522 -2.7004  0.4714 -0.7448
  538TIP3   OH223104   0.097   6.820  12.807 -0.4188  0.2031 -0.1998
  538TIP3    H123105   0.070   6.832  12.716 -0.2185  0.8471 -0.1804
  538TIP3    H223106   0.025   6.858  12.858  0.4932  1.9927 -0.1480
  539TIP3   OH223107   1.790   3.862  12.229  0.0003 -0.7817 -0.0821
  539TIP3    H123108   1.753   3.783  12.270  0.8087 -1.7943 -1.2274
  539TIP3    H223109   1.864   3.830  12.178  0.4623  0.7639 -0.4295
  540TIP3   OH223110   0.717   1.455   4.590 -0.5750 -0.3391 -0.1456
  540TIP3    H123111   0.808   1.427   4.584 -0.4496  0.0447 -0.0127
  540TIP3    H223112   0.710   1.498   4.675 -0.4532  1.1508 -0.8518
  541TIP3   OH223113   5.698   0.989  12.782  0.6831 -0.3104 -0.4262
  541TIP3    H123114   5.786   0.984  12.819  0.6363  1.5241 -0.0017
  541TIP3    H223115   5.640   0.994  12.858  0.1213 -2.1013 -0.6872
  542TIP3   OH223116   3.835   1.230  10.606  0.2744 -0.6828 -0.0201
  542TIP3    H123117   3.905   1.168  10.625 -0.9556 -2.6078 -1.3953
  542TIP3    H223118   3.792   1.245  10.690  1.9306  0.0875  0.7313
  543TIP3   OH223119   2.806   3.995  15.161  0.1659  0.2763 -0.0598
  543TIP3    H123120   2.772   3.912  15.127  2.7886 -0.6452 -0.7272
  543TIP3    H223121   2.868   3.968  15.229 -0.5586  1.8440  1.2779
  544TIP3   OH223122   3.527   4.475   3.357 -0.0058  0.3070  0.4095
  544TIP3    H123123   3.573   4.535   3.416 -0.0838  1.6864 -0.8883
  544TIP3    H223124   3.596   4.441   3.299 -0.0800 -0.3232  0.6815
  545TIP3   OH223125   2.683   6.333  12.655  0.3173  0.4323 -0.1777
  545TIP3    H123126   2.618   6.272  12.689 -0.2163  1.0497 -0.0665
  545TIP3    H223127   2.766   6.304  12.694 -0.0718  0.3170  0.5952
  546TIP3   OH223128   0.530   3.642  16.652 -0.0592  0.1732  0.1892
  546TIP3    H123129   0.504   3.732  16.669 -0.1817  0.0265  0.7874
  546TIP3    H223130   0.453   3.602  16.610 -0.6622 -0.1418  1.5632
  547TIP3   OH223131   2.821   4.863  15.541  0.2535  0.5020  0.0353
  547TIP3    H123132   2.812   4.894  15.451  0.5175 -0.4175 -0.3211
  547TIP3    H223133   2.916   4.856  15.555  0.1982 -0.4506 -0.0100
  548TIP3   OH223134   2.377   5.875  15.086 -0.4598 -0.0830 -0.5652
  548TIP3    H123135   2.351   5.953  15.134  0.6990 -0.2693  0.4372
  548TIP3    H223136   2.430   5.907  15.013 -1.9900  0.1839 -1.6097
  549TIP3   OH223137   3.349   3.653   5.152 -0.3969 -0.3031  0.5739
  549TIP3    H123138   3.398   3.678   5.230 -1.8011 -0.9540  1.7011
  549TIP3    H223139   3.281   3.720   5.144 -0.4450 -0.4080  0.0893
  550TIP3   OH223140   2.155   5.681   4.280  0.0536  0.0181  0.4424
  550TIP3    H123141   2.249   5.675   4.294  0.0638  0.0938  0.4085
  550TIP3    H223142   2.132   5.769   4.310  0.3801  0.8927 -1.6987
  551TIP3   OH223143   6.649   2.381  11.990 -0.1892  0.1111  0.4389
  551TIP3    H123144   6.566   2.409  11.952  0.2577  1.6352  0.4918
  551TIP3    H223145   6.626   2.310  12.050 -1.3320 -0.0310 -0.1478
  552TIP3   OH223146   6.788   4.342   5.465 -0.2598  0.0299 -0.0760
  552TIP3    H123147   6.719   4.408   5.478  0.3380  0.3910  1.5393
  552TIP3    H223148   6.783   4.287   5.543  1.2190  0.0098  0.0323
  553TIP3   OH223149   2.526   2.327  14.740  0.2430 -0.1516  0.4990
  553TIP3    H123150   2.608   2.357  14.700 -1.0572  2.6420 -0.3418
  553TIP3    H223151   2.497   2.401  14.793 -2.7615 -0.1687 -0.9274
  554TIP3   OH223152   3.774   1.728   3.422 -0.0197 -0.7642  0.0563
  554TIP3    H123153   3.783   1.806   3.477 -0.9017  0.3542 -1.3013
  554TIP3    H223154   3.697   1.683   3.456  0.3961 -0.9597  0.7479
  555TIP3   OH223155   3.489   6.210  16.079 -0.0316  0.2882  0.0489
  555TIP3    H123156   3.450   6.227  15.994 -1.4335  1.5466  0.8976
  555TIP3    H223157   3.572   6.167  16.059  0.8623  2.7322 -2.0443
  556TIP3   OH223158   2.660   0.137   4.461  0.1299 -0.3090 -0.5744
  556TIP3    H123159   2.677   0.220   4.418  0.6476 -0.6354 -1.0033
  556TIP3    H223160   2.721   0.076   4.421  0.9355 -0.5261  0.9319
  557TIP3   OH223161   3.379   0.613   3.357  0.1504  0.3342  0.2669
  557TIP3    H123162   3.286   0.606   3.336  0.4913 -0.6034 -1.0242
  557TIP3    H223163   3.403   0.702   3.332 -0.3152  0.4572  0.2605
  558TIP3   OH223164   0.343   0.774   1.294 -0.3423 -0.3013  0.4220
  558TIP3    H123165   0.436   0.767   1.272 -0.2967 -2.9771  1.1896
  558TIP3    H223166   0.299   0.786   1.210  0.6118  0.0520 -0.0407
  559TIP3   OH223167   3.176   0.091   0.368  0.2631  0.1601  0.4321
  559TIP3    H123168   3.103   0.029   0.357 -0.6101  1.1585  0.4131
  559TIP3    H223169   3.236   0.047   0.427  0.9978 -1.8422 -1.6804
  560TIP3   OH223170   3.405   6.029   3.165  0.3055  0.2102 -0.2307
  560TIP3    H123171   3.422   5.977   3.243 -0.2628  0.5723  0.1379
  560TIP3    H223172   3.415   5.967   3.092  0.4490 -0.2147  0.1464
  561TIP3   OH223173   4.132   4.112   3.987 -0.3187  0.0365  0.1371
  561TIP3    H123174   4.064   4.114   3.919  1.4204 -1.2119 -1.7456
  561TIP3    H223175   4.198   4.174   3.958  1.4908 -2.0835 -0.5777
  562TIP3   OH223176   3.043   1.058   1.819  0.2498 -0.0772 -0.3734
  562TIP3    H123177   2.982   0.985   1.830 -0.1917  0.4226  0.6429
  562TIP3    H223178   3.001   1.115   1.755 -0.9860  0.8608  1.1873
  563TIP3   OH223179   6.701   0.379  12.813 -0.3900  0.0366 -0.1963
  563TIP3    H123180   6.667   0.326  12.740 -1.6568  1.3315 -0.5837
  563TIP3    H223181   6.755   0.446  12.772  2.0456 -1.4508  0.3594
  564TIP3   OH223182   1.254   1.410  14.403 -0.3314  0.3610  0.2264
  564TIP3    H123183   1.338   1.415  14.447  1.4234 -2.7611 -2.3725
  564TIP3    H223184   1.203   1.347  14.454 -0.8050  1.4705  1.1956
  565TIP3   OH223185   3.607   1.739  16.142  0.0892 -0.6358 -0.1406
  565TIP3    H123186   3.594   1.830  16.168 -0.0051 -0.6072 -0.2873
  565TIP3    H223187   3.643   1.696  16.220  0.0988 -0.4820 -0.0617
  566TIP3   OH223188   1.570   4.866   3.984 -0.4101  0.1078 -0.2045
  566TIP3    H123189   1.553   4.930   3.915 -0.7513  0.5078  0.2397
  566TIP3    H223190   1.583   4.919   4.063 -1.1502 -0.3817  0.2593
  567TIP3   OH223191   3.606   6.246   4.454 -0.0810  0.2747  0.4091
  567TIP3    H123192   3.679   6.189   4.477  0.7681  1.5222  0.8745
  567TIP3    H223193   3.546   6.238   4.528 -0.8691 -1.4026 -0.3479
  568TIP3   OH223194   4.462   0.495   3.429  0.2092  0.0303  0.0958
  568TIP3    H123195   4.499   0.534   3.508  0.5961 -0.7497  0.3169
  568TIP3    H223196   4.478   0.401   3.440  0.3670 -0.0780 -0.9532
  569TIP3   OH223197   6.161   1.573  16.461  0.5704 -0.3604 -0.5306
  569TIP3    H123198   6.086   1.619  16.499  1.3466  2.2489 -1.9395
  569TIP3    H223199   6.127   1.486  16.440 -1.4271  0.0081  0.8446
  570TIP3   OH223200   5.587   0.476  14.283 -0.1430  0.2418 -0.1646
  570TIP3    H123201   5.512   0.464  14.225 -0.8075 -1.9481  1.0189
  570TIP3    H223202   5.620   0.387  14.297  3.5079  1.1788 -1.6155
  571TIP3   OH223203   3.524   2.587   1.810  0.2598  0.2966  0.4079
  571TIP3    H123204   3.590   2.519   1.827 -0.6021  0.0804  3.4545
  571TIP3    H223205   3.445   2.539   1.788  0.7446  0.5257 -2.0565
  572TIP3   OH223206   6.581   3.872   4.656 -0.4681 -0.0614 -0.1549
  572TIP3    H123207   6.610   3.878   4.746  2.0312 -0.6603 -0.8516
  572TIP3    H223208   6.551   3.782   4.646  0.2820 -0.3134 -0.1828
  573TIP3   OH223209   1.131   0.542  14.432  0.5623  0.2733 -0.4433
  573TIP3    H123210   1.158   0.501  14.350  2.9438 -1.3902  1.0300
  573TIP3    H223211   1.068   0.481  14.469  0.4465  0.3825 -0.4612
  574TIP3   OH223212   1.359   5.488  10.682 -0.4472 -0.4301  0.2424
  574TIP3    H123213   1.283   5.465  10.735  1.1121 -1.3138  2.2486
  574TIP3    H223214   1.342   5.577  10.651 -2.1804 -0.5449  0.7885
  575TIP3   OH223215   0.749   1.193   0.626 -0.2482  0.1733 -0.0824
  575TIP3    H123216   0.806   1.261   0.660  2.4369 -1.6283 -0.6698
  575TIP3    H223217   0.717   1.147   0.704 -0.0976  0.6029  0.2337
  576TIP3   OH223218   4.016   2.052  11.342 -0.4204 -0.7030 -0.5979
  576TIP3    H123219   4.042   2.034  11.252 -1.4846 -1.0700 -0.8448
  576TIP3    H223220   3.921   2.048  11.341 -0.5179  0.5985  0.2750
  577TIP3   OH223221   6.060   4.178  11.215  0.4579 -0.0862  0.8787
  577TIP3    H123222   6.053   4.239  11.142 -1.9680  0.1879  1.2331
  577TIP3    H223223   6.144   4.198  11.256  1.2167  0.7060 -0.9818
  578TIP3   OH223224   3.854   2.441   0.937  0.3902  0.1725  0.0914
  578TIP3    H123225   3.905   2.363   0.915  0.1653  0.5514 -2.0033
  578TIP3    H223226   3.771   2.406   0.970  0.4089 -0.4925 -0.5338
  579TIP3   OH223227   3.093   3.828  11.872 -0.3251 -0.4469  0.5379
  579TIP3    H123228   3.066   3.762  11.809 -0.1927 -1.7061  1.7425
  579TIP3    H223229   3.052   3.909  11.842  1.1998 -0.5827 -2.1417
  580TIP3   OH223230   0.326   2.430   1.954  0.0060 -0.2749  0.2236
  580TIP3    H123231   0.306   2.522   1.970  1.2444  0.2771 -1.1135
  580TIP3    H223232   0.353   2.428   1.862 -0.7047 -2.1069  0.0259
  581TIP3   OH223233   5.971   3.597   6.037  0.3991 -0.3316 -0.1866
  581TIP3    H123234   5.877   3.581   6.033  0.5017 -1.0739  0.1963
  581TIP3    H223235   6.008   3.548   5.963  0.5444 -0.5403  0.0214
  582TIP3   OH223236   5.711   1.687   6.451  0.2544 -0.8642  0.8305
  582TIP3    H123237   5.665   1.605   6.466  0.1374 -0.9529  0.0151
  582TIP3    H223238   5.799   1.661   6.425 -0.3111 -0.8110 -1.3055
  583TIP3   OH223239   5.260   0.962   4.435 -0.2241  0.1107  0.3812
  583TIP3    H123240   5.262   1.020   4.358  0.7617  0.4719  0.6599
  583TIP3    H223241   5.187   0.902   4.418 -0.8339  0.9973 -0.2374
  584TIP3   OH223242   0.765   3.830   2.174  0.2420 -0.2022  0.0029
  584TIP3    H123243   0.820   3.803   2.100  0.0561  2.4061 -1.2158
  584TIP3    H223244   0.821   3.820   2.251  1.0928 -1.2406 -0.7235
  585TIP3   OH223245   1.710   0.256  13.831  0.0032 -0.2219  0.3424
  585TIP3    H123246   1.783   0.210  13.873  0.2337 -0.9784 -0.8265
  585TIP3    H223247   1.745   0.343  13.811  1.2006 -1.1242 -1.7437
  586TIP3   OH223248   0.924   6.005  14.567  0.1039 -0.4351  0.3071
  586TIP3    H123249   0.863   6.078  14.574  1.8416  0.8768  3.0419
  586TIP3    H223250   0.929   5.968  14.655  3.0204 -0.6336  0.1641
  587TIP3   OH223251   2.971   6.485  16.588 -0.4151  0.4556 -0.4900
  587TIP3    H123252   2.987   6.461  16.497 -2.0523 -1.6654 -0.3217
  587TIP3    H223253   2.906   6.421  16.618 -0.6420  1.6842  1.8944
  588TIP3   OH223254   4.943   6.659  16.030 -0.0194 -0.4218 -0.0061
  588TIP3    H123255   4.864   6.620  16.068 -0.4977  0.1664 -0.3809
  588TIP3    H223256   4.939   6.751  16.057 -0.7441  0.1873 -2.0329
  589TIP3   OH223257   6.407   5.532  15.101 -0.8219  0.0918  0.2121
  589TIP3    H123258   6.502   5.542  15.100 -0.8421  0.4333 -1.5013
  589TIP3    H223259   6.380   5.551  15.011 -2.2092 -2.8419 -0.1195
  590TIP3   OH223260   2.412   6.578   0.497 -0.7472 -0.1771  0.0074
  590TIP3    H123261   2.416   6.547   0.587 -1.9982  0.5101  0.3222
  590TIP3    H223262   2.336   6.533   0.459  0.1458 -0.9653 -0.9302
  591TIP3   OH223263   2.951   4.145  10.939  0.4239 -0.2341 -0.0330
  591TIP3    H123264   2.894   4.165  10.865  0.9907  0.6587 -0.2428
  591TIP3    H223265   3.016   4.216  10.940 -0.3033  0.4861  2.0800
  592TIP3   OH223266   5.660   5.917  10.858  0.4402  0.0802 -0.4642
  592TIP3    H123267   5.686   5.873  10.777  1.3929  0.6964 -0.5093
  592TIP3    H223268   5.694   6.006  10.849  0.8866  0.0517  0.7659
  593TIP3   OH223269   3.481   1.860   2.240  0.1156 -0.0551 -0.1115
  593TIP3    H123270   3.555   1.812   2.276  0.6675  0.9909  0.1711
  593TIP3    H223271   3.488   1.947   2.277 -0.8143  0.2864 -0.6969
  594TIP3   OH223272   4.384   4.841   4.642 -0.0744  0.0338  0.3212
  594TIP3    H123273   4.443   4.801   4.579 -0.8464  0.9333 -1.0326
  594TIP3    H223274   4.307   4.865   4.591 -0.6929  0.8797  1.5885
  595TIP3   OH223275   2.764   3.771   0.716 -0.3734  0.7376 -0.1244
  595TIP3    H123276   2.748   3.720   0.795  2.3588 -1.0975 -0.5947
  595TIP3    H223277   2.679   3.777   0.673 -1.0832 -2.6379  0.5243
  596TIP3   OH223278   4.881   0.372   3.336 -0.1823 -0.0908 -0.2673
  596TIP3    H123279   4.863   0.443   3.274 -0.7276 -0.7617 -0.8994
  596TIP3    H223280   4.975   0.355   3.326 -0.4532 -0.9221 -1.7414
  597TIP3   OH223281   6.363   3.709  16.757  0.2050 -0.1431  0.0996
  597TIP3    H123282   6.326   3.689  16.843  1.4747  0.4994  0.8338
  597TIP3    H223283   6.402   3.796  16.769  0.3139 -0.0077 -1.1680
  598TIP3   OH223284   1.689   4.560  15.705 -0.5217  0.7984 -0.1771
  598TIP3    H123285   1.655   4.648  15.721 -2.8619  0.0389 -0.5524
  598TIP3    H223286   1.747   4.543  15.779 -2.9124  1.3092  1.9698
  599TIP3   OH223287   4.726   5.641   3.687 -0.0338  0.2158  0.2077
  599TIP3    H123288   4.771   5.571   3.641 -0.0926  0.5136 -0.3064
  599TIP3    H223289   4.737   5.718   3.631 -1.4159  0.2311 -0.0833
  600TIP3   OH223290   3.503   1.987   3.885 -0.3979  0.0869  0.1950
  600TIP3    H123291   3.537   1.917   3.941 -0.0826  1.0278  1.2334
  600TIP3    H223292   3.579   2.015   3.834 -0.7799 -1.0472 -1.0432
  601TIP3   OH223293   3.702   5.657  15.808 -0.5783  0.5481  0.4591
  601TIP3    H123294   3.773   5.635  15.867 -0.6388  1.1386  0.7587
  601TIP3    H223295   3.707   5.752  15.798  0.6181  0.2975 -1.9805
  602TIP3   OH223296   6.816   3.714   4.430  0.1528  0.5031  0.0106
  602TIP3    H123297   6.726   3.694   4.404 -0.2809 -1.6471  2.7490
  602TIP3    H223298   6.870   3.657   4.376  0.1028  2.4394 -2.3071
  603TIP3   OH223299   4.599   0.544  16.078 -0.0784 -0.9121  0.5338
  603TIP3    H123300   4.538   0.617  16.090  1.2245  0.5111 -0.9783
  603TIP3    H223301   4.579   0.510  15.991  1.9323  0.3067 -0.4818
  604TIP3   OH223302   4.492   6.625  16.665 -0.3969 -0.2864  0.5085
  604TIP3    H123303   4.541   6.544  16.679 -0.0265  0.1594  1.8846
  604TIP3    H223304   4.406   6.596  16.636  0.4286 -1.0981 -1.2684
  605TIP3   OH223305   6.527   6.233   1.149 -0.2079  0.5135  0.2940
  605TIP3    H123306   6.616   6.207   1.175 -0.4265 -1.1871 -0.5548
  605TIP3    H223307   6.499   6.292   1.219  0.5952 -1.0458  2.0194
  606TIP3   OH223308   1.804   3.962   4.669  0.5684  0.1341  0.3503
  606TIP3    H123309   1.743   3.916   4.613  0.1370  0.6219  0.4087
  606TIP3    H223310   1.872   3.994   4.609  0.9849 -0.7394  0.3388
  607TIP3   OH223311   0.036   2.594  15.066 -0.3939 -0.2751  0.2281
  607TIP3    H123312   0.063   2.683  15.042 -0.0983 -0.4953 -0.2658
  607TIP3    H223313   0.006   2.555  14.985  1.3240 -1.2721  0.0098
  608TIP3   OH223314   2.240   2.444   3.883  0.2981  0.2718 -0.6832
  608TIP3    H123315   2.149   2.417   3.898  0.4148 -0.0026 -0.4430
  608TIP3    H223316   2.278   2.372   3.833  0.5823  0.0335 -0.1372
  609TIP3   OH223317   2.557   4.828   5.531  0.3737  0.0069  0.2757
  609TIP3    H123318   2.520   4.909   5.567  1.8171  0.9785 -0.3113
  609TIP3    H223319   2.521   4.824   5.442  0.9517  0.4842  0.0092
  610TIP3   OH223320   1.114   4.744  12.886 -0.2063 -0.4910 -0.1189
  610TIP3    H123321   1.088   4.741  12.978  1.7544  0.1812  0.4818
  610TIP3    H223322   1.070   4.821  12.851  1.9617  1.4745  1.2456
  611TIP3   OH223323   0.018   0.677  11.731 -0.0696 -0.1062  0.1900
  611TIP3    H123324   0.006   0.620  11.655 -0.3394  1.1968 -0.7895
  611TIP3    H223325   0.060   0.622  11.797 -0.2029 -1.3817 -0.7608
  612TIP3   OH223326   2.773   0.522  12.486 -0.1284  0.7881 -0.4040
  612TIP3    H123327   2.852   0.564  12.519  0.1792 -0.8864  1.1916
  612TIP3    H223328   2.764   0.443  12.539 -2.9516  0.9714 -0.4272
  613TIP3   OH223329   3.212   5.046   4.019 -0.5288  0.6266  0.0745
  613TIP3    H123330   3.292   5.085   4.053 -0.5701  0.7661  0.0111
  613TIP3    H223331   3.220   5.051   3.924 -0.4863  0.3840  0.0639
  614TIP3   OH223332   6.639   5.371   0.885 -0.2018  0.6831  0.3503
  614TIP3    H123333   6.607   5.295   0.933  1.3339  0.0640  0.4520
  614TIP3    H223334   6.606   5.358   0.796 -2.2405  1.3356  0.9775
  615TIP3   OH223335   5.666   4.705   4.134 -0.7281  0.3511 -0.2080
  615TIP3    H123336   5.647   4.724   4.226 -2.7389 -1.5958 -0.1441
  615TIP3    H223337   5.615   4.770   4.086 -1.1661  0.2118  0.0585
  616TIP3   OH223338   1.488   3.540  15.187  0.0248  0.1699  0.6958
  616TIP3    H123339   1.406   3.580  15.215  0.5832  1.1877  0.9503
  616TIP3    H223340   1.462   3.463  15.137 -1.0573 -0.0078  1.5108
  617TIP3   OH223341   2.568   4.196  14.494 -0.2411  0.5951  0.1726
  617TIP3    H123342   2.562   4.192  14.398 -0.1524  2.1224  0.0718
  617TIP3    H223343   2.637   4.260  14.511 -1.3340  1.5330  1.2407
  618TIP3   OH223344   2.059   1.014   1.886  0.2379  0.0752  0.2613
  618TIP3    H123345   2.137   1.020   1.830 -0.6062  0.4040 -0.9266
  618TIP3    H223346   2.000   0.957   1.837 -1.6381  2.5909 -0.5985
  619TIP3   OH223347   0.208   6.589   6.534  0.4019 -0.9687 -0.8161
  619TIP3    H123348   0.293   6.625   6.508  1.1541 -1.2587  1.0553
  619TIP3    H223349   0.191   6.629   6.620  0.1026 -3.1664  0.2040
  620TIP3   OH223350   0.025   5.175   3.381  0.3917 -0.7750 -0.1410
  620TIP3    H123351  -0.045   5.211   3.326  1.9702  1.0444 -1.0863
  620TIP3    H223352  -0.000   5.084   3.395 -1.4343 -0.5703 -1.6455
  621TIP3   OH223353   2.134   4.801   4.396 -0.4244  0.5045  0.0131
  621TIP3    H123354   2.134   4.764   4.484 -3.4137 -0.8111 -0.3977
  621TIP3    H223355   2.192   4.743   4.346 -0.0685  0.2080  0.7480
  622TIP3   OH223356   5.085   3.848  17.046  0.1274 -0.3056  0.5092
  622TIP3    H123357   4.999   3.881  17.022  0.6192  0.2832 -0.5330
  622TIP3    H223358   5.121   3.813  16.965  0.7789 -0.7512  0.9778
  623TIP3   OH223359   4.176   6.303   3.789  0.2752 -0.3911 -0.0644
  623TIP3    H123360   4.205   6.263   3.871 -1.5362  0.8063  1.2452
  623TIP3    H223361   4.173   6.231   3.727  1.6528 -1.3433  0.9191
  624TIP3   OH223362   2.054   4.111  15.224  0.7181  0.0191  0.5922
  624TIP3    H123363   2.013   4.189  15.261 -1.1984 -0.1266 -1.0760
  624TIP3    H223364   2.059   4.049  15.296 -0.1494  0.7798  1.3250
  625TIP3   OH223365   4.491   2.532   5.792  0.3748 -0.5187  0.5615
  625TIP3    H123366   4.443   2.558   5.713 -0.6855 -0.2077  1.2790
  625TIP3    H223367   4.450   2.583   5.862  0.7836 -1.3540  1.4279
  626TIP3   OH223368   6.802   4.185  15.961 -0.5832 -0.5066  0.4729
  626TIP3    H123369   6.770   4.095  15.963 -3.0559  0.2805 -0.3057
  626TIP3    H223370   6.814   4.209  16.053 -0.5793 -1.3948  0.7062
  627TIP3   OH223371   2.192   0.027  12.380  0.2496 -0.8438  0.6551
  627TIP3    H123372   2.164   0.118  12.381  0.2766 -0.8320  1.6776
  627TIP3    H223373   2.247   0.018  12.459  2.9119 -0.9193 -1.0726
  628TIP3   OH223374   6.371   4.410  11.887  0.7096  0.0327  0.1150
  628TIP3    H123375   6.318   4.346  11.839  0.6788 -0.4023  0.7213
  628TIP3    H223376   6.328   4.417  11.973  0.6387  0.9642  0.0122
  629TIP3   OH223377   4.524   5.117   4.167 -0.0208 -0.1439 -0.0305
  629TIP3    H123378   4.435   5.099   4.197  0.2865 -1.4405  0.1671
  629TIP3    H223379   4.517   5.200   4.119 -1.3415 -0.2698 -0.0881
  630TIP3   OH223380   3.919   3.665  15.748  0.2295  0.5085  0.5204
  630TIP3    H123381   3.898   3.579  15.784 -1.3224  1.1923  1.3487
  630TIP3    H223382   3.853   3.680  15.681  1.9562  0.0685 -1.3719
  631TIP3   OH223383   0.257   0.454   1.763 -0.0859 -0.0017 -0.1560
  631TIP3    H123384   0.191   0.424   1.825 -0.3349  0.3373 -0.2553
  631TIP3    H223385   0.218   0.442   1.677  0.7242 -1.6185 -0.3321
  632TIP3   OH223386   0.916   3.818   3.824  0.1377  0.2828  0.6759
  632TIP3    H123387   0.835   3.864   3.849 -1.2893 -1.2472 -0.8265
  632TIP3    H223388   0.986   3.877   3.851 -1.5304  2.8034 -0.0628
  633TIP3   OH223389   6.543   3.483   1.129  0.3397  0.4585  0.4813
  633TIP3    H123390   6.572   3.417   1.065 -1.9462 -0.6561  0.4860
  633TIP3    H223391   6.603   3.473   1.203  0.5941 -1.0260  0.1049
  634TIP3   OH223392   4.673   0.794   5.709 -0.4319 -0.5305  0.1081
  634TIP3    H123393   4.704   0.861   5.771 -0.1126 -0.2463 -0.3453
  634TIP3    H223394   4.603   0.837   5.661  0.3198 -0.2245 -0.7480
  635TIP3   OH223395   4.141   6.514   4.845 -0.2490 -0.0925  0.1351
  635TIP3    H123396   4.077   6.553   4.905 -0.4470  0.0649 -0.1702
  635TIP3    H223397   4.106   6.534   4.758 -0.1780 -0.6679 -0.0294
  636TIP3   OH223398   3.563   4.966  15.760  0.1240  0.0682 -0.4573
  636TIP3    H123399   3.478   4.958  15.717  0.5245  1.1030 -1.5160
  636TIP3    H223400   3.556   5.046  15.813  0.0208 -0.5527  0.4744
  637TIP3   OH223401   2.675   3.856  12.351 -0.4917  0.1937 -0.5670
  637TIP3    H123402   2.710   3.822  12.433 -1.2047 -1.0663 -0.7739
  637TIP3    H223403   2.580   3.845  12.358 -0.4491 -2.4347 -2.5932
  638TIP3   OH223404   6.799   1.790   1.386 -0.4451 -0.4853 -0.1977
  638TIP3    H123405   6.706   1.808   1.402  0.2254  2.7718  0.6447
  638TIP3    H223406   6.807   1.791   1.291 -1.0556  0.8029 -0.2594
  639TIP3   OH223407   6.223   4.781   6.170 -0.1216  0.4890  0.0317
  639TIP3    H123408   6.278   4.810   6.242 -0.6966 -1.8973  1.5509
  639TIP3    H223409   6.136   4.774   6.208 -0.1673 -2.2487 -0.3839
  640TIP3   OH223410   4.870   1.597  11.971 -0.6878  0.4120 -0.4374
  640TIP3    H123411   4.787   1.642  11.955 -0.6466  0.2145 -1.2123
  640TIP3    H223412   4.847   1.505  11.977 -0.8076  0.5231  1.4027
  641TIP3   OH223413   5.039   2.298   6.861  0.3855 -0.5683  0.0616
  641TIP3    H123414   4.975   2.330   6.796  0.4065  0.6125  0.5990
  641TIP3    H223415   5.124   2.321   6.824  0.4863 -1.6133 -0.3771
  642TIP3   OH223416   3.014   4.700  14.682  0.3224  0.5365  0.4496
  642TIP3    H123417   3.056   4.621  14.649 -0.4049 -0.1636  1.1384
  642TIP3    H223418   3.041   4.769  14.622 -0.9024 -0.6745 -1.5882
  643TIP3   OH223419   2.248   6.628   5.586 -0.0248 -0.1154 -0.9704
  643TIP3    H123420   2.176   6.639   5.524 -0.3818 -0.3005 -0.5921
  643TIP3    H223421   2.295   6.551   5.555 -0.7921 -0.8109 -0.4462
  644TIP3   OH223422   4.024   1.181   5.508 -0.1277 -0.0385  0.1566
  644TIP3    H123423   4.060   1.137   5.431 -0.4976 -1.3807  0.7204
  644TIP3    H223424   3.941   1.136   5.525 -0.1444  0.3635  1.2143
  645TIP3   OH223425   5.558   6.200   5.924  0.1128 -0.2988 -0.3678
  645TIP3    H123426   5.486   6.217   5.986  1.9292  1.0367  1.5278
  645TIP3    H223427   5.610   6.132   5.966  2.0793  1.5057  0.3321
  646TIP3   OH223428   5.846   1.588   2.539  0.8694  0.4265  0.3946
  646TIP3    H123429   5.810   1.634   2.615  0.3407 -0.6580  0.8095
  646TIP3    H223430   5.772   1.578   2.479  1.3761  1.6677 -0.4915
  647TIP3   OH223431   5.481   3.929   5.028  0.4672 -0.1539  0.3091
  647TIP3    H123432   5.526   3.922   4.944 -0.6360 -0.0239 -0.3114
  647TIP3    H223433   5.408   3.867   5.022 -0.9802  1.4498  0.2513
  648TIP3   OH223434   4.079   2.108   1.220 -0.8018  0.0491 -0.0150
  648TIP3    H123435   4.044   2.165   1.151  0.1305  0.9096  0.1932
  648TIP3    H223436   4.003   2.086   1.273 -1.1160  1.5895  0.2296
  649TIP3   OH223437   6.231   3.039   4.210 -0.2265  0.3653  0.4809
  649TIP3    H123438   6.309   3.086   4.240  1.4475 -0.5352 -2.0780
  649TIP3    H223439   6.187   3.100   4.152 -0.1495  0.0972  0.1360
  650TIP3   OH223440   6.473   4.589   3.162  0.3703 -0.9938  0.2117
  650TIP3    H123441   6.481   4.648   3.236  1.6351  0.0529 -0.7273
  650TIP3    H223442   6.390   4.544   3.177 -0.7466  1.1455  0.8755
  651TIP3   OH223443   0.441   5.830   3.521 -0.1554 -0.1098 -0.6378
  651TIP3    H123444   0.512   5.894   3.518  0.1688 -0.3778  0.8145
  651TIP3    H223445   0.484   5.746   3.532 -0.6635 -0.0890  2.5850
  652TIP3   OH223446   3.776   2.066  11.127 -0.2144  0.0719  0.2330
  652TIP3    H123447   3.831   1.999  11.087 -2.7139 -1.1210 -1.5040
  652TIP3    H223448   3.752   2.124  11.055  0.5870  1.9340  1.4025
  653TIP3   OH223449   6.227   0.820  13.647  0.2455  0.0925  0.0241
  653TIP3    H123450   6.175   0.869  13.583  1.7067  0.5755 -0.8189
  653TIP3    H223451   6.187   0.733  13.649  1.9880 -1.0142 -3.9043
  654TIP3   OH223452   4.036   4.143   5.419  0.2681 -0.1262  0.2906
  654TIP3    H123453   4.019   4.198   5.495 -1.0117  1.3490 -0.9916
  654TIP3    H223454   3.964   4.080   5.418  0.4642 -0.3556  0.4709
  655TIP3   OH223455   2.407   6.449  13.407 -0.8137 -0.0769  0.1276
  655TIP3    H123456   2.450   6.475  13.325 -1.7388  1.4321  0.0881
  655TIP3    H223457   2.416   6.354  13.409  1.0909  0.0381 -0.6683
  656TIP3   OH223458   5.327   1.684  16.354 -0.6222  0.2765 -0.4283
  656TIP3    H123459   5.358   1.632  16.280 -0.3149 -0.3813  0.1423
  656TIP3    H223460   5.312   1.619  16.423 -1.7013  0.7844 -0.1739
  657TIP3   OH223461   4.482   0.987   5.905 -0.0018 -0.1867  0.0292
  657TIP3    H123462   4.577   0.985   5.915  0.1516  0.3141 -1.1264
  657TIP3    H223463   4.456   1.068   5.949  0.3895  0.8087 -1.4780
  658TIP3   OH223464   5.112   1.236  14.279 -0.3542 -0.7631  0.2585
  658TIP3    H123465   5.131   1.325  14.250  0.0592 -1.7058 -2.6491
  658TIP3    H223466   5.077   1.192  14.202 -1.0331 -3.0165  1.7458
  659TIP3   OH223467   0.204   5.440  14.328 -0.3401 -0.6678 -0.5927
  659TIP3    H123468   0.161   5.514  14.372  0.0319 -0.2314 -0.9584
  659TIP3    H223469   0.132   5.389  14.291 -0.5434  0.1536 -1.3512
  660TIP3   OH223470   0.892   2.465  10.364 -0.0316 -0.0261 -0.6675
  660TIP3    H123471   0.860   2.543  10.320  0.8447 -0.0844 -1.4390
  660TIP3    H223472   0.931   2.412  10.294 -0.2452 -0.9643 -0.0962
  661TIP3   OH223473   6.157   5.755  16.360 -0.6381  0.6988 -0.1458
  661TIP3    H123474   6.224   5.780  16.424 -1.0817 -1.1774  1.1242
  661TIP3    H223475   6.183   5.667  16.331 -2.1397  0.2459 -0.1784
  662TIP3   OH223476   5.340   6.686   3.487 -0.1119 -0.0647  0.5680
  662TIP3    H123477   5.397   6.681   3.563 -0.5771  1.1642  1.0311
  662TIP3    H223478   5.328   6.780   3.472 -0.6078 -0.2867 -0.5842
  663TIP3   OH223479   2.950   1.773  11.423  1.1010 -0.0908 -0.0971
  663TIP3    H123480   2.964   1.710  11.353 -0.6776 -1.7230  0.8933
  663TIP3    H223481   3.015   1.751  11.489 -0.3251 -1.8402  0.7995
  664TIP3   OH223482   2.216   6.288   3.776  0.2804  1.0147  0.3479
  664TIP3    H123483   2.204   6.349   3.704 -0.6435 -0.7400 -1.0575
  664TIP3    H223484   2.294   6.238   3.754 -1.7514 -1.7134 -1.1983
  665TIP3   OH223485   4.673   0.056  12.523 -0.0807 -0.2045  0.2004
  665TIP3    H123486   4.634  -0.016  12.474  2.0398 -1.5447  0.3378
  665TIP3    H223487   4.643   0.044  12.613  1.3127 -1.7846  0.4967
  666TIP3   OH223488   1.840   3.932   1.281  0.2495 -0.2122  0.4227
  666TIP3    H123489   1.863   4.024   1.269  3.3345 -0.5703  2.4691
  666TIP3    H223490   1.798   3.928   1.367 -1.4964 -0.5440 -0.4049
  667TIP3   OH223491   5.717   0.548  11.343  0.2639  0.0331  0.0341
  667TIP3    H123492   5.701   0.455  11.360 -1.7700  0.2383 -0.5558
  667TIP3    H223493   5.784   0.572  11.407  2.7318 -2.3814 -1.3812
  668TIP3   OH223494   4.369   2.154  13.972 -0.2559 -0.5131  0.2734
  668TIP3    H123495   4.452   2.190  13.941 -0.3010  0.4195  1.1969
  668TIP3    H223496   4.353   2.079  13.915  0.6489 -0.0312 -0.6428
  669TIP3   OH223497   5.626   6.217   2.790 -0.5653  0.0282  0.5083
  669TIP3    H123498   5.650   6.162   2.864  0.1470  1.0113  1.0306
  669TIP3    H223499   5.542   6.182   2.760 -1.9520  0.8917  3.0864
  670TIP3   OH223500   3.655   0.384   6.674 -0.2236  0.4783  0.1261
  670TIP3    H123501   3.708   0.393   6.595 -0.2620 -0.0141  0.0402
  670TIP3    H223502   3.681   0.458   6.729  1.1794 -0.2418  0.4519
  671TIP3   OH223503   5.009   3.443  11.733  0.0054 -0.0818 -0.9395
  671TIP3    H123504   5.102   3.462  11.746 -0.2291  0.3443  0.1536
  671TIP3    H223505   4.971   3.527  11.706 -0.5088  0.3738  1.0951
  672TIP3   OH223506   2.947   4.851  15.119 -0.1271  0.7178  0.4002
  672TIP3    H123507   2.983   4.788  15.057  2.1693  0.2080  2.1252
  672TIP3    H223508   3.020   4.910  15.140 -0.8413  0.9500  2.4804
  673TIP3   OH223509   0.131   5.334   5.703 -0.1052 -0.5743  0.0428
  673TIP3    H123510   0.142   5.275   5.777 -3.0919 -0.1313  0.9985
  673TIP3    H223511   0.149   5.421   5.739 -1.8892 -0.3212  0.4291
  674TIP3   OH223512   3.270   3.867  15.254 -0.2730 -0.1839  0.1460
  674TIP3    H123513   3.339   3.927  15.225  1.2941 -1.6630  0.6654
  674TIP3    H223514   3.204   3.873  15.185  1.1463  0.0197 -1.2569
  675TIP3   OH223515   3.312   6.823  15.509  0.2891  0.2862  0.3158
  675TIP3    H123516   3.243   6.861  15.453  0.1274 -0.4067  0.0296
  675TIP3    H223517   3.369   6.897  15.530  0.6734  0.4754 -1.2409
  676TIP3   OH223518   1.207   4.512   3.023 -0.1993  0.1327  0.5659
  676TIP3    H123519   1.254   4.467   3.093 -1.8784  1.4309  2.6983
  676TIP3    H223520   1.248   4.599   3.019  2.3636 -1.0336 -2.8166
  677TIP3   OH223521   3.102   1.144  13.521 -0.1296 -0.2199  0.8006
  677TIP3    H123522   3.010   1.121  13.515 -0.0841 -0.1154 -0.8082
  677TIP3    H223523   3.144   1.092  13.452  0.7449  0.9513  0.4185
  678TIP3   OH223524   6.403   0.810  10.964 -0.2972 -0.7558 -0.2693
  678TIP3    H123525   6.378   0.719  10.947 -0.1955 -0.5985 -1.3415
  678TIP3    H223526   6.487   0.821  10.920  0.4055 -0.5385  1.0819
  679TIP3   OH223527   1.024   1.581  12.789  0.1704  0.1191  0.1104
  679TIP3    H123528   1.035   1.623  12.704 -0.3177  1.0100  0.4743
  679TIP3    H223529   1.077   1.634  12.849  1.7212 -1.3700  0.1244
  680TIP3   OH223530   6.609   5.860  14.092  0.3235  0.3065  0.0236
  680TIP3    H123531   6.550   5.823  14.026 -0.8349 -0.6991  1.5669
  680TIP3    H223532   6.560   5.932  14.131  0.3992 -0.0443  0.7888
  681TIP3   OH223533   3.035   1.689  13.897  0.0582 -0.2457 -0.4671
  681TIP3    H123534   3.082   1.637  13.962 -0.3736 -0.5879 -0.4187
  681TIP3    H223535   3.050   1.780  13.923  5.5189  0.2283 -3.6215
  682TIP3   OH223536   2.374   0.144   5.974 -0.3363  0.1582 -0.8204
  682TIP3    H123537   2.352   0.096   5.894  0.1252  0.3089 -1.0458
  682TIP3    H223538   2.319   0.105   6.042  0.8934 -1.5409 -0.7338
  683TIP3   OH223539   4.968   1.634   0.343 -0.2922  0.7713 -0.0592
  683TIP3    H123540   4.898   1.579   0.306 -0.0777 -0.1428  0.8384
  683TIP3    H223541   4.946   1.641   0.436  1.7983 -1.1880  0.6722
  684TIP3   OH223542   4.095   3.478  13.783 -0.1095 -0.1480 -0.6383
  684TIP3    H123543   4.028   3.534  13.821  0.6120 -0.0423  0.5317
  684TIP3    H223544   4.054   3.392  13.776 -1.1440  0.4128 -2.2209
  685TIP3   OH223545   2.265   2.337   6.018  0.2464  0.1644 -0.2432
  685TIP3    H123546   2.283   2.428   6.038  0.3088 -0.0025  0.4784
  685TIP3    H223547   2.180   2.339   5.973 -0.1741  0.5017  0.5403
  686TIP3   OH223548   1.971   2.767  15.041  0.0126 -0.0290 -0.4409
  686TIP3    H123549   2.055   2.721  15.034 -0.0424 -0.0309 -1.1057
  686TIP3    H223550   1.919   2.714  15.102  0.0677 -0.6592 -0.9393
  687TIP3   OH223551   3.107   0.563  14.789  0.0730  0.4402 -0.0988
  687TIP3    H123552   3.062   0.487  14.826 -0.2345  0.1417 -1.0435
  687TIP3    H223553   3.099   0.551  14.694  1.5238  0.7444 -0.2943
  688TIP3   OH223554   5.546   2.908   0.340 -0.1474  0.5500 -0.7181
  688TIP3    H123555   5.569   2.902   0.433  0.0537  2.2218 -0.6323
  688TIP3    H223556   5.452   2.890   0.338 -0.0241 -0.1917 -0.2912
  689TIP3   OH223557   5.504   2.313  10.634 -0.3691 -0.5993  0.3718
  689TIP3    H123558   5.535   2.389  10.585 -1.6281 -1.5707 -2.1300
  689TIP3    H223559   5.426   2.343  10.680 -1.3867 -0.5012 -1.3189
  690TIP3   OH223560   1.707   2.618   1.736 -0.7352 -0.4470  0.5040
  690TIP3    H123561   1.685   2.539   1.786  0.1831 -0.2831  1.1834
  690TIP3    H223562   1.623   2.656   1.713 -1.1912 -1.5063  0.3593
  691TIP3   OH223563   3.238   0.708  16.320  0.2533  0.1237 -0.5400
  691TIP3    H123564   3.244   0.803  16.317  0.3216  0.1036 -1.7809
  691TIP3    H223565   3.288   0.678  16.244  1.4931 -0.9860  0.6607
  692TIP3   OH223566   0.750   5.896  12.369 -0.1537  0.0420  0.0342
  692TIP3    H123567   0.692   5.970  12.355  0.9985  0.5160 -3.0072
  692TIP3    H223568   0.838   5.934  12.375  0.3170 -0.9676 -0.1599
  693TIP3   OH223569   1.195   3.435  14.329 -0.2815  0.1591 -0.2106
  693TIP3    H123570   1.238   3.450  14.245 -0.8673  0.1581 -0.5220
  693TIP3    H223571   1.152   3.350  14.320  0.4603 -0.3075  0.4499
  694TIP3   OH223572   5.026   2.535   3.674 -0.1250 -0.7967  0.0267
  694TIP3    H123573   4.995   2.624   3.655  2.3637 -0.0127 -0.6785
  694TIP3    H223574   5.091   2.547   3.744  0.7202 -1.9735 -0.5291
  695TIP3   OH223575   1.367   0.838   3.235  0.1601  0.1275  0.6425
  695TIP3    H123576   1.283   0.805   3.203 -0.4833  0.6658  1.7302
  695TIP3    H223577   1.383   0.917   3.183 -0.9946  1.1284  1.7456
  696TIP3   OH223578   2.616   0.187  16.212 -0.3648 -0.1452  0.4795
  696TIP3    H123579   2.612   0.277  16.180 -1.3771 -0.1840  0.4702
  696TIP3    H223580   2.613   0.195  16.307  0.9996 -0.1105  0.5356
  697TIP3   OH223581   6.652   0.131   6.539 -0.4126 -0.0523 -0.0587
  697TIP3    H123582   6.597   0.162   6.611  0.0732  0.1537  0.2261
  697TIP3    H223583   6.606   0.054   6.505  0.3225 -1.3735  1.7417
  698TIP3   OH223584   5.134   4.412  16.490  0.0722  0.2863 -0.0812
  698TIP3    H123585   5.194   4.399  16.564  0.9104  1.1683 -0.5916
  698TIP3    H223586   5.155   4.341  16.429  1.1052  1.0035 -0.5770
  699TIP3   OH223587   0.725   0.925  11.191 -0.7260  0.2981 -0.7429
  699TIP3    H123588   0.739   0.979  11.268 -0.2838  0.9414 -1.2672
  699TIP3    H223589   0.639   0.951  11.159 -1.6558 -1.1295  0.4425
  700TIP3   OH223590   3.467   1.864  12.896  0.3093 -0.0711  0.0781
  700TIP3    H123591   3.374   1.884  12.894  0.2267 -0.4596 -1.8442
  700TIP3    H223592   3.510   1.950  12.901 -0.1407  0.2086 -0.7196
  701TIP3   OH223593   5.787   5.415  16.937 -0.0285 -0.4566  0.0492
  701TIP3    H123594   5.831   5.420  17.022  1.2586 -1.4804 -0.5143
  701TIP3    H223595   5.720   5.348  16.949 -2.5432  2.0974  1.3225
  702TIP3   OH223596   3.004   6.043  16.960 -0.1073  0.4533 -0.3583
  702TIP3    H123597   3.049   5.961  16.981 -1.0431 -0.5951 -2.1377
  702TIP3    H223598   3.057   6.083  16.891 -0.6659  0.3538 -0.8547
  703TIP3   OH223599   0.929   4.334  12.213  0.3062  0.2037  0.3376
  703TIP3    H123600   0.917   4.245  12.248 -0.0002  0.2664  0.3991
  703TIP3    H223601   0.881   4.334  12.130 -1.2161  0.8231  1.1782
  704TIP3   OH223602   4.916   0.770   0.557 -0.8447  0.1875 -0.8386
  704TIP3    H123603   4.894   0.842   0.499  0.2215  0.9999 -0.2682
  704TIP3    H223604   4.866   0.787   0.637 -1.0812 -0.0640 -0.9291
  705TIP3   OH223605   5.940   2.950  16.814  0.9115  0.3624 -0.0862
  705TIP3    H123606   5.959   2.867  16.769  3.1335  0.4577  0.5818
  705TIP3    H223607   5.888   2.925  16.891  1.4809 -0.3922  0.0545
  706TIP3   OH223608   4.741   0.399   0.855 -0.0658  0.2399  0.1940
  706TIP3    H123609   4.746   0.313   0.897  0.6803 -0.0230 -0.3957
  706TIP3    H223610   4.811   0.450   0.896  0.3802  0.1208 -0.4019
  707TIP3   OH223611   5.607   0.712  12.375  0.0523  0.1376  0.5771
  707TIP3    H123612   5.572   0.716  12.464  0.3864  1.1428  0.6710
  707TIP3    H223613   5.551   0.647  12.331 -0.5815  0.1693  1.3049
  708TIP3   OH223614   3.768   2.458   4.965  0.4773 -0.5785 -0.0503
  708TIP3    H123615   3.854   2.496   4.982  0.3270  0.3664 -1.2827
  708TIP3    H223616   3.767   2.441   4.870 -1.4911  1.5463 -0.5053
  709TIP3   OH223617   6.419   0.847  10.299  0.2677 -0.0290  0.1935
  709TIP3    H123618   6.389   0.759  10.277  0.1288  0.4507 -1.6847
  709TIP3    H223619   6.515   0.840  10.300  0.3271  0.0911 -1.5104
  710TIP3   OH223620   2.640   5.241   5.985 -0.0879  0.3149 -0.3222
  710TIP3    H123621   2.560   5.190   5.999 -1.1819  1.6246 -1.3598
  710TIP3    H223622   2.619   5.327   6.021  1.9350 -0.0626  1.9646
  711TIP3   OH223623   6.116   6.077  14.801  0.4042  0.3829  0.6686
  711TIP3    H123624   6.064   6.116  14.731 -2.5658 -2.2796  1.1153
  711TIP3    H223625   6.087   6.121  14.880 -0.0951 -0.0970  0.7568
  712TIP3   OH223626   4.100   1.630   0.251 -0.0636 -0.1896  0.2185
  712TIP3    H123627   4.098   1.548   0.301  0.6347  0.4671  1.3726
  712TIP3    H223628   4.097   1.699   0.317  2.5077  0.7345 -0.4949
  713TIP3   OH223629   0.028   4.817   1.441  0.5714 -0.3384  0.7042
  713TIP3    H123630   0.088   4.891   1.453 -0.4069  0.4346  0.9438
  713TIP3    H223631   0.079   4.753   1.393  1.4071  0.5461  0.3734
  714TIP3   OH223632   5.324   5.967   5.101  0.1041 -0.3240  0.0267
  714TIP3    H123633   5.238   5.927   5.092  0.2331 -0.7036  0.4765
  714TIP3    H223634   5.373   5.938   5.024 -0.5829  0.9634 -0.9355
  715TIP3   OH223635   4.179   6.694  15.927 -0.3387  0.3667 -0.2702
  715TIP3    H123636   4.097   6.742  15.939 -0.4929  0.4342 -1.4701
  715TIP3    H223637   4.183   6.676  15.833  0.2797 -0.9720 -0.0146
  716TIP3   OH223638   1.978   5.425   0.411  0.6461 -0.3220  0.1153
  716TIP3    H123639   2.002   5.516   0.427 -1.5541  0.7837 -2.1202
  716TIP3    H223640   2.061   5.380   0.394  1.8923  0.9256  2.3984
  717TIP3   OH223641   1.879   1.341   0.692 -0.0333 -0.6871 -0.2944
  717TIP3    H123642   1.830   1.264   0.661  0.4997 -0.0256 -3.0247
  717TIP3    H223643   1.821   1.415   0.674 -0.5021 -0.3688  2.2240
  718TIP3   OH223644   5.981   2.690   0.278 -0.0580  1.0831  0.5536
  718TIP3    H123645   5.935   2.736   0.207 -0.2719  0.5781  0.3603
  718TIP3    H223646   5.924   2.699   0.354  0.1043  1.5048  0.6269
  719TIP3   OH223647   4.772   1.318   3.926  0.1024 -0.2304 -0.2391
  719TIP3    H123648   4.810   1.391   3.974  1.0696 -1.1480  0.4403
  719TIP3    H223649   4.769   1.348   3.835  4.3147 -0.6981 -0.7472
  720TIP3   OH223650   4.972   5.494   3.288  0.0678  0.5402 -0.0459
  720TIP3    H123651   4.932   5.507   3.202 -1.5880 -0.2669  0.5576
  720TIP3    H223652   4.987   5.399   3.293 -1.9261  0.2168  1.3542
  721TIP3   OH223653   0.586   2.281  15.051  0.0125 -0.0511  0.1382
  721TIP3    H123654   0.584   2.349  14.983  0.6332 -0.7069 -0.5407
  721TIP3    H223655   0.631   2.323  15.125 -2.1679  1.2447  0.8134
  722TIP3   OH223656   0.732   2.550   2.136  0.7978 -0.5087 -0.6977
  722TIP3    H123657   0.654   2.561   2.082 -1.1944 -0.6759  1.9214
  722TIP3    H223658   0.778   2.634   2.130 -1.1156  0.6377 -0.1439
  723TIP3   OH223659   4.568   0.835  11.682 -0.1983 -0.1484 -0.4896
  723TIP3    H123660   4.630   0.901  11.713 -1.0072  2.0529 -3.1908
  723TIP3    H223661   4.523   0.876  11.608 -0.3594 -3.9044 -2.7916
  724TIP3   OH223662   6.473   6.744  12.552 -0.6600  0.4792  0.1995
  724TIP3    H123663   6.560   6.712  12.574 -1.1303 -0.6269  0.4899
  724TIP3    H223664   6.470   6.742  12.456  0.1069  1.8578  0.1213
  725TIP3   OH223665   1.124   3.840  13.015  0.3537  0.4131  0.5472
  725TIP3    H123666   1.090   3.792  12.939 -0.7866  2.7347 -0.5037
  725TIP3    H223667   1.055   3.832  13.081  0.0110  0.8614  0.2493
  726TIP3   OH223668   5.172   2.094   4.389  0.1852 -0.0567 -0.2927
  726TIP3    H123669   5.195   2.156   4.457  0.5847 -0.3775 -0.1314
  726TIP3    H223670   5.084   2.063   4.413  0.7096 -0.9028  0.6322
  727TIP3   OH223671   3.331   5.215  13.585  0.2205  0.6357 -0.2780
  727TIP3    H123672   3.266   5.198  13.653  1.7279 -1.9514  0.6792
  727TIP3    H223673   3.299   5.168  13.509  0.2856  0.5326 -0.2415
  728TIP3   OH223674   0.935   1.016   0.495 -0.9021 -0.7097 -0.4763
  728TIP3    H123675   0.880   1.084   0.532  0.8737 -0.2570  1.4972
  728TIP3    H223676   0.972   1.055   0.416 -3.0488 -0.9158 -1.6619
  729TIP3   OH223677   2.983   1.035   5.905  0.1929  0.2674 -0.6114
  729TIP3    H123678   3.024   0.949   5.899 -0.8449 -0.1631 -2.4147
  729TIP3    H223679   3.055   1.097   5.892  0.9919 -0.2850  0.9796
  730TIP3   OH223680   1.728   3.697  12.999  0.6800  0.8382 -0.2861
  730TIP3    H123681   1.682   3.654  12.927 -0.2354  1.0904  0.1437
  730TIP3    H223682   1.821   3.691  12.974  0.5745 -1.1759 -0.3591
  731TIP3   OH223683   2.870   5.383  11.143 -0.0660  0.1772  0.2543
  731TIP3    H123684   2.861   5.475  11.117  0.4404  0.6624  1.7295
  731TIP3    H223685   2.825   5.335  11.073 -0.7457  1.5635 -0.3152
  732TIP3   OH223686   1.632   3.985   6.031  0.3807  0.7636  0.1722
  732TIP3    H123687   1.613   4.079   6.039 -1.6835  0.4586 -0.5735
  732TIP3    H223688   1.597   3.947   6.112 -2.5587  0.1758 -1.2612
  733TIP3   OH223689   3.288   6.843   0.595 -0.0226 -0.0607  0.4441
  733TIP3    H123690   3.379   6.867   0.613 -0.2157 -0.9570  2.8933
  733TIP3    H223691   3.294   6.754   0.560  0.0278 -0.3701  1.2168
  734TIP3   OH223692   1.142   3.155   5.260  0.1459  0.2894  0.4167
  734TIP3    H123693   1.173   3.152   5.169 -0.4843 -2.5455  0.1974
  734TIP3    H223694   1.063   3.209   5.256 -0.5806 -0.7990 -1.0222
  735TIP3   OH223695   4.406   6.137   3.535 -0.0560 -0.1561  0.4472
  735TIP3    H123696   4.410   6.077   3.610 -1.4453 -0.2229  0.4774
  735TIP3    H223697   4.429   6.223   3.572 -0.8059 -0.1757  0.9804
  736TIP3   OH223698   5.042   1.854  13.330  0.1751  0.4992 -0.3970
  736TIP3    H123699   5.025   1.863  13.424 -1.4055  0.8272 -0.7041
  736TIP3    H223700   5.065   1.761  13.320 -2.3548 -0.2331 -0.0553
  737TIP3   OH223701   1.086   6.435   6.657  0.0796 -0.4584 -0.1465
  737TIP3    H123702   1.045   6.503   6.603 -1.5149  1.1895  2.8473
  737TIP3    H223703   1.179   6.444   6.639 -0.2712  0.9416 -1.5453
  738TIP3   OH223704   4.646   4.119   1.990  0.0435  0.2381  0.2145
  738TIP3    H123705   4.680   4.056   1.927 -2.4774 -1.2940  0.2200
  738TIP3    H223706   4.670   4.082   2.076 -1.3098 -0.7355  0.2142
  739TIP3   OH223707   5.317   3.288  13.964 -0.1083  0.2368 -0.1794
  739TIP3    H123708   5.256   3.240  14.020 -0.6111 -0.8262 -1.6067
  739TIP3    H223709   5.397   3.236  13.965 -0.1621  0.1485 -0.5701
  740TIP3   OH223710   3.924   3.007   2.364  0.7795 -0.0871  0.1682
  740TIP3    H123711   3.926   2.938   2.298 -1.2825 -0.6527  0.6227
  740TIP3    H223712   3.855   2.980   2.425 -0.2489  2.4522  0.2581
  741TIP3   OH223713   0.696   6.758   3.740  0.3626  0.3744 -0.0723
  741TIP3    H123714   0.727   6.830   3.796  0.1154 -0.2469  0.8730
  741TIP3    H223715   0.768   6.743   3.679 -0.0196  2.1907 -1.0581
  742TIP3   OH223716   4.023   3.661  15.163  0.8473  0.4786 -0.7367
  742TIP3    H123717   4.000   3.697  15.248 -0.5463  0.2429 -0.9874
  742TIP3    H223718   3.992   3.570  15.166  0.7161  0.4868 -1.5125
  743TIP3   OH223719   5.554   2.876   3.720 -0.4105 -0.1435 -0.5759
  743TIP3    H123720   5.505   2.958   3.729  1.7777  1.1055  0.8127
  743TIP3    H223721   5.604   2.888   3.639 -0.4122 -0.3151 -0.6023
  744TIP3   OH223722   3.552   6.835   1.123  0.0580  0.2979  0.0241
  744TIP3    H123723   3.508   6.883   1.194 -1.7022 -1.4829  0.2247
  744TIP3    H223724   3.611   6.900   1.084  0.5034  1.5634  2.5728
  745TIP3   OH223725   5.598   1.490   3.330 -0.2344  0.2566 -0.4350
  745TIP3    H123726   5.693   1.493   3.337 -0.2150  1.3613 -0.9118
  745TIP3    H223727   5.573   1.578   3.302 -1.3678 -0.1291 -0.7102
  746TIP3   OH223728   6.153   2.750  11.534 -0.6197 -0.1535 -0.2491
  746TIP3    H123729   6.092   2.824  11.540 -0.3879  0.0747 -0.6705
  746TIP3    H223730   6.226   2.784  11.483 -0.0967 -0.3989  0.3248
  747TIP3   OH223731   3.074   0.054   3.841 -0.0596 -0.5589 -0.2416
  747TIP3    H123732   3.062  -0.036   3.811 -1.8366 -1.2051  2.0650
  747TIP3    H223733   3.144   0.048   3.907 -1.9669 -0.8793  1.8901
  748TIP3   OH223734   1.786   2.121  12.075 -0.1021 -0.0500 -0.3637
  748TIP3    H123735   1.697   2.114  12.111 -0.4863 -0.3891 -1.3331
  748TIP3    H223736   1.779   2.188  12.007  0.8014  1.1744  0.7073
  749TIP3   OH223737   1.138   6.472  15.751 -0.2494  0.4756  0.1283
  749TIP3    H123738   1.071   6.494  15.686 -0.3533 -0.2428 -0.0275
  749TIP3    H223739   1.088   6.452  15.830 -0.2843 -0.6897 -0.1665
  750TIP3   OH223740   6.030   3.028  15.074  0.3462  0.0835  0.5411
  750TIP3    H123741   5.981   2.947  15.087  2.0802 -0.9556  0.9455
  750TIP3    H223742   6.119   2.999  15.054  0.9962  1.8949  0.6242
  751TIP3   OH223743   5.840   0.257   5.732 -1.2979 -0.0438 -0.1845
  751TIP3    H123744   5.835   0.292   5.643 -2.2296  0.3964  0.0285
  751TIP3    H223745   5.772   0.190   5.735 -1.4394  0.1156  0.2616
  752TIP3   OH223746   4.713   3.128   0.566  0.5465 -0.0245  0.4585
  752TIP3    H123747   4.684   3.139   0.656 -0.1588 -0.2373  0.2663
  752TIP3    H223748   4.731   3.217   0.535 -0.1761  0.1458  0.5032
  753TIP3   OH223749   0.586   1.354  13.041 -0.8010 -0.2308  0.1702
  753TIP3    H123750   0.506   1.396  13.009 -0.8094 -0.7289 -0.4786
  753TIP3    H223751   0.656   1.394  12.989 -0.6712 -0.1025  0.4414
  754TIP3   OH223752   4.386   6.683   1.997 -0.0967 -0.3372  0.5818
  754TIP3    H123753   4.460   6.627   2.017  0.3719  0.3150  0.7058
  754TIP3    H223754   4.413   6.733   1.920 -1.3420 -1.8166 -0.8952
  755TIP3   OH223755   6.040   1.127  12.447  0.5851  0.5311  0.0369
  755TIP3    H123756   5.946   1.125  12.465  0.5702 -0.7094 -0.0775
  755TIP3    H223757   6.071   1.206  12.490 -0.2287  0.0541  1.5550
  756TIP3   OH223758   5.503   4.749  14.593  0.5708  0.5454 -0.4456
  756TIP3    H123759   5.444   4.794  14.533  0.8383 -0.3153 -1.3875
  756TIP3    H223760   5.531   4.817  14.654 -1.6840  0.9016  0.2972
  757TIP3   OH223761   3.577   3.082   1.400 -0.1597 -0.4971 -0.2842
  757TIP3    H123762   3.651   3.054   1.347  0.1420 -0.5253  0.1483
  757TIP3    H223763   3.598   3.173   1.424 -0.9318 -0.0199 -1.3286
  758TIP3   OH223764   0.583   1.189   0.403 -0.2191  0.3613  0.0667
  758TIP3    H123765   0.646   1.189   0.475  0.6442  0.8826 -0.6623
  758TIP3    H223766   0.629   1.232   0.330 -0.3526 -1.8360 -1.4234
  759TIP3   OH223767   4.796   1.205  16.980 -0.6760  0.2361  0.0223
  759TIP3    H123768   4.831   1.252  17.055 -0.5124 -0.6105  0.4895
  759TIP3    H223769   4.864   1.143  16.956 -1.1524 -0.2280 -0.1572
  760TIP3   OH223770   3.509   0.134   3.725  0.1738  0.3595  0.4687
  760TIP3    H123771   3.449   0.207   3.742 -1.4809 -0.4379 -1.5445
  760TIP3    H223772   3.514   0.129   3.630  3.2582  0.1512  0.5478
  761TIP3   OH223773   0.519   6.486  12.805 -0.2848  0.5728 -0.6165
  761TIP3    H123774   0.430   6.516  12.787 -1.1493 -0.6552  1.2900
  761TIP3    H223775   0.514   6.391  12.795  0.8141  0.4921 -0.4523
  762TIP3   OH223776   4.127   0.617   1.547  0.1257 -0.4002 -0.0348
  762TIP3    H123777   4.207   0.565   1.550  1.1940  1.1942  0.6801
  762TIP3    H223778   4.153   0.698   1.502 -1.8627 -1.0438 -2.6093
  763TIP3   OH223779   4.914   0.909  11.997 -0.4659 -0.1242  0.2259
  763TIP3    H123780   4.879   0.827  12.032 -0.9325  0.0438  0.1549
  763TIP3    H223781   4.877   0.977  12.054 -0.1749  0.0465  0.2124
  764TIP3   OH223782   6.588   4.763   3.828  0.1265  0.3421  0.8032
  764TIP3    H123783   6.521   4.829   3.812 -2.0499 -2.0307 -0.5814
  764TIP3    H223784   6.588   4.708   3.749 -0.8664 -3.4848  3.2068
  765TIP3   OH223785   2.136   1.348   3.143 -0.4057  0.8430 -0.3878
  765TIP3    H123786   2.115   1.409   3.073 -0.0650  0.7114 -0.6043
  765TIP3    H223787   2.091   1.384   3.220  0.3683  1.7602 -0.3450
  766TIP3   OH223788   0.835   2.986  10.228 -0.0230 -0.5103  0.3599
  766TIP3    H123789   0.920   2.996  10.270 -0.3484  0.2735  0.8595
  766TIP3    H223790   0.804   3.076  10.216 -0.6454 -0.7801 -0.0946
  767TIP3   OH223791   2.408   0.897   5.731  0.3563 -0.0997 -0.0767
  767TIP3    H123792   2.315   0.909   5.750  0.0070 -1.9832 -0.3161
  767TIP3    H223793   2.410   0.828   5.663  1.8865  0.6127 -0.8149
  768TIP3   OH223794   4.538   1.301   2.058 -0.0609  0.6877 -0.4214
  768TIP3    H123795   4.562   1.342   1.975  2.0869 -0.6315 -0.5309
  768TIP3    H223796   4.444   1.288   2.052  0.1162  0.1045 -2.9074
  769TIP3   OH223797   1.071   3.405   3.790  0.5449 -0.1117  0.1983
  769TIP3    H123798   1.025   3.328   3.756 -0.6677  1.2024 -1.3872
  769TIP3    H223799   1.001   3.459   3.827  1.5350 -0.3025  2.4958
  770TIP3   OH223800   4.964   3.036   0.439  0.8967  0.1065 -0.5702
  770TIP3    H123801   4.925   2.956   0.404  2.1434 -1.4271  1.3528
  770TIP3    H223802   4.889   3.091   0.463 -0.0393 -1.3974  0.0501
  771TIP3   OH223803   5.815   4.013   1.933  0.4354  0.3404 -0.5175
  771TIP3    H123804   5.722   3.994   1.923  0.3548  0.3875  0.1043
  771TIP3    H223805   5.831   4.085   1.872 -0.4405  1.8541  0.9461
  772TIP3   OH223806   5.997   0.800  16.110  0.3051  0.3553  0.5097
  772TIP3    H123807   5.935   0.869  16.087 -0.4940 -0.7449 -0.7135
  772TIP3    H223808   6.053   0.791  16.032 -1.4780 -2.3775 -0.5916
  773TIP3   OH223809   6.582   4.726  17.104  0.0528  0.4614 -0.7033
  773TIP3    H123810   6.533   4.645  17.120 -1.2774  1.3106 -0.3582
  773TIP3    H223811   6.550   4.787  17.171  2.4342  0.7290  0.3272
  774TIP3   OH223812   2.918   0.799   0.393  0.1657  0.2914  0.3691
  774TIP3    H123813   2.876   0.840   0.468  0.1840  0.6099  0.2084
  774TIP3    H223814   3.002   0.844   0.385  0.1287  0.3141  0.1084
  775TIP3   OH223815   1.945   4.344  10.982  0.1117 -0.0207 -0.5173
  775TIP3    H123816   1.864   4.361  10.934  0.6606 -0.0533 -1.4737
  775TIP3    H223817   1.984   4.430  10.996 -0.6702  0.1132  1.0215
  776TIP3   OH223818   5.718   2.625  13.632 -1.1635 -0.3612 -0.1247
  776TIP3    H123819   5.680   2.713  13.628  0.3628  0.3816  0.7915
  776TIP3    H223820   5.644   2.566  13.617 -2.3923  1.0470  0.1606
  777TIP3   OH223821   6.737   2.263  16.412 -0.1187 -0.2609  0.3721
  777TIP3    H123822   6.673   2.211  16.460 -0.3934  0.6816  1.0741
  777TIP3    H223823   6.796   2.199  16.372 -0.4040 -1.0922  1.2515
  778TIP3   OH223824   4.741   1.471  15.939 -0.2665 -0.2338  0.3081
  778TIP3    H123825   4.734   1.459  15.844 -1.9409 -0.0257  0.3736
  778TIP3    H223826   4.652   1.456  15.972  0.2519 -0.1367  1.8288
  779TIP3   OH223827   5.052   1.724  11.495  0.2075  0.2691 -0.2688
  779TIP3    H123828   4.995   1.758  11.563  0.7544 -0.3867  0.5296
  779TIP3    H223829   5.048   1.789  11.425  0.1220  1.2443  0.6338
  780TIP3   OH223830   4.039   5.968   6.632 -0.2115  0.0421 -0.1505
  780TIP3    H123831   4.089   5.961   6.713 -0.0487  0.2244 -0.2341
  780TIP3    H223832   4.101   6.005   6.569 -0.8113  1.4961  0.0758
  781TIP3   OH223833   5.112   1.672  15.298  0.1403  0.3956  0.5204
  781TIP3    H123834   5.043   1.695  15.236  0.4652  0.0153  0.0055
  781TIP3    H223835   5.193   1.700  15.255  0.4538 -0.7203  0.3321
  782TIP3   OH223836   4.267   0.016  14.844  0.1019  0.4103 -0.1109
  782TIP3    H123837   4.320  -0.039  14.786 -0.3262 -0.7406  0.5461
  782TIP3    H223838   4.233   0.086  14.788 -0.0731 -0.5148 -1.1902
  783TIP3   OH223839   5.975   1.189  11.760 -0.4831 -0.2775  0.2020
  783TIP3    H123840   6.014   1.213  11.844 -2.0587 -1.2349  1.2815
  783TIP3    H223841   6.042   1.136  11.716  0.3544  0.2160  0.8638
  784TIP3   OH223842   1.404   5.329  12.672 -0.9438  0.1745  0.0245
  784TIP3    H123843   1.367   5.402  12.623  0.1027  0.0725 -0.9573
  784TIP3    H223844   1.455   5.280  12.608 -0.1751 -0.4158  1.0538
  785TIP3   OH223845   2.017   6.542   4.403  0.1310 -0.8647  0.2272
  785TIP3    H123846   2.088   6.477   4.405  1.8537  0.9270 -0.2970
  785TIP3    H223847   2.021   6.578   4.315 -0.3405  0.4380  0.7271
  786TIP3   OH223848   1.199   1.963  15.281 -0.1662 -0.2882  0.4213
  786TIP3    H123849   1.290   1.962  15.251 -0.8495  0.8118 -1.9729
  786TIP3    H223850   1.171   1.872  15.276 -0.1229 -0.2392 -2.1996
  787TIP3   OH223851   5.696   3.873  14.726 -0.2554  0.2624 -0.0191
  787TIP3    H123852   5.749   3.953  14.726 -1.2510  0.9979  1.9491
  787TIP3    H223853   5.627   3.889  14.662  0.9840 -0.1016 -1.5056
  788TIP3   OH223854   5.648   5.998  13.845  0.0226  0.0272  0.2132
  788TIP3    H123855   5.703   5.926  13.814  1.8546  0.3613  2.4671
  788TIP3    H223856   5.601   5.961  13.920  0.4935  0.9831  0.9908
  789TIP3   OH223857   2.714   0.802   5.858 -0.0883  0.5484 -0.0623
  789TIP3    H123858   2.656   0.861   5.906  0.1982  1.1914 -0.4893
  789TIP3    H223859   2.655   0.741   5.813 -0.3679  0.1336  0.8320
  790TIP3   OH223860   4.667   4.593  14.170 -0.1264 -0.0802 -0.7317
  790TIP3    H123861   4.706   4.527  14.228  0.0750 -0.1959 -0.9955
  790TIP3    H223862   4.627   4.657  14.229  1.2146  0.5101 -0.4338
  791TIP3   OH223863   2.720   5.980   4.900  0.0448 -0.3438  0.6708
  791TIP3    H123864   2.718   5.913   4.832  2.3262 -0.8048  0.9850
  791TIP3    H223865   2.640   5.966   4.950 -0.3398 -1.7566 -0.2773
  792TIP3   OH223866   2.145   0.572  16.592 -0.7110  0.1035  0.2363
  792TIP3    H123867   2.074   0.511  16.570 -0.1179 -1.6060  2.6020
  792TIP3    H223868   2.222   0.516  16.604  0.5711  1.6771 -0.1943
  793TIP3   OH223869   0.787   3.979   6.728  0.1832  0.2704  0.7292
  793TIP3    H123870   0.708   4.033   6.732 -0.7015 -1.0330  2.1643
  793TIP3    H223871   0.851   4.034   6.682 -1.5992  1.2691 -0.7008
  794TIP3   OH223872   0.085   3.154  15.083  0.0272  0.3545  0.4339
  794TIP3    H123873   0.031   3.182  15.157  1.7449  0.5610  1.6743
  794TIP3    H223874   0.144   3.228  15.068 -0.6081  0.5313 -1.5277
  795TIP3   OH223875   5.120   4.865  12.485 -0.2965  0.3438 -0.3423
  795TIP3    H123876   5.164   4.781  12.500  1.0226  0.7611 -1.5761
  795TIP3    H223877   5.175   4.929  12.530 -1.4839  0.5329  0.8852
  796TIP3   OH223878   2.807   2.622   3.679 -0.5930  0.4131 -0.3864
  796TIP3    H123879   2.840   2.583   3.760 -1.3361 -1.0487 -0.7652
  796TIP3    H223880   2.761   2.551   3.635  2.6002  0.0942 -3.7463
  797TIP3   OH223881   0.649   6.769   2.396 -0.0393 -0.8313  0.2748
  797TIP3    H123882   0.632   6.841   2.336  0.7534 -0.3757  0.5770
  797TIP3    H223883   0.568   6.718   2.398 -0.0597 -0.8830 -1.2180
  798TIP3   OH223884   5.876   4.956   3.548 -0.6841  0.0301 -0.2139
  798TIP3    H123885   5.862   4.862   3.555  0.8165 -0.2259 -0.2993
  798TIP3    H223886   5.951   4.964   3.488 -0.1875  1.2196  0.5335
  799TIP3   OH223887   3.861   2.162  15.420  0.0363  0.6642 -0.2569
  799TIP3    H123888   3.813   2.100  15.475  1.1081 -0.4681 -0.5483
  799TIP3    H223889   3.848   2.247  15.462  0.8131 -0.1579  1.7756
  800TIP3   OH223890   3.579   4.752  11.136  0.1211  0.2558 -0.0519
  800TIP3    H123891   3.514   4.726  11.071  0.2183  1.8980 -0.8445
  800TIP3    H223892   3.602   4.842  11.113  1.0139  0.4792  1.5770
  801TIP3   OH223893   0.732   1.458   5.399  0.3402 -0.4610 -0.2893
  801TIP3    H123894   0.816   1.462   5.446 -0.1779  0.2284  0.6133
  801TIP3    H223895   0.722   1.544   5.360 -1.7477  0.9683  2.9366
  802TIP3   OH223896   1.508   1.436   3.510 -0.4893  0.2870 -0.9365
  802TIP3    H123897   1.558   1.496   3.455 -2.3994  2.6875 -0.2270
  802TIP3    H223898   1.424   1.427   3.465 -1.4845  0.9758  0.6961
  803TIP3   OH223899   0.663   0.504   5.686 -0.1163  0.2546  0.0595
  803TIP3    H123900   0.689   0.551   5.607 -1.6971 -1.2553 -1.4419
  803TIP3    H223901   0.681   0.412   5.666 -4.7515 -0.7752 -0.5501
  804TIP3   OH223902   1.574   0.177   6.822 -0.2571 -0.8479 -0.8367
  804TIP3    H123903   1.510   0.149   6.887 -0.9223  1.2156 -0.5478
  804TIP3    H223904   1.525   0.235   6.764  1.1713  0.1633 -1.0605
  805TIP3   OH223905   4.102   4.209  13.604  0.3309  0.0621  0.2406
  805TIP3    H123906   4.031   4.147  13.590 -0.7788  1.8986 -3.4619
  805TIP3    H223907   4.096   4.232  13.697 -1.8198 -2.2159  0.7499
  806TIP3   OH223908   6.360   0.589   5.108 -0.2060  1.1158 -0.6036
  806TIP3    H123909   6.411   0.583   5.189  0.8654  1.4975 -1.2268
  806TIP3    H223910   6.392   0.669   5.066 -1.2793  1.3203 -1.0526
  807TIP3   OH223911   2.305   1.146   4.077 -0.0804  0.3420  0.0414
  807TIP3    H123912   2.360   1.097   4.138  0.6043 -0.2189 -0.9939
  807TIP3    H223913   2.256   1.207   4.132  0.0108 -0.6176  1.2125
  808TIP3   OH223914   1.725   6.028   5.423 -0.4746  0.8853  0.0773
  808TIP3    H123915   1.722   6.048   5.517  0.2640 -1.3509  0.6377
  808TIP3    H223916   1.685   5.941   5.416  1.2711  0.1501 -1.3822
  809TIP3   OH223917   3.108   1.977  11.736 -0.0916  1.0590  0.1620
  809TIP3    H123918   3.146   1.889  11.733  0.4675  1.3235 -1.4617
  809TIP3    H223919   3.068   1.982  11.822 -1.4501 -1.3381 -0.2368
  810TIP3   OH223920   0.810   2.109  14.466  0.2476  0.4544 -0.5287
  810TIP3    H123921   0.724   2.124  14.507 -0.1403 -1.1905 -0.6772
  810TIP3    H223922   0.809   2.166  14.389 -1.9483 -1.5761 -2.1641
  811TIP3   OH223923   3.331   1.568  13.772 -0.2331 -0.5467 -0.5220
  811TIP3    H123924   3.297   1.657  13.768 -1.5542 -0.9057  1.2212
  811TIP3    H223925   3.277   1.519  13.710  0.6139 -0.1327 -1.6166
  812TIP3   OH223926   5.940   2.294   2.125  0.2851  0.0369 -0.0709
  812TIP3    H123927   5.921   2.253   2.210 -1.2568  0.9061  0.0436
  812TIP3    H223928   5.854   2.317   2.090  0.9122 -0.1587 -1.8105
  813TIP3   OH223929   4.977   4.564   4.496  0.8178 -0.2331 -0.2077
  813TIP3    H123930   4.909   4.588   4.559  3.4118  0.3296  2.6078
  813TIP3    H223931   4.947   4.481   4.459 -0.8434 -0.5946  1.7653
  814TIP3   OH223932   0.509   6.303   0.870  0.5936  0.1810 -0.2865
  814TIP3    H123933   0.450   6.360   0.821  1.6581  1.3126 -0.3069
  814TIP3    H223934   0.521   6.227   0.814  1.8976  1.4993 -1.8905
  815TIP3   OH223935   2.612   1.422   4.311  0.5507  0.5047 -0.3932
  815TIP3    H123936   2.682   1.373   4.354 -0.5133  0.6525  1.6480
  815TIP3    H223937   2.598   1.498   4.368 -1.2940  0.4353 -0.6930
  816TIP3   OH223938   0.489   3.843   4.443  0.1703  0.1466 -0.2058
  816TIP3    H123939   0.500   3.752   4.470  1.4845  0.0744 -0.8945
  816TIP3    H223940   0.395   3.858   4.446  0.0892 -0.4651  2.3303
  817TIP3   OH223941   2.739   4.488  13.563  0.8971  0.6268  0.0017
  817TIP3    H123942   2.800   4.537  13.619  2.5944  0.5401 -1.6475
  817TIP3    H223943   2.787   4.408  13.541 -0.2971  0.0214 -0.4552
  818TIP3   OH223944   6.428   1.483  12.616 -0.2148  0.2388  0.0120
  818TIP3    H123945   6.495   1.469  12.682 -0.9348  1.0925  0.9494
  818TIP3    H223946   6.459   1.557  12.565  0.9275 -1.1585 -1.4329
  819TIP3   OH223947   0.764   1.309   1.827  0.2025 -0.1082 -0.6016
  819TIP3    H123948   0.787   1.399   1.851  1.5823 -0.0606 -1.9400
  819TIP3    H223949   0.775   1.306   1.732 -1.3097 -1.3001 -0.7741
  820TIP3   OH223950   1.538   1.893  13.995  0.2770 -0.6470  0.3795
  820TIP3    H123951   1.575   1.805  13.984 -0.1901 -0.9118  0.8665
  820TIP3    H223952   1.492   1.889  14.079  1.4198  0.4779  1.0957
  821TIP3   OH223953   2.067   4.732   3.514 -0.1607 -0.2723  0.3224
  821TIP3    H123954   2.064   4.663   3.447 -0.5654 -0.7592  0.8257
  821TIP3    H223955   2.110   4.805   3.472  1.9310 -1.4373  0.3238
  822TIP3   OH223956   4.264   6.068  14.862  0.0120  0.0314 -0.1814
  822TIP3    H123957   4.207   6.072  14.785 -0.5630 -0.6275  0.1985
  822TIP3    H223958   4.323   5.995  14.844  0.2220  0.2093 -0.2214
  823TIP3   OH223959   1.924   4.765  16.726  0.2712  0.3398 -0.1318
  823TIP3    H123960   1.899   4.675  16.704  0.5523 -0.0969  1.2260
  823TIP3    H223961   1.992   4.788  16.663 -0.7639  0.1100 -1.3629
  824TIP3   OH223962   4.415   1.165   2.729  0.3460  0.3562 -0.2649
  824TIP3    H123963   4.368   1.093   2.689 -0.8827  0.9918 -0.0028
  824TIP3    H223964   4.349   1.234   2.742  1.2567  1.1383  0.4345
  825TIP3   OH223965   1.376   0.513   2.431 -0.1448  0.1787 -0.2325
  825TIP3    H123966   1.413   0.437   2.476 -0.8492  0.2954  0.5763
  825TIP3    H223967   1.440   0.583   2.444  0.0191 -0.0021 -0.0667
  826TIP3   OH223968   5.669   3.846  13.426 -0.2800 -0.1944 -0.2405
  826TIP3    H123969   5.662   3.783  13.498 -1.5275  0.3668  0.1684
  826TIP3    H223970   5.578   3.867  13.404  0.0984  1.6387 -0.1835
  827TIP3   OH223971   0.270   0.160  12.231  0.0251  0.7083 -0.1718
  827TIP3    H123972   0.302   0.106  12.159 -1.8017 -0.6701 -0.0241
  827TIP3    H223973   0.285   0.107  12.309 -0.7445  0.8818  0.1020
  828TIP3   OH223974   5.895   1.972   5.588  0.5632  0.0642  0.3856
  828TIP3    H123975   5.940   2.039   5.640  1.3547  0.1177 -0.3433
  828TIP3    H223976   5.948   1.964   5.509 -1.1459  0.6777 -0.8680
  829TIP3   OH223977   2.091   6.547  17.174 -0.0994 -0.0572  0.7717
  829TIP3    H123978   2.132   6.589  17.249 -0.8564 -1.3641  1.9653
  829TIP3    H223979   2.098   6.453  17.191 -0.6078 -0.3794 -0.6169
  830TIP3   OH223980   3.081   0.348   3.969  0.2678 -0.1767  0.5645
  830TIP3    H123981   3.005   0.404   3.984  1.5729  1.6497  0.7245
  830TIP3    H223982   3.047   0.275   3.917 -1.6847  0.2756  1.1144
  831TIP3   OH223983   2.551   5.183   3.236  0.4598 -0.2128 -0.2066
  831TIP3    H123984   2.596   5.224   3.162 -0.3714  1.3019  0.0866
  831TIP3    H223985   2.495   5.252   3.271  1.1291 -0.7512  2.1071
  832TIP3   OH223986   5.628   4.181   5.087 -0.1937 -0.4913  0.5223
  832TIP3    H123987   5.567   4.247   5.054  0.0539 -0.8799 -0.8018
  832TIP3    H223988   5.594   4.098   5.053 -0.2433 -1.0011  1.7748
  833TIP3   OH223989   1.335   4.424  14.994 -0.6379 -0.1885  0.5459
  833TIP3    H123990   1.310   4.443  15.084 -0.6958 -0.4231  0.5808
  833TIP3    H223991   1.381   4.503  14.964  1.2133 -0.8445  1.4621
  834TIP3   OH223992   4.360   6.460  11.716  0.5295 -0.4981  0.6138
  834TIP3    H123993   4.373   6.444  11.809  0.5583  0.0382  0.7020
  834TIP3    H223994   4.425   6.403  11.673  0.5761 -0.6801  0.9199
  835TIP3   OH223995   4.470   4.156   5.305 -0.5675  0.1438 -0.0292
  835TIP3    H123996   4.387   4.203   5.321 -0.3698  0.4740  0.0501
  835TIP3    H223997   4.514   4.156   5.390 -0.6684 -0.3920  0.0221
  836TIP3   OH223998   5.256   1.775   1.605  0.1797 -0.1208 -0.2202
  836TIP3    H123999   5.292   1.759   1.692 -1.7370 -0.7607  0.5041
  836TIP3    H224000   5.225   1.866   1.609 -0.9913 -0.5212  0.2030
  837TIP3   OH224001   4.150   0.152   3.153 -0.7300 -0.5633  0.7818
  837TIP3    H124002   4.224   0.117   3.102  1.2404  0.9470  2.4607
  837TIP3    H224003   4.154   0.246   3.138 -1.1150 -0.2713  2.4194
  838TIP3   OH224004   3.123   2.727  11.403  0.2217  0.3080 -0.1033
  838TIP3    H124005   3.061   2.682  11.347 -0.2150  0.9162 -0.1186
  838TIP3    H224006   3.164   2.793  11.347  0.2046  0.5327  0.1471
  839TIP3   OH224007   3.605   0.126   2.632 -0.6922  0.8316  0.4483
  839TIP3    H124008   3.623   0.083   2.549 -2.5213  2.0643 -0.6675
  839TIP3    H224009   3.691   0.139   2.672  0.7151  3.4764 -2.9544
  840TIP3   OH224010   1.145   3.048   1.930  0.2225  0.2568 -0.3780
  840TIP3    H124011   1.108   3.122   1.882  1.5304  0.3803 -1.2352
  840TIP3    H224012   1.144   3.076   2.022  2.3736  2.1249 -0.8504
  841TIP3   OH224013   6.441   6.440   2.383  0.2054  0.6594 -0.4547
  841TIP3    H124014   6.413   6.354   2.415 -0.0403  0.4877 -1.1169
  841TIP3    H224015   6.515   6.463   2.439 -1.4577  1.3178  1.6047
  842TIP3   OH224016   6.275   3.804  10.749 -0.5058 -0.5402 -0.0284
  842TIP3    H124017   6.282   3.829  10.842 -2.0610  0.2546 -0.1053
  842TIP3    H224018   6.218   3.870  10.710  0.6377 -0.4895 -1.7256
  843TIP3   OH224019   6.490   3.374   6.282  0.3168 -0.1564  0.4088
  843TIP3    H124020   6.439   3.304   6.241  1.1189 -1.0106  0.8476
  843TIP3    H224021   6.445   3.390   6.365 -0.3720  0.4718 -0.0652
  844TIP3   OH224022   4.092   1.878  16.865 -0.0427 -0.6904 -0.5213
  844TIP3    H124023   4.176   1.851  16.902 -0.0913 -0.6079 -0.3481
  844TIP3    H224024   4.115   1.928  16.787  0.0222 -3.1369 -2.1912
  845TIP3   OH224025   1.135   5.688  11.605 -0.6863 -0.0342  0.1726
  845TIP3    H124026   1.229   5.699  11.621 -0.3710 -1.7816 -0.2261
  845TIP3    H224027   1.123   5.712  11.513 -1.0024  1.9840  0.6953
  846TIP3   OH224028   6.391   5.399  13.515  0.6651  0.4208 -0.4537
  846TIP3    H124029   6.427   5.479  13.552  2.2509 -0.4166 -0.0977
  846TIP3    H224030   6.457   5.371  13.451  0.2402 -0.7158 -0.4115
  847TIP3   OH224031   1.841   0.598   4.706 -0.2856 -0.1819  0.1182
  847TIP3    H124032   1.842   0.679   4.655  1.0158  0.4563  1.1077
  847TIP3    H224033   1.902   0.613   4.777  0.8542 -2.4378 -0.2762
  848TIP3   OH224034   0.870   5.652   2.778  0.6895 -0.2784 -0.1259
  848TIP3    H124035   0.822   5.576   2.811  1.5667 -0.2758  1.2125
  848TIP3    H224036   0.851   5.722   2.841  0.5571  0.3964 -0.8950
  849TIP3   OH224037   5.414   6.456  12.140 -0.1038  0.2969  0.0191
  849TIP3    H124038   5.403   6.532  12.083  0.0313  0.9656  0.8575
  849TIP3    H224039   5.508   6.437  12.137  0.3879  2.0332  2.0778
  850TIP3   OH224040   0.640   1.765   2.149  0.3377 -0.0757  0.2160
  850TIP3    H124041   0.672   1.763   2.239  0.4176  1.9645  0.2631
  850TIP3    H224042   0.718   1.744   2.096  0.1717 -1.8104  0.5994
  851TIP3   OH224043   5.156   4.868   4.557  0.0658  0.1884 -0.2436
  851TIP3    H124044   5.197   4.784   4.535 -1.1823 -0.0351 -1.9107
  851TIP3    H224045   5.201   4.932   4.501  1.6927  0.8704  1.7188
  852TIP3   OH224046   3.398   0.390   1.257  0.6203 -0.1110 -0.5540
  852TIP3    H124047   3.430   0.479   1.251  0.1944  0.0848 -0.0099
  852TIP3    H224048   3.397   0.358   1.166  2.0367 -0.0266 -0.6259
  853TIP3   OH224049   6.155   2.027   3.444 -0.2852  0.3977 -0.6567
  853TIP3    H124050   6.112   2.040   3.359  0.2579  0.1662 -0.9736
  853TIP3    H224051   6.230   1.970   3.424  0.8800  1.7561 -0.3278
  854TIP3   OH224052   5.290   3.232   2.723  0.5108  0.2110 -0.2202
  854TIP3    H124053   5.227   3.302   2.740  0.3981  0.1869 -0.5340
  854TIP3    H224054   5.374   3.276   2.711  0.0373  0.5384 -2.8493
  855TIP3   OH224055   2.642   2.891  15.405  0.1677 -0.2885 -0.1582
  855TIP3    H124056   2.664   2.801  15.380  3.1804 -0.0973  1.4376
  855TIP3    H224057   2.665   2.943  15.328  1.0291 -0.6224 -0.1390
  856TIP3   OH224058   0.392   4.099  13.879  0.1527 -0.2142 -0.2169
  856TIP3    H124059   0.324   4.163  13.857  1.7400  1.7855  0.4263
  856TIP3    H224060   0.453   4.103  13.806  0.5260 -0.6583  0.0639
  857TIP3   OH224061   0.752   5.057   1.717 -0.2696 -0.4437 -0.5877
  857TIP3    H124062   0.679   5.053   1.655 -1.7466 -0.8767  1.0971
  857TIP3    H224063   0.830   5.054   1.662 -1.4970 -0.1201 -2.4553
  858TIP3   OH224064   2.020   2.199   1.384  0.0182 -0.4954 -0.0122
  858TIP3    H124065   2.108   2.210   1.348  0.3011  1.0386  1.0790
  858TIP3    H224066   2.018   2.256   1.460 -1.9375 -0.5088 -0.0123
  859TIP3   OH224067   1.380   0.068   4.800 -0.1294  0.2047  0.2544
  859TIP3    H124068   1.303   0.015   4.821  1.2386 -1.8874  0.3048
  859TIP3    H224069   1.396   0.052   4.707  0.7679 -0.1425  0.4585
  860TIP3   OH224070   5.298   3.821   3.751  0.0175 -0.5791 -0.3609
  860TIP3    H124071   5.345   3.746   3.714 -1.3042 -1.2839 -0.6636
  860TIP3    H224072   5.212   3.819   3.708 -0.2417  0.7834  0.0417
  861TIP3   OH224073   2.140   4.194  14.029  0.2081  0.7722 -0.7369
  861TIP3    H124074   2.157   4.276  13.984  1.9936 -0.0101 -1.6056
  861TIP3    H224075   2.057   4.163  13.993 -0.8982  2.5174  0.1697
  862TIP3   OH224076   3.608   1.060  14.287 -0.5392 -0.4118  0.8081
  862TIP3    H124077   3.556   1.023  14.216 -1.2478  1.5408  0.2383
  862TIP3    H224078   3.660   0.987  14.320  0.6382 -1.2081 -2.4373
  863TIP3   OH224079   6.333   0.278   0.684 -0.0455  0.0710 -0.0011
  863TIP3    H124080   6.354   0.205   0.742 -0.8267 -0.6594 -0.6127
  863TIP3    H224081   6.246   0.306   0.712 -0.0524  0.2890 -0.2381
  864TIP3   OH224082   2.617   0.553   5.774 -0.0513  0.2967 -0.3522
  864TIP3    H124083   2.548   0.509   5.823  0.3917 -1.0684 -0.9017
  864TIP3    H224084   2.695   0.500   5.789  0.5764  1.0566 -0.8253
  865TIP3   OH224085   0.266   1.718  14.652 -0.0861 -0.1371  0.6641
  865TIP3    H124086   0.298   1.804  14.679 -0.6913  0.4827 -0.5347
  865TIP3    H224087   0.338   1.680  14.602  0.6760 -0.9024  2.2371
  866TIP3   OH224088   1.592   3.041  13.012  0.1592 -0.0419 -0.2976
  866TIP3    H124089   1.639   3.074  12.935  3.7380 -1.7022  0.9255
  866TIP3    H224090   1.563   3.120  13.058  0.5981  1.0738 -1.8555
  867TIP3   OH224091   5.876   5.823   1.950 -0.4402 -0.3110  0.5013
  867TIP3    H124092   5.803   5.760   1.953 -1.4566  0.6042 -2.2336
  867TIP3    H224093   5.943   5.779   1.897  0.5853 -0.6781  2.0396
  868TIP3   OH224094   4.993   4.188   4.563 -0.1229 -0.3407 -0.2706
  868TIP3    H124095   4.945   4.210   4.484 -2.0398 -0.1539  0.8848
  868TIP3    H224096   5.077   4.232   4.553 -0.8797  0.8727 -1.5586
  869TIP3   OH224097   0.566   6.012   4.444 -0.5813  0.0647  0.2514
  869TIP3    H124098   0.627   6.081   4.471  0.8986 -0.8930 -0.4892
  869TIP3    H224099   0.561   5.954   4.519  0.3655 -0.4682 -0.0804
  870TIP3   OH224100   2.630   5.053  15.639 -0.0519 -0.6988 -0.0240
  870TIP3    H124101   2.595   4.972  15.675  2.0964 -1.4723  0.4757
  870TIP3    H224102   2.691   5.026  15.570 -1.4192  0.6377 -1.8551
  871TIP3   OH224103   6.577   3.139  10.157  0.2450 -0.0804 -0.1500
  871TIP3    H124104   6.533   3.200  10.098 -1.5685 -0.1402  1.0381
  871TIP3    H224105   6.592   3.190  10.237 -0.1413 -0.8287  0.4104
  872TIP3   OH224106   5.104   5.240   2.604 -0.3451 -0.7014 -0.0901
  872TIP3    H124107   5.150   5.319   2.633 -0.5733 -0.1466 -1.1999
  872TIP3    H224108   5.026   5.273   2.559 -0.1160 -1.5393 -1.1346
  873TIP3   OH224109   0.938   4.485   3.013  0.1062 -0.0123  0.4008
  873TIP3    H124110   1.027   4.519   3.012  0.2146 -0.0096  3.2253
  873TIP3    H224111   0.884   4.560   3.035 -0.1937 -0.6612  1.9533
  874TIP3   OH224112   3.985   0.490  16.759  0.2282  0.5749  0.6102
  874TIP3    H124113   3.964   0.578  16.791  1.6272  0.5517  1.6922
  874TIP3    H224114   3.906   0.462  16.713  0.5554  3.3243 -1.9313
  875TIP3   OH224115   1.908   5.720   3.351 -0.1183 -0.4175  0.2206
  875TIP3    H124116   1.832   5.664   3.368 -0.2639 -0.2892  0.0091
  875TIP3    H224117   1.874   5.789   3.293 -0.5816  1.3818  2.5020
  876TIP3   OH224118   3.203   5.854   2.679  0.0767 -0.1145 -0.0229
  876TIP3    H124119   3.116   5.894   2.673  0.5865  0.9601 -0.7931
  876TIP3    H224120   3.221   5.824   2.590  0.8136  0.4147 -0.0656
  877TIP3   OH224121   4.995   3.011   4.672  0.1383 -0.8419  0.0510
  877TIP3    H124122   4.964   2.932   4.716  1.2853 -0.7735  1.0409
  877TIP3    H224123   5.077   2.984   4.630 -1.1650 -1.0524 -2.6068
  878TIP3   OH224124   1.619   1.059  16.124  0.5750  0.5452  0.0057
  878TIP3    H124125   1.558   1.021  16.062  0.4862  0.6616  0.0221
  878TIP3    H224126   1.671   0.984  16.155  1.2281  0.6149 -0.8736
  879TIP3   OH224127   5.858   0.825  11.831  0.4376  0.0980 -0.0162
  879TIP3    H124128   5.784   0.764  11.825 -0.1763  0.8595 -0.3847
  879TIP3    H224129   5.817   0.912  11.833  1.2825  0.4853  0.8497
  880TIP3   OH224130   5.116   5.477  15.710  0.5442 -0.1562 -0.8191
  880TIP3    H124131   5.190   5.501  15.655 -0.2230 -0.6614 -2.1210
  880TIP3    H224132   5.043   5.465  15.649 -0.6022  0.2572  0.4129
  881TIP3   OH224133   4.974   3.274  15.030  0.0691  0.3520  0.3238
  881TIP3    H124134   4.910   3.217  15.073  1.1897  0.3684  2.1010
  881TIP3    H224135   4.992   3.232  14.946 -1.7289 -0.0084  0.0848
  882TIP3   OH224136   4.325   2.753  14.462  0.2661  0.0472 -0.5246
  882TIP3    H124137   4.380   2.676  14.481  0.1466 -0.2865 -1.4617
  882TIP3    H224138   4.387   2.826  14.460  0.0986  0.4145  2.6477
  883TIP3   OH224139   5.955   0.589   1.388  0.3697 -0.6470  0.0802
  883TIP3    H124140   5.875   0.632   1.359  0.8946  0.1555 -0.2100
  883TIP3    H224141   6.026   0.643   1.352  1.0499 -0.3224  1.7841
  884TIP3   OH224142   2.691   3.728  15.451  0.0473  0.0539  0.7071
  884TIP3    H124143   2.606   3.686  15.467  0.0084 -0.6375 -1.0896
  884TIP3    H224144   2.669   3.817  15.427 -0.2803 -0.4302 -0.8650
  885TIP3   OH224145   6.214   0.609   3.905  0.3394  0.3369 -0.1623
  885TIP3    H124146   6.144   0.578   3.848  0.4722 -0.8700  0.2885
  885TIP3    H224147   6.199   0.703   3.914  0.7062  0.6907 -2.6989
  886TIP3   OH224148   6.382   2.679  13.162  0.6816 -0.1070 -0.0348
  886TIP3    H124149   6.427   2.683  13.247  0.4192  0.4835  0.0771
  886TIP3    H224150   6.447   2.710  13.099  1.5292 -2.2859 -0.3383
  887TIP3   OH224151   2.700   1.249   2.423  0.0379 -0.2772 -0.3285
  887TIP3    H124152   2.754   1.326   2.404  0.4003 -0.3284  0.4526
  887TIP3    H224153   2.733   1.181   2.364  0.0945 -0.0001 -0.6212
  888TIP3   OH224154   6.635   2.878   2.243  0.4733 -0.4884  0.0762
  888TIP3    H124155   6.609   2.911   2.157  1.7479 -0.0190 -0.1405
  888TIP3    H224156   6.726   2.850   2.232 -0.1250 -2.8433  0.6075
  889TIP3   OH224157   3.231   0.883  12.485 -0.3372 -0.0303  0.1982
  889TIP3    H124158   3.235   0.966  12.438  2.5193 -1.5196 -2.5220
  889TIP3    H224159   3.189   0.822  12.425  1.8687 -1.6103  0.1504
  890TIP3   OH224160   3.476   3.343   0.203  0.2479  0.0791 -0.4458
  890TIP3    H124161   3.420   3.314   0.131  0.2760  0.8581 -0.8023
  890TIP3    H224162   3.445   3.295   0.280  0.0364 -0.5583 -0.9262
  891TIP3   OH224163   2.954   5.630   2.678 -0.0212  0.2474 -0.1526
  891TIP3    H124164   2.956   5.698   2.611 -0.5189  0.4016 -0.0146
  891TIP3    H224165   3.022   5.568   2.651  1.7543  1.7297  0.7198
  892TIP3   OH224166   6.526   2.330  12.568 -0.5685 -0.0452  0.1896
  892TIP3    H124167   6.439   2.316  12.603 -0.6637  0.0618 -0.0012
  892TIP3    H224168   6.512   2.357  12.477 -0.2702 -2.7684 -0.7711
  893TIP3   OH224169   0.588   1.427  11.420 -0.7053 -0.6793  0.3472
  893TIP3    H124170   0.608   1.507  11.373  1.2871 -0.5937  1.2288
  893TIP3    H224171   0.547   1.457  11.502 -2.1429 -0.7194 -0.3301
  894TIP3   OH224172   2.840   5.983  15.573  0.0645 -0.4149 -0.4444
  894TIP3    H124173   2.812   5.925  15.644 -2.0417 -0.0777 -0.9314
  894TIP3    H224174   2.889   6.052  15.617 -1.0475 -0.3115  0.6854
  895TIP3   OH224175   6.604   1.481  12.346 -0.0761  0.0060  0.1978
  895TIP3    H124176   6.650   1.483  12.262  0.6048 -1.7299  0.5051
  895TIP3    H224177   6.627   1.564  12.387  2.1320 -0.4335 -0.0142
  896TIP3   OH224178   3.698   1.473  12.902  0.0886  0.1141 -0.0139
  896TIP3    H124179   3.689   1.388  12.943  0.2616 -0.1070 -0.4302
  896TIP3    H224180   3.645   1.468  12.822  0.2181  0.3456 -0.1171
  897TIP3   OH224181   3.250   3.377   2.253  0.4812  0.0586  0.1006
  897TIP3    H124182   3.225   3.315   2.322 -0.5932 -1.9164 -1.9195
  897TIP3    H224183   3.169   3.393   2.204  1.5610 -0.3055 -1.9378
  898TIP3   OH224184   1.848   5.785  13.293  0.4698  0.1091  0.5167
  898TIP3    H124185   1.805   5.855  13.343  0.7471  0.1845  0.6558
  898TIP3    H224186   1.880   5.828  13.214  0.4765  0.0988  0.5138
  899TIP3   OH224187   3.103   4.573  11.783  0.3309  0.5689 -0.4856
  899TIP3    H124188   3.032   4.614  11.734  0.3419  0.1529 -0.8562
  899TIP3    H224189   3.069   4.562  11.872 -0.0267  0.4814 -0.6326
  900TIP3   OH224190   6.528   3.531   5.532  0.3477  0.5597 -0.0616
  900TIP3    H124191   6.495   3.481   5.457  0.7368  0.7136 -0.3420
  900TIP3    H224192   6.617   3.497   5.546  0.1284  0.2385  0.5999
  901TIP3   OH224193   1.772   2.721   4.940 -0.0315  0.0469  0.2076
  901TIP3    H124194   1.814   2.758   5.018  1.7818  0.3067 -0.8405
  901TIP3    H224195   1.740   2.797   4.892  2.3771  0.2938 -1.2024
  902TIP3   OH224196   5.501   5.883  11.054 -0.1020 -0.0928 -0.0766
  902TIP3    H124197   5.556   5.836  11.116  0.1930  0.4003  0.0367
  902TIP3    H224198   5.560   5.912  10.985 -0.2265  0.3472 -0.0071
  903TIP3   OH224199   2.637   4.597   2.059 -0.8301  0.4904 -0.4817
  903TIP3    H124200   2.617   4.620   1.969 -3.2814 -1.1700 -0.4553
  903TIP3    H224201   2.579   4.651   2.112 -0.9974 -0.1001 -0.0409
  904TIP3   OH224202   0.589   5.531  12.773  0.4085  0.3491  0.0927
  904TIP3    H124203   0.608   5.460  12.711 -0.5187  0.8891 -0.8322
  904TIP3    H224204   0.507   5.569  12.742 -0.9695 -0.3725  2.5671
  905TIP3   OH224205   4.948   6.228   5.571  0.3911 -0.4261  0.5636
  905TIP3    H124206   4.955   6.135   5.548 -1.3715 -0.7001  1.0547
  905TIP3    H224207   4.872   6.233   5.628  0.9224  1.2235  1.1655
  906TIP3   OH224208   6.404   5.645   1.918 -0.5558 -0.4572 -0.4810
  906TIP3    H124209   6.334   5.611   1.972 -0.6670 -0.3123 -0.5345
  906TIP3    H224210   6.480   5.648   1.976 -1.1468  1.6366  0.2780
  907TIP3   OH224211   4.278   5.604   2.994 -0.0998  0.5005 -0.1280
  907TIP3    H124212   4.302   5.635   2.906 -0.0642 -0.1258 -0.3408
  907TIP3    H224213   4.182   5.604   2.993 -0.1306  1.9976  0.3707
  908TIP3   OH224214   1.900   5.981  12.368 -0.2347  0.3953  0.1137
  908TIP3    H124215   1.846   6.057  12.344  1.4722  1.8838  0.6845
  908TIP3    H224216   1.912   5.933  12.286 -1.8396  0.4035 -0.1456
  909TIP3   OH224217   1.012   5.450   6.083 -0.6493 -0.0183 -0.1695
  909TIP3    H124218   1.094   5.499   6.084 -0.0028 -1.0399 -0.8872
  909TIP3    H224219   0.965   5.480   6.161  0.7260  0.0690  0.6589
  910TIP3   OH224220   0.293   4.874  13.519 -0.2673  0.5879  0.4516
  910TIP3    H124221   0.372   4.928  13.521 -0.4395  0.8360  0.5652
  910TIP3    H224222   0.234   4.915  13.582 -0.6042  0.5803  0.1439
  911TIP3   OH224223   1.657   4.398  17.069 -0.1848 -0.3597 -0.0019
  911TIP3    H124224   1.661   4.408  16.973 -1.1489 -0.6161 -0.0764
  911TIP3    H224225   1.735   4.346  17.090 -0.0936 -0.5167 -0.6863
  912TIP3   OH224226   4.047   4.763   1.959  0.2932  0.2836 -0.2189
  912TIP3    H124227   4.073   4.807   1.878  2.6793 -1.1254 -0.3252
  912TIP3    H224228   4.086   4.816   2.029 -1.2817  1.1815  0.0228
  913TIP3   OH224229   1.671   4.142   0.602  0.1308  0.5392 -0.2133
  913TIP3    H124230   1.594   4.107   0.556  0.5097 -3.5001  1.7782
  913TIP3    H224231   1.726   4.177   0.533 -1.3555 -0.9731 -2.3108
  914TIP3   OH224232   3.363   0.925   0.115  0.6059  0.4248 -0.3048
  914TIP3    H124233   3.446   0.895   0.152  0.7103 -0.4267 -1.1887
  914TIP3    H224234   3.323   0.846   0.079 -0.7068  0.7805  0.2975
  915TIP3   OH224235   4.431   3.797   6.521  0.5281  0.2766  0.0567
  915TIP3    H124236   4.358   3.778   6.579  0.7363  0.1661  0.2833
  915TIP3    H224237   4.444   3.891   6.528 -0.9266  0.6341 -1.5597
  916TIP3   OH224238   2.514   3.826   0.617 -0.0508 -0.1854 -0.6058
  916TIP3    H124239   2.440   3.813   0.676 -0.7887  0.5857 -1.3386
  916TIP3    H224240   2.517   3.921   0.603  0.8559 -0.2426 -0.8736
  917TIP3   OH224241   6.134   3.987  14.850 -0.1359  0.6489  0.0653
  917TIP3    H124242   6.221   3.960  14.881  0.3911  1.1138 -0.9302
  917TIP3    H224243   6.132   4.082  14.862 -1.5961  0.3766  2.6180
  918TIP3   OH224244   2.961   2.403   3.516  0.1244  0.5971  0.6908
  918TIP3    H124245   2.888   2.392   3.578 -0.5316  2.8975  0.4369
  918TIP3    H224246   3.020   2.465   3.560  1.1242 -0.0086  0.2193
  919TIP3   OH224247   5.689   2.686   4.566  0.1808 -0.0114  0.0214
  919TIP3    H124248   5.725   2.606   4.606 -1.0430 -0.2734  0.6409
  919TIP3    H224249   5.764   2.746   4.561  0.5577 -0.2526  2.0142
  920TIP3   OH224250   1.596   6.501  13.045 -0.3787 -0.3709 -0.2457
  920TIP3    H124251   1.622   6.432  12.984  0.4099 -0.4444  0.1579
  920TIP3    H224252   1.604   6.582  12.996 -0.7085 -0.5121 -0.5359
  921TIP3   OH224253   6.277   6.254   0.432 -0.0456  0.4464  0.0012
  921TIP3    H124254   6.353   6.262   0.375 -0.2261 -0.6444 -0.4300
  921TIP3    H224255   6.212   6.208   0.378 -1.0409  1.4332  0.3286
  922TIP3   OH224256   2.384   4.242   1.748 -0.5474  0.1240  0.0589
  922TIP3    H124257   2.352   4.230   1.659  0.0123 -0.0175 -0.1245
  922TIP3    H224258   2.318   4.298   1.789 -0.2349  1.1687 -0.7948
  923TIP3   OH224259   6.673   6.363  15.647  0.2088 -0.1810 -0.0849
  923TIP3    H124260   6.630   6.303  15.586 -0.3457 -0.8496  0.9230
  923TIP3    H224261   6.691   6.442  15.596 -0.9288 -0.4324 -0.9053
  924TIP3   OH224262   5.568   4.891  14.828  1.0450  0.3959  0.1111
  924TIP3    H124263   5.653   4.901  14.870  0.7556  1.2461  0.5148
  924TIP3    H224264   5.547   4.978  14.795 -0.8067  0.8545  2.2546
  925TIP3   OH224265   1.643   4.088   2.548 -0.2690 -0.3992  0.3033
  925TIP3    H124266   1.620   3.995   2.548  0.4484 -0.6060  1.6534
  925TIP3    H224267   1.564   4.131   2.581  0.1587 -0.7843  1.8974
  926TIP3   OH224268   3.687   0.235  14.067 -0.0502  0.1337  0.9690
  926TIP3    H124269   3.746   0.310  14.055  0.3578 -0.2610  0.4472
  926TIP3    H224270   3.672   0.203  13.978  0.2015 -0.7314  1.2348
  927TIP3   OH224271   4.392   6.577  16.997  0.5191 -0.6260 -0.0015
  927TIP3    H124272   4.371   6.490  17.032  0.8564 -1.0757 -0.9042
  927TIP3    H224273   4.331   6.588  16.924  0.9152 -0.3798 -0.2942
  928TIP3   OH224274   0.971   5.290  14.606 -0.6697  0.2653 -0.1540
  928TIP3    H124275   1.014   5.255  14.528  0.6276  0.5172  0.4205
  928TIP3    H224276   0.910   5.355  14.572  0.6124  1.1224 -0.9451
  929TIP3   OH224277   2.166   0.084   0.301  0.1481 -0.2724 -0.5465
  929TIP3    H124278   2.255   0.114   0.281 -0.4505  0.3122 -2.5250
  929TIP3    H224279   2.141   0.135   0.378  1.4390 -0.2983 -0.0799
  930TIP3   OH224280   5.393   4.352   1.974 -0.2133 -0.2915  0.5033
  930TIP3    H124281   5.383   4.272   2.025 -1.4702  0.1862  1.0458
  930TIP3    H224282   5.308   4.363   1.930  0.3069  0.1705 -0.4170
  931TIP3   OH224283   0.728   3.074  15.026 -0.0228  0.1175 -0.4264
  931TIP3    H124284   0.785   2.999  15.008 -2.0211 -1.2280 -1.6608
  931TIP3    H224285   0.767   3.147  14.977  1.7316 -0.1884  0.4499
  932TIP3   OH224286   6.210   3.033   0.742  0.0566 -0.0551  0.1569
  932TIP3    H124287   6.233   2.957   0.795  0.8791 -0.7875 -1.1832
  932TIP3    H224288   6.179   2.995   0.659  0.3123  1.0705 -0.4710
  933TIP3   OH224289   4.096   6.184   5.131 -0.0642 -0.4412  0.3192
  933TIP3    H124290   4.158   6.211   5.063 -0.8675 -0.9093 -0.6181
  933TIP3    H224291   4.075   6.093   5.109  2.7231 -2.0958  3.4983
  934TIP3   OH224292   4.776   2.459   3.303 -0.2899  0.2113 -0.6344
  934TIP3    H124293   4.845   2.505   3.255 -0.4881  0.1717 -0.9595
  934TIP3    H224294   4.758   2.515   3.379  0.8584 -0.3098  0.0500
  935TIP3   OH224295   3.402   0.424   3.104  0.4854 -0.0648 -0.4328
  935TIP3    H124296   3.449   0.426   3.020  0.9978  2.1777 -0.1468
  935TIP3    H224297   3.333   0.490   3.095  2.2107  2.2545  1.7461
  936TIP3   OH224298   3.534   2.315  12.675 -0.4150  0.1995  0.3174
  936TIP3    H124299   3.626   2.339  12.669 -0.6062  0.9290  0.2158
  936TIP3    H224300   3.534   2.227  12.714  0.2940  0.4457  0.8977
  937TIP3   OH224301   2.582   5.844   0.167 -0.2339  0.1676  0.2012
  937TIP3    H124302   2.553   5.805   0.084  0.3514 -0.5473  0.3239
  937TIP3    H224303   2.674   5.867   0.151 -0.9725  3.0662 -0.4273
  938TIP3   OH224304   0.215   3.818   5.093  0.5720 -0.0917  0.4585
  938TIP3    H124305   0.287   3.821   5.029 -0.6521 -0.6960 -1.0012
  938TIP3    H224306   0.192   3.726   5.098 -1.2011  0.2655 -0.4017
  939TIP3   OH224307   4.558   5.472  17.087  0.4144  0.1059 -0.4012
  939TIP3    H124308   4.467   5.455  17.062  0.6873 -1.5813 -0.3601
  939TIP3    H224309   4.554   5.494  17.180  0.2902 -3.3136  0.5349
  940TIP3   OH224310   5.716   0.439  13.947 -0.5126  0.3216 -0.1468
  940TIP3    H124311   5.757   0.412  14.030  2.4289 -0.0036 -1.5911
  940TIP3    H224312   5.730   0.533  13.942 -0.2541  0.2672 -0.4841
  941TIP3   OH224313   2.182   5.111  16.531  0.4234  0.1228  0.7623
  941TIP3    H124314   2.180   5.135  16.624  0.0844 -0.2176  0.8435
  941TIP3    H224315   2.246   5.171  16.493 -0.5589  1.3038  0.9186
  942TIP3   OH224316   2.270   2.043  14.897 -0.4449  0.6810 -0.0034
  942TIP3    H124317   2.340   2.046  14.962 -0.1193 -1.3718 -0.1846
  942TIP3    H224318   2.243   2.134  14.886  1.9912  1.5171  0.2908
  943TIP3   OH224319   0.149   3.235  13.993 -0.1602  0.0706 -0.5986
  943TIP3    H124320   0.056   3.255  14.004 -0.6083 -1.7756 -0.7092
  943TIP3    H224321   0.159   3.146  14.027  1.8275  0.6640  0.5275
  944TIP3   OH224322   2.368   5.809  14.266 -0.5152  0.1862 -0.2376
  944TIP3    H124323   2.365   5.863  14.345 -1.3859 -0.6096  0.2881
  944TIP3    H224324   2.403   5.725  14.296 -2.1699 -0.5969 -0.3890
  945TIP3   OH224325   4.626   1.928   5.518  0.7621  0.1928 -0.0244
  945TIP3    H124326   4.598   2.020   5.524 -2.4442 -0.4524 -2.4373
  945TIP3    H224327   4.671   1.922   5.434  1.0589 -0.4430  0.1749
  946TIP3   OH224328   2.010   6.060  15.052  0.4049  0.6311  0.1903
  946TIP3    H124329   2.092   6.103  15.078 -0.3756  2.8469 -0.8223
  946TIP3    H224330   2.010   6.064  14.956 -0.9412  0.7764  0.1821
  947TIP3   OH224331   4.616   5.215   4.407 -0.8148 -0.9105  0.0812
  947TIP3    H124332   4.710   5.235   4.405 -1.0105  0.1702  0.8411
  947TIP3    H224333   4.606   5.143   4.345  0.2180  0.2038 -1.4653
  948TIP3   OH224334   5.334   6.085   5.480 -0.0984 -0.3688  0.1497
  948TIP3    H124335   5.277   6.020   5.520  0.0554 -0.1093  0.7952
  948TIP3    H224336   5.417   6.077   5.527  0.6091 -1.1399 -1.1571
  949TIP3   OH224337   0.863   1.896  12.088  0.9670 -0.3672  0.0811
  949TIP3    H124338   0.779   1.942  12.089  1.0173 -0.2771  0.5366
  949TIP3    H224339   0.901   1.916  12.003 -0.3788 -2.0748 -0.9947
  950TIP3   OH224340   6.734   1.432   4.956 -0.1254  0.4770 -0.5055
  950TIP3    H124341   6.824   1.416   4.927 -0.7043 -0.3507 -1.9952
  950TIP3    H224342   6.697   1.344   4.965 -1.2023  0.8123 -1.4034
  951TIP3   OH224343   1.086   4.836   0.720 -0.4856 -0.3259  0.3751
  951TIP3    H124344   1.056   4.806   0.634 -2.4644 -1.2929  1.3331
  951TIP3    H224345   1.096   4.755   0.771 -0.8821  0.3212  1.4999
  952TIP3   OH224346   5.999   0.800  13.856  0.0431  0.2096 -0.2817
  952TIP3    H124347   6.083   0.844  13.862  0.1203  0.0931 -0.5010
  952TIP3    H224348   5.994   0.769  13.766 -0.6987  1.1409 -0.5820
  953TIP3   OH224349   0.188   4.926  16.138  0.3980 -0.1112 -0.6151
  953TIP3    H124350   0.198   4.978  16.058 -0.2018  0.4874 -0.3187
  953TIP3    H224351   0.155   4.842  16.108  1.0994 -0.2324 -1.0788
  954TIP3   OH224352   1.490   5.629  16.606  0.3762  0.2006  0.0578
  954TIP3    H124353   1.569   5.581  16.632  0.4602  0.2073 -0.1869
  954TIP3    H224354   1.522   5.697  16.547  0.3697  1.0626  1.0099
  955TIP3   OH224355   5.272   5.825   0.275 -0.2931  0.1737  0.4540
  955TIP3    H124356   5.226   5.908   0.267 -2.1291 -0.9719 -2.0007
  955TIP3    H224357   5.362   5.845   0.247 -0.1543  1.6770  1.8207
  956TIP3   OH224358   1.379   5.026  15.604 -0.1113 -0.0420  0.0164
  956TIP3    H124359   1.460   5.044  15.650  0.3198  0.5444 -0.9475
  956TIP3    H224360   1.389   5.069  15.519 -0.4459 -1.9377 -1.0536
  957TIP3   OH224361   5.510   5.400  13.084 -0.5798 -0.2164  0.1977
  957TIP3    H124362   5.506   5.362  13.172 -1.9103 -1.8220 -0.5025
  957TIP3    H224363   5.424   5.439  13.070 -0.2060  0.4777 -0.2052
  958TIP3   OH224364   6.582   0.865  16.789  0.7910  0.1591 -0.2151
  958TIP3    H124365   6.558   0.934  16.851 -0.6021 -0.7885  0.3559
  958TIP3    H224366   6.645   0.906  16.730 -0.0714  1.9376  0.0431
  959TIP3   OH224367   2.552   4.610   4.006 -0.2604  0.0038  0.5644
  959TIP3    H124368   2.644   4.581   4.004 -1.3176 -3.8833  0.1912
  959TIP3    H224369   2.535   4.642   3.918  0.5574  0.1389  0.4454
  960TIP3   OH224370   4.961   5.086  11.345  0.1899  0.0597 -0.2856
  960TIP3    H124371   4.920   5.120  11.425 -0.5300  0.5141 -0.8384
  960TIP3    H224372   4.946   4.992  11.349 -1.2987  0.2561 -0.6690
  961TIP3   OH224373   4.660   4.140  12.451 -0.5067 -0.3109 -0.0451
  961TIP3    H124374   4.724   4.210  12.463 -0.8690  0.1058 -0.4858
  961TIP3    H224375   4.578   4.175  12.487 -0.2486 -1.2810  1.5929
  962TIP3   OH224376   0.184   6.385  15.889  0.0960 -0.6255  0.1283
  962TIP3    H124377   0.159   6.467  15.930  2.0541  0.0278  0.1174
  962TIP3    H224378   0.277   6.375  15.909  0.1617 -2.2996 -0.7886
  963TIP3   OH224379   1.478   6.533   6.132 -0.4736  0.5609  0.2506
  963TIP3    H124380   1.543   6.462   6.131  0.2613  1.2019  1.0072
  963TIP3    H224381   1.530   6.613   6.136 -1.3039  1.1337 -0.2747
  964TIP3   OH224382   0.359   0.099   5.933 -0.0341 -0.1440 -0.0286
  964TIP3    H124383   0.389   0.041   6.003 -0.1986 -0.9334 -0.5991
  964TIP3    H224384   0.388   0.186   5.960 -0.5367 -0.3557  1.2740
  965TIP3   OH224385   5.132   5.814   4.723  0.1334 -0.2166  0.4721
  965TIP3    H124386   5.082   5.849   4.650  0.0372 -1.4213 -0.0499
  965TIP3    H224387   5.086   5.734   4.749  1.1027 -0.7012  0.7494
  966TIP3   OH224388   2.867   0.797  16.518 -0.1581 -0.2576  0.3879
  966TIP3    H124389   2.943   0.855  16.519 -0.6095  0.3649 -0.3023
  966TIP3    H224390   2.879   0.742  16.440 -1.2812  1.0650 -0.7730
  967TIP3   OH224391   4.234   0.033  15.144 -0.3231 -0.6130  0.1855
  967TIP3    H124392   4.250   0.059  15.053 -0.3377  1.0071  0.6204
  967TIP3    H224393   4.281  -0.050  15.154  1.1109  0.0434 -0.8141
  968TIP3   OH224394   0.486   4.466  11.163  0.1984  0.4325 -0.0123
  968TIP3    H124395   0.482   4.508  11.077  1.7985 -0.7351 -0.7153
  968TIP3    H224396   0.510   4.537  11.223 -1.3383  1.3421 -0.4292
  969TIP3   OH224397   1.224   2.018   3.143  0.0066 -0.6212 -0.1888
  969TIP3    H124398   1.220   2.012   3.239  0.8891  0.2919 -0.0806
  969TIP3    H224399   1.293   2.083   3.126 -0.5901 -0.2916 -1.4297
  970TIP3   OH224400   3.835   6.307  11.827 -0.3844 -0.6666 -0.4937
  970TIP3    H124401   3.884   6.259  11.893 -0.2119 -0.8088 -0.7245
  970TIP3    H224402   3.786   6.240  11.779 -3.1615 -0.3298  1.6058
  971TIP3   OH224403   3.879   3.273  11.703  0.0099 -0.0367  0.0299
  971TIP3    H124404   3.925   3.330  11.765 -1.6084  0.3327  0.9487
  971TIP3    H224405   3.854   3.196  11.754  1.3460 -1.1771 -0.9712
  972TIP3   OH224406   6.812   1.500  15.658  0.1252 -0.0570  0.4819
  972TIP3    H124407   6.804   1.414  15.701  1.5127 -2.1283 -3.0063
  972TIP3    H224408   6.730   1.511  15.611 -0.0466  0.5511  0.9197
  973TIP3   OH224409   6.680   3.632  11.890  0.1278 -0.1206 -0.2305
  973TIP3    H124410   6.612   3.698  11.876 -1.6786 -1.5339  1.3723
  973TIP3    H224411   6.760   3.683  11.905 -0.7006  1.6129 -1.4148
  974TIP3   OH224412   0.388   4.355   2.845  0.7828  0.1365  0.2510
  974TIP3    H124413   0.445   4.431   2.859  1.0211 -0.3007  1.8449
  974TIP3    H224414   0.447   4.280   2.846  0.8391 -0.0336 -3.3163
  975TIP3   OH224415   4.277   5.779  12.659  0.5289  0.7748  0.3852
  975TIP3    H124416   4.305   5.777  12.568  0.5728  3.2406  0.2773
  975TIP3    H224417   4.358   5.777  12.710  0.5526  0.3682  0.3277
  976TIP3   OH224418   0.181   5.628   6.205 -0.5845 -0.8962  0.2325
  976TIP3    H124419   0.194   5.616   6.299  1.6254  0.7921  0.2265
  976TIP3    H224420   0.089   5.655   6.197 -0.7350 -0.7975  1.9392
  977TIP3   OH224421   4.468   4.980  14.976 -0.2845 -0.2766  0.2706
  977TIP3    H124422   4.443   5.043  15.043 -0.7880  0.9345 -0.9881
  977TIP3    H224423   4.397   4.985  14.911 -1.8515 -4.2740  1.4277
  978TIP3   OH224424   0.884   1.593  12.000 -0.7311  0.3287 -0.3325
  978TIP3    H124425   0.940   1.550  12.064  0.1530  0.5583 -0.9351
  978TIP3    H224426   0.879   1.684  12.028  1.7776  1.0521 -1.9448
  979TIP3   OH224427   0.122   5.296   6.182 -0.2264  0.3024 -0.5311
  979TIP3    H124428   0.036   5.300   6.224 -0.0832 -0.2404 -0.1715
  979TIP3    H224429   0.180   5.342   6.243 -0.1330  0.0505 -0.4282
  980TIP3   OH224430   3.331   4.928  16.476  0.0558 -0.0215  0.1282
  980TIP3    H124431   3.419   4.965  16.471  0.0103 -0.0376 -1.1883
  980TIP3    H224432   3.319   4.907  16.569  0.8528  1.3532  0.5688
  981TIP3   OH224433   2.620   5.991   1.498 -0.2846  0.2599  0.2226
  981TIP3    H124434   2.574   5.907   1.486 -2.7824  1.4635  0.6902
  981TIP3    H224435   2.687   5.991   1.429  1.0891 -2.8657  1.3539
  982TIP3   OH224436   5.320   3.491   5.269  0.1060  0.4762 -0.1502
  982TIP3    H124437   5.316   3.461   5.178  0.8028 -0.7680  0.1972
  982TIP3    H224438   5.235   3.532   5.285 -0.2164  0.2399 -1.2066
  983TIP3   OH224439   3.199   5.919  10.900  0.2829  0.8861 -0.0195
  983TIP3    H124440   3.164   5.867  10.973  0.4696  1.6450  0.6274
  983TIP3    H224441   3.259   5.860  10.855 -0.6599  0.0540 -0.2201
  984TIP3   OH224442   1.321   4.042  16.203 -0.4224 -0.0408 -0.0126
  984TIP3    H124443   1.322   4.133  16.174  0.5322  0.3956  1.3074
  984TIP3    H224444   1.299   4.046  16.296  1.5939 -0.9757  0.5654
  985TIP3   OH224445   6.605   5.444  11.949  0.2027 -0.9045  0.2707
  985TIP3    H124446   6.587   5.358  11.988  0.2318 -1.4488 -0.8831
  985TIP3    H224447   6.570   5.438  11.860 -0.5748  0.5883  0.4492
  986TIP3   OH224448   3.363   6.222   4.631 -0.5856  0.1859  0.3941
  986TIP3    H124449   3.294   6.283   4.607 -0.1295  1.3942  1.9617
  986TIP3    H224450   3.420   6.272   4.689  1.4348 -0.8743 -0.5712
  987TIP3   OH224451   3.531   5.379   1.755  0.2716 -0.5403 -0.5040
  987TIP3    H124452   3.623   5.352   1.748  0.3472 -0.2272 -0.7449
  987TIP3    H224453   3.484   5.314   1.703  0.2682 -1.1246  0.2077
  988TIP3   OH224454   3.533   4.636  10.869 -0.9050  0.1742 -0.1999
  988TIP3    H124455   3.543   4.540  10.874  1.4798  0.4152  1.3866
  988TIP3    H224456   3.586   4.661  10.793 -1.6150  0.2469 -0.6788
  989TIP3   OH224457   6.671   2.544  10.641  0.2649  0.0700  0.2729
  989TIP3    H124458   6.686   2.479  10.573 -1.7148 -1.3015  1.0465
  989TIP3    H224459   6.728   2.518  10.713  0.7436  0.2141 -0.0551
  990TIP3   OH224460   6.141   0.851  17.009 -0.1742 -0.1958 -0.6959
  990TIP3    H124461   6.082   0.920  16.979 -0.7366 -0.9108 -1.2866
  990TIP3    H224462   6.205   0.843  16.939 -0.2261 -0.4031 -0.7205
  991TIP3   OH224463   3.763   4.887  14.316 -0.2078 -0.1332  0.4344
  991TIP3    H124464   3.797   4.922  14.234  2.4773 -1.5173  0.8358
  991TIP3    H224465   3.840   4.875  14.370 -1.8103 -0.0561  2.9051
  992TIP3   OH224466   4.684   6.158   3.401  0.1131 -0.0612 -0.2886
  992TIP3    H124467   4.636   6.204   3.332  1.8444  5.2465  1.5033
  992TIP3    H224468   4.630   6.169   3.479  0.3944 -1.6341  0.1553
  993TIP3   OH224469   4.544   5.672  11.412 -0.7044 -0.2419  0.1361
  993TIP3    H124470   4.462   5.698  11.454 -1.0564 -0.8009 -0.1881
  993TIP3    H224471   4.570   5.749  11.361 -1.0773 -0.0935  0.1669
  994TIP3   OH224472   4.193   5.570  13.277 -0.1958 -0.0030  0.0894
  994TIP3    H124473   4.213   5.642  13.338 -0.6570 -1.0593  1.5410
  994TIP3    H224474   4.119   5.525  13.318 -0.2710 -0.9680 -1.0863
  995TIP3   OH224475   6.541   6.322  13.809  0.1290 -0.4091  0.0939
  995TIP3    H124476   6.496   6.407  13.804 -1.1367 -1.0718 -0.1657
  995TIP3    H224477   6.496   6.267  13.745 -0.2367 -1.7945  1.4724
  996TIP3   OH224478   1.402   4.229  13.447 -0.6800  0.0021 -0.0392
  996TIP3    H124479   1.351   4.299  13.407 -0.4987 -0.2419 -0.7162
  996TIP3    H224480   1.459   4.198  13.376 -1.0374 -1.0957  0.1351
  997TIP3   OH224481   2.098   6.436  15.217  0.6117 -0.0645 -0.5228
  997TIP3    H124482   2.170   6.493  15.192 -0.3483  1.1777 -0.5440
  997TIP3    H224483   2.057   6.481  15.291 -0.0041 -0.8674 -0.3642
  998TIP3   OH224484   1.784   2.495  16.083 -0.2949  0.0072  0.1192
  998TIP3    H124485   1.775   2.526  15.993 -1.0903 -0.0040  0.1900
  998TIP3    H224486   1.713   2.539  16.131 -1.9435 -2.4197  0.0845
  999TIP3   OH224487   5.824   1.153   1.286 -0.6743 -0.0106 -0.1874
  999TIP3    H124488   5.815   1.162   1.191 -0.8666  3.8064  0.0237
  999TIP3    H224489   5.737   1.174   1.320 -0.1483  0.5819  0.8422
 1000TIP3   OH224490   2.449   5.103   5.094  0.3095 -0.2954  0.4246
 1000TIP3    H124491   2.373   5.146   5.132 -0.4383  0.0555 -1.3665
 1000TIP3    H224492   2.452   5.018   5.138  0.6010  0.7538  2.5384
 1001TIP3   OH224493   5.652   1.203   0.800 -0.7573 -0.0022 -0.0250
 1001TIP3    H124494   5.566   1.164   0.784 -0.0781 -1.2183 -0.8247
 1001TIP3    H224495   5.711   1.129   0.808  0.1051  0.7948  1.3551
 1002TIP3   OH224496   2.904   1.962  12.332  0.3832  0.1843 -0.0274
 1002TIP3    H124497   2.943   2.007  12.407 -1.2821  0.4348  0.7367
 1002TIP3    H224498   2.877   1.877  12.367 -0.4031  0.3015 -0.3236
 1003TIP3   OH224499   5.666   1.782   5.559  0.5445 -0.3680  0.4263
 1003TIP3    H124500   5.697   1.872   5.553 -0.3465 -0.1125 -0.6212
 1003TIP3    H224501   5.582   1.788   5.605  0.2813 -0.6151 -0.0148
 1004TIP3   OH224502   4.245   4.476  11.697 -0.1826  0.0837  0.8942
 1004TIP3    H124503   4.186   4.550  11.712 -1.1116 -0.4069 -0.2194
 1004TIP3    H224504   4.310   4.509  11.635  1.0751  0.7809  2.5054
 1005TIP3   OH224505   5.585   0.462  13.432 -0.2999  0.0925 -0.4475
 1005TIP3    H124506   5.565   0.449  13.525 -1.8284 -1.5463 -0.9583
 1005TIP3    H224507   5.503   0.441  13.386  1.1839 -2.0417 -2.3568
 1006TIP3   OH224508   6.350   0.661   5.750  0.0404 -0.6612  0.1621
 1006TIP3    H124509   6.411   0.593   5.721  1.0538 -0.2031  1.1562
 1006TIP3    H224510   6.307   0.690   5.670 -0.4330 -2.4853 -0.2741
 1007TIP3   OH224511   2.550   6.581   4.999 -0.1269 -0.4470  0.1492
 1007TIP3    H124512   2.555   6.661   4.947 -1.3641 -0.5014 -0.1052
 1007TIP3    H224513   2.526   6.611   5.087 -1.2847 -0.5641 -0.1106
 1008TIP3   OH224514   5.480   2.634   5.133  0.2631 -0.2634  0.5925
 1008TIP3    H124515   5.539   2.688   5.080  0.0935 -0.0499  0.6174
 1008TIP3    H224516   5.519   2.635   5.221  2.1851 -3.0407 -0.1171
 1009TIP3   OH224517   2.008   3.188  13.958  0.2400  0.1801  0.9423
 1009TIP3    H124518   1.974   3.273  13.986 -2.4258 -0.4047 -0.1711
 1009TIP3    H224519   1.974   3.126  14.022 -0.9327 -0.4303 -0.2167
 1010TIP3   OH224520   4.187   6.042   5.388 -0.8418  0.2732  0.2006
 1010TIP3    H124521   4.168   6.090   5.469  0.5123  0.9783  0.1227
 1010TIP3    H224522   4.135   6.087   5.321  0.4159  1.6904  0.1228
 1011TIP3   OH224523   5.108   3.746  16.803  1.0626  0.4210 -0.1648
 1011TIP3    H124524   5.059   3.781  16.729  0.6401  1.2475  0.4785
 1011TIP3    H224525   5.181   3.699  16.764  0.5205  0.3360 -1.1106
 1012TIP3   OH224526   5.950   4.552  12.255 -0.0277 -0.6239 -0.1328
 1012TIP3    H124527   5.972   4.465  12.288 -2.1081 -0.9881  0.4036
 1012TIP3    H224528   5.895   4.591  12.322 -0.3975  0.5168 -1.0549
 1013TIP3   OH224529   6.166   1.189  14.465  0.2228 -0.5598 -0.1374
 1013TIP3    H124530   6.097   1.255  14.454  1.1306  0.7719  1.5801
 1013TIP3    H224531   6.128   1.125  14.525  0.8644  0.9236  1.9804
 1014TIP3   OH224532   1.811   5.041   3.686 -0.0959  0.1612  1.1349
 1014TIP3    H124533   1.890   5.084   3.655  1.1124 -1.2895  2.0713
 1014TIP3    H224534   1.776   4.996   3.609 -1.2492  2.4841  0.1981
 1015TIP3   OH224535   5.313   4.680   4.870  0.2048 -0.7086  0.1907
 1015TIP3    H124536   5.236   4.731   4.846  1.8034  1.8362  0.1469
 1015TIP3    H224537   5.336   4.710   4.958  0.6712 -2.0688  0.5623
 1016TIP3   OH224538   4.216   6.700   3.865  0.1401 -0.2387 -0.6003
 1016TIP3    H124539   4.292   6.733   3.817 -1.8070  1.7517 -2.5644
 1016TIP3    H224540   4.160   6.777   3.877 -2.4825 -1.9379 -1.0751
 1017TIP3   OH224541   1.654   1.657  13.900 -0.3708 -0.5955 -0.5740
 1017TIP3    H124542   1.725   1.704  13.857  1.4453 -0.7236  2.0677
 1017TIP3    H224543   1.696   1.582  13.941 -2.1890 -1.1735  0.3471
 1018TIP3   OH224544   2.518   6.086   4.003  0.6226 -0.0305 -0.1099
 1018TIP3    H124545   2.591   6.148   3.996  1.5517 -1.1814 -1.0011
 1018TIP3    H224546   2.540   6.016   3.941 -0.8686 -0.7832  0.1707
 1019TIP3   OH224547   5.864   6.723   4.036 -0.1279 -0.3750  0.9598
 1019TIP3    H124548   5.809   6.761   3.967  0.6668 -0.7462  0.1016
 1019TIP3    H224549   5.835   6.767   4.117  0.8286  2.2029  0.0197
 1020TIP3   OH224550   1.149   4.672  15.740  0.1373 -0.3251 -0.0327
 1020TIP3    H124551   1.237   4.711  15.741  0.5602 -1.2605  0.6340
 1020TIP3    H224552   1.125   4.668  15.833  0.0870 -1.5991 -0.0922
 1021TIP3   OH224553   4.623   3.855   0.729 -0.2258 -0.0504 -0.3407
 1021TIP3    H124554   4.625   3.941   0.772 -1.8827  0.4193 -1.1399
 1021TIP3    H224555   4.643   3.793   0.800  2.5417  1.0312 -0.0436
 1022TIP3   OH224556   5.521   3.496   4.883 -0.3315  0.7930 -0.0224
 1022TIP3    H124557   5.480   3.551   4.815 -1.6103  0.1227  0.1858
 1022TIP3    H224558   5.558   3.422   4.834  0.4833  1.2930 -0.1868
 1023TIP3   OH224559   6.218   4.226   5.609  0.0046  0.1343 -0.3093
 1023TIP3    H124560   6.124   4.234   5.627 -0.2676 -0.2262 -1.4455
 1023TIP3    H224561   6.249   4.160   5.670 -1.0205 -1.5687 -1.5358
 1024TIP3   OH224562   0.669   3.317   2.793 -0.1285 -0.4471  0.6021
 1024TIP3    H124563   0.585   3.359   2.808  0.2394  1.3062 -1.6846
 1024TIP3    H224564   0.726   3.351   2.862 -0.4528  1.0381  0.1688
 1025TIP3   OH224565   4.705   0.134  11.968 -0.0870  0.7324  0.3756
 1025TIP3    H124566   4.767   0.184  12.020 -0.3289  3.4051 -1.7104
 1025TIP3    H224567   4.738   0.140  11.878 -1.3193 -1.1146 -0.2690
 1026TIP3   OH224568   2.421   3.770  10.949 -0.2591  0.0355  0.3698
 1026TIP3    H124569   2.398   3.696  11.005 -2.0767  0.8938  0.8387
 1026TIP3    H224570   2.386   3.746  10.863  1.0647 -0.5566 -0.0280
 1027TIP3   OH224571   2.343   1.505  11.378 -0.5068  0.5991 -0.4903
 1027TIP3    H124572   2.394   1.536  11.453 -0.5318  1.1280 -0.6848
 1027TIP3    H224573   2.354   1.574  11.312  1.4485 -0.9143 -1.8748
 1028TIP3   OH224574   6.338   6.819  16.727 -0.1401 -0.1066 -0.3027
 1028TIP3    H124575   6.268   6.873  16.691 -0.8509 -0.5016  0.4513
 1028TIP3    H224576   6.388   6.879  16.783 -1.0723 -0.2691  0.7229
 1029TIP3   OH224577   5.143   5.926   5.326  0.3318 -0.3731  0.5401
 1029TIP3    H124578   5.064   5.977   5.306 -0.4013 -1.4224  0.6707
 1029TIP3    H224579   5.212   5.967   5.275 -0.1263  1.0508  1.0104
 1030TIP3   OH224580   2.953   0.492  16.161 -0.4184  0.0272 -0.1226
 1030TIP3    H124581   3.034   0.503  16.111 -1.2537 -2.0263 -2.1632
 1030TIP3    H224582   2.963   0.408  16.205 -0.8032  0.5281  0.9415
 1031TIP3   OH224583   2.589   4.408   0.287  0.2511 -0.0831 -0.0695
 1031TIP3    H124584   2.652   4.399   0.358  1.3284  0.2555 -0.9553
 1031TIP3    H224585   2.624   4.479   0.233 -1.4548  0.8692 -0.0110
 1032TIP3   OH224586   3.558   5.653   6.155 -0.7901  0.2133 -0.3942
 1032TIP3    H124587   3.520   5.587   6.096 -3.0490  1.0043  0.0763
 1032TIP3    H224588   3.550   5.735   6.106 -2.7398  0.8918  0.9481
 1033TIP3   OH224589   4.241   5.830   1.778 -0.1618 -0.4493  0.2608
 1033TIP3    H124590   4.335   5.823   1.789  0.2433 -0.2815 -2.4499
 1033TIP3    H224591   4.205   5.766   1.840  1.6750 -0.2996  1.5574
 1034TIP3   OH224592   1.560   4.096  12.802 -0.4754  0.6852 -0.1371
 1034TIP3    H124593   1.629   4.136  12.750  0.3087 -2.0090 -1.3435
 1034TIP3    H224594   1.531   4.020  12.751 -3.3954  0.8929  0.9704
 1035TIP3   OH224595   4.934   2.067  12.722  0.2324 -0.0201  0.3964
 1035TIP3    H124596   4.966   1.981  12.695 -0.6760 -0.2836  0.1265
 1035TIP3    H224597   4.853   2.048  12.770  1.3716  0.4781  2.6948
 1036TIP3   OH224598   0.616   4.718  16.449  0.0987 -0.1746  0.0751
 1036TIP3    H124599   0.622   4.626  16.426 -1.4514 -0.4059  0.5112
 1036TIP3    H224600   0.534   4.726  16.498 -0.0057  1.4998 -0.2997
 1037TIP3   OH224601   1.370   3.148   2.123  0.7660  0.8236  0.1661
 1037TIP3    H124602   1.290   3.189   2.156  1.1649 -0.3008  2.6983
 1037TIP3    H224603   1.441   3.204   2.153  1.0486  1.1276 -0.9908
 1038TIP3   OH224604   3.512   2.399  16.135  0.3534 -0.2843  0.2185
 1038TIP3    H124605   3.543   2.486  16.111  0.0310 -0.2669 -0.1465
 1038TIP3    H224606   3.590   2.344  16.133  0.9954  0.4255  2.6779
 1039TIP3   OH224607   3.163   6.131   5.465  0.2685 -0.5849 -0.1755
 1039TIP3    H124608   3.200   6.043   5.466  0.7762 -0.3909 -0.9111
 1039TIP3    H224609   3.194   6.168   5.383  0.5307  0.4802  0.3886
 1040TIP3   OH224610   1.421   3.450   2.111  0.7676 -0.5189 -0.7436
 1040TIP3    H124611   1.329   3.434   2.132  0.8013 -0.7594 -0.7776
 1040TIP3    H224612   1.469   3.415   2.185  0.9708 -2.7729 -1.8664
 1041TIP3   OH224613   4.634   4.792   4.766 -0.3060 -0.1604 -0.0718
 1041TIP3    H124614   4.568   4.824   4.827 -0.2915 -1.1114  0.4597
 1041TIP3    H224615   4.660   4.870   4.716 -0.2476  0.6657  1.1964
 1042TIP3   OH224616   1.175   4.519   5.044 -0.3387 -0.3084  0.1240
 1042TIP3    H124617   1.085   4.551   5.035 -0.1588 -0.0724 -0.8787
 1042TIP3    H224618   1.169   4.448   5.107 -1.1214  0.1508  0.5842
 1043TIP3   OH224619   0.572   0.163  15.958  0.2964  0.3128 -0.1122
 1043TIP3    H124620   0.536   0.243  15.997 -1.1525 -0.3649  0.0118
 1043TIP3    H224621   0.639   0.134  16.021  0.2608  0.9747  0.2420
 1044TIP3   OH224622   2.945   0.147  15.714  0.3363  0.4206 -0.2310
 1044TIP3    H124623   2.892   0.089  15.769 -1.7678  3.4115  1.2066
 1044TIP3    H224624   2.883   0.180  15.649  1.4602  1.0374 -1.0105
 1045TIP3   OH224625   1.783   5.377  16.319 -0.2472 -0.9027  0.0880
 1045TIP3    H124626   1.777   5.316  16.392  0.1328 -0.5993  0.3709
 1045TIP3    H224627   1.862   5.350  16.271  0.3089 -0.2092  0.6028
 1046TIP3   OH224628   4.443   1.254   6.079 -0.1183  0.3093 -0.6286
 1046TIP3    H124629   4.434   1.260   6.174 -2.3621 -1.7961 -0.6092
 1046TIP3    H224630   4.396   1.330   6.046 -2.4078 -0.7328 -0.0216
 1047TIP3   OH224631   1.060   5.122   1.876  0.6698 -0.1738  0.0418
 1047TIP3    H124632   1.019   5.131   1.790 -0.1726 -1.5171  0.2662
 1047TIP3    H224633   1.032   5.200   1.924  1.8679  1.0439 -1.1432
 1048TIP3   OH224634   3.317   1.429   3.108  0.1651  0.1737  0.3599
 1048TIP3    H124635   3.273   1.494   3.053 -3.2021 -2.0711  0.1139
 1048TIP3    H224636   3.375   1.383   3.048  0.7395  1.3197  0.0017
 1049TIP3   OH224637   6.737   3.968   5.593  0.3599  0.7330  0.3547
 1049TIP3    H124638   6.678   4.025   5.642  0.7134  0.3393  1.2737
 1049TIP3    H224639   6.749   3.892   5.650 -0.8124 -0.7089 -1.1915
 1050TIP3   OH224640   1.466   6.621   3.298  0.0173 -0.3147 -0.0774
 1050TIP3    H124641   1.547   6.582   3.266  0.0393 -0.8469  0.6078
 1050TIP3    H224642   1.478   6.625   3.393 -0.7385 -0.3408  0.0213
 1051TIP3   OH224643   2.127   6.499   2.372 -0.2582 -0.0933  0.0374
 1051TIP3    H124644   2.160   6.577   2.417 -2.1506  0.4993  0.5253
 1051TIP3    H224645   2.082   6.534   2.295 -3.1358 -0.3625  1.4399
 1052TIP3   OH224646   0.611   4.940   3.423 -0.0148  0.3220  0.5025
 1052TIP3    H124647   0.519   4.966   3.430 -0.6714 -1.2658 -1.4543
 1052TIP3    H224648   0.632   4.949   3.330  2.0538  1.2610  0.9943
 1053TIP3   OH224649   4.404   1.690   3.669 -0.5229  0.5728 -0.0016
 1053TIP3    H124650   4.397   1.734   3.753 -1.9302  0.0315  0.1971
 1053TIP3    H224651   4.439   1.756   3.609 -0.8916  1.4006  0.6827
 1054TIP3   OH224652   5.914   1.023  13.668  0.4224 -0.1386 -0.3075
 1054TIP3    H124653   5.996   1.011  13.620 -0.7400  0.1104 -2.4889
 1054TIP3    H224654   5.882   1.109  13.640  0.1784  0.4956  1.7767
 1055TIP3   OH224655   0.218   1.317  12.225  0.2623 -0.2341  0.4021
 1055TIP3    H124656   0.190   1.406  12.242  1.0067  0.1241 -0.1787
 1055TIP3    H224657   0.169   1.290  12.148  1.2839  0.3081 -0.4704
 1056TIP3   OH224658   4.643   3.026  13.810  0.3686 -0.0159  0.2809
 1056TIP3    H124659   4.656   3.020  13.715  0.1524  1.7154  0.1077
 1056TIP3    H224660   4.549   3.014  13.822  0.1275  1.5638  0.0751
 1057TIP3   OH224661   0.889   2.608  14.326 -0.3536  0.0313 -0.2551
 1057TIP3    H124662   0.818   2.608  14.390  0.5061  0.6210  0.7225
 1057TIP3    H224663   0.852   2.565  14.249 -1.0066 -1.9418  1.0819
 1058TIP3   OH224664   4.596   0.603   4.299  0.2830  0.3646  0.5964
 1058TIP3    H124665   4.513   0.587   4.254  1.0818 -0.2733 -0.7347
 1058TIP3    H224666   4.572   0.639   4.384 -1.3225  1.1846 -0.1664
 1059TIP3   OH224667   5.797   0.593  13.235 -0.6390 -0.2327 -0.4837
 1059TIP3    H124668   5.796   0.498  13.242 -0.6365 -0.1981  0.0064
 1059TIP3    H224669   5.769   0.611  13.145 -2.0952 -0.6479 -0.1326
 1060TIP3   OH224670   0.500   6.279   4.678 -0.0671 -0.5555  0.0349
 1060TIP3    H124671   0.464   6.329   4.751 -2.9369 -1.8730 -0.3363
 1060TIP3    H224672   0.433   6.284   4.610 -0.7840 -5.0317  0.0777
 1061TIP3   OH224673   1.777   0.517  13.505 -0.2448  0.0796  0.0386
 1061TIP3    H124674   1.856   0.512  13.451 -0.0373  0.4015  0.3110
 1061TIP3    H224675   1.734   0.432  13.493 -0.7011  0.4804 -1.4022
 1062TIP3   OH224676   3.402   2.942  12.880 -0.2416 -0.1616 -0.1045
 1062TIP3    H124677   3.469   2.992  12.833 -1.3305 -0.2214 -1.8254
 1062TIP3    H224678   3.334   3.006  12.899 -0.8620 -0.6098 -0.7595
 1063TIP3   OH224679   6.652   1.457   3.413  0.5730  0.8476  0.0292
 1063TIP3    H124680   6.563   1.426   3.396  0.2507  1.0210  1.2991
 1063TIP3    H224681   6.697   1.446   3.329 -0.4223  0.0304 -0.4320
 1064TIP3   OH224682   1.185   0.799   1.501  0.4739  0.2170 -0.8430
 1064TIP3    H124683   1.159   0.801   1.409  0.7427 -0.3758 -0.9387
 1064TIP3    H224684   1.271   0.842   1.502 -0.7886  2.9165 -0.4036
 1065TIP3   OH224685   6.075   4.794   3.316  0.5813  0.4949  0.2498
 1065TIP3    H124686   6.128   4.823   3.390  1.2537 -1.6477  0.6692
 1065TIP3    H224687   6.030   4.716   3.347 -2.1386  1.6724 -0.4224
 1066TIP3   OH224688   6.415   2.500   1.269 -0.0458 -0.3327 -0.2723
 1066TIP3    H124689   6.396   2.444   1.195 -0.4142 -0.3766 -0.1446
 1066TIP3    H224690   6.330   2.521   1.307  0.1520 -0.5202  0.2948
 1067TIP3   OH224691   3.265   6.824   2.095  0.1132  0.5846 -0.7274
 1067TIP3    H124692   3.264   6.920   2.100  0.4315  0.5333  2.5640
 1067TIP3    H224693   3.334   6.798   2.156 -2.7237 -1.7715  1.7510
 1068TIP3   OH224694   0.135   5.082   5.023  0.0025  0.1163 -0.4279
 1068TIP3    H124695   0.088   5.009   4.983  0.8781 -0.4018 -0.5346
 1068TIP3    H224696   0.117   5.073   5.117 -0.3566  0.1094 -0.4944
 1069TIP3   OH224697   1.950   0.940  15.410  0.1050  0.0022 -0.1034
 1069TIP3    H124698   2.010   0.883  15.362  1.3432  0.9576  0.2529
 1069TIP3    H224699   1.968   1.028  15.377 -0.4449  0.4296  0.6821
 1070TIP3   OH224700   5.249   0.945   5.685 -0.1376  0.0067 -0.0338
 1070TIP3    H124701   5.202   1.000   5.623  1.5747  1.0865 -0.4678
 1070TIP3    H224702   5.312   1.005   5.727 -0.4033 -0.9471  1.8575
 1071TIP3   OH224703   4.156   1.253   5.861 -0.2091  0.1889  0.5919
 1071TIP3    H124704   4.081   1.293   5.818 -0.6248 -0.5801  0.5871
 1071TIP3    H224705   4.195   1.324   5.912 -1.4970  0.3819  1.3596
 1072TIP3   OH224706   2.841   1.490   2.405  0.0972  0.2022  0.6932
 1072TIP3    H124707   2.917   1.520   2.354  0.6231  1.8578  2.3348
 1072TIP3    H224708   2.873   1.487   2.495 -1.2804 -1.0077  1.1829
 1073TIP3   OH224709   5.317   4.983   5.868 -0.0805 -0.4755 -0.1480
 1073TIP3    H124710   5.345   4.939   5.787  1.5703  1.6510 -0.8289
 1073TIP3    H224711   5.387   5.046   5.886 -1.9764  1.4028  1.1142
 1074TIP3   OH224712   5.062   6.386   4.423  0.1963  0.8405  0.0342
 1074TIP3    H124713   5.142   6.439   4.428  0.8110  0.5653 -3.8228
 1074TIP3    H224714   5.088   6.309   4.373 -1.5831 -1.4420  2.3478
 1075TIP3   OH224715   2.338   1.688  15.572 -0.1775 -0.1064 -0.0742
 1075TIP3    H124716   2.272   1.620  15.556 -0.5415  0.4139 -0.8722
 1075TIP3    H224717   2.378   1.664  15.655 -0.4005 -1.2181 -0.2746
 1076TIP3   OH224718   2.108   0.816   4.389 -0.1831 -0.0471 -0.2992
 1076TIP3    H124719   2.078   0.889   4.334  2.2169  0.8086 -0.5993
 1076TIP3    H224720   2.028   0.781   4.427 -1.8264  0.2617 -3.1552
 1077TIP3   OH224721   3.508   5.151   0.417 -0.4499  0.1905  0.4570
 1077TIP3    H124722   3.599   5.166   0.392 -0.3966 -1.0744 -0.1987
 1077TIP3    H224723   3.488   5.222   0.478  1.0446  0.3416  0.8134
 1078TIP3   OH224724   6.067   4.694   1.164 -0.8600  0.3701  0.1608
 1078TIP3    H124725   5.999   4.643   1.209 -0.5364 -0.1102  0.1177
 1078TIP3    H224726   6.133   4.710   1.231 -1.0844  0.9746  0.2434
 1079TIP3   OH224727   6.324   0.701  16.094 -0.1916  0.0090  0.1998
 1079TIP3    H124728   6.299   0.722  16.184 -1.6098 -0.1146 -0.1423
 1079TIP3    H224729   6.253   0.645  16.062  1.0247 -1.1819 -0.5312
 1080TIP3   OH224730   3.613   0.882  16.889  0.0672  0.1005 -0.6516
 1080TIP3    H124731   3.521   0.864  16.869  0.3952 -2.2329 -0.2980
 1080TIP3    H224732   3.651   0.796  16.907  2.4018  0.9861 -1.0519
 1081TIP3   OH224733   5.547   3.619  14.797  0.2486  0.4301  0.4612
 1081TIP3    H124734   5.589   3.699  14.767 -1.4375  1.2869  0.2459
 1081TIP3    H224735   5.472   3.608  14.738 -1.0451  0.1529  2.0783
 1082TIP3   OH224736   2.354   6.475  15.133 -0.3135  0.0664  0.1159
 1082TIP3    H124737   2.380   6.462  15.224 -1.9795 -2.0898  0.3535
 1082TIP3    H224738   2.428   6.443  15.081 -0.1064 -0.4719  0.7382
 1083TIP3   OH224739   2.147   3.104  16.726 -0.1278  0.2166 -0.3231
 1083TIP3    H124740   2.221   3.155  16.693 -1.3045  1.1132 -1.7156
 1083TIP3    H224741   2.185   3.020  16.753  1.5793  1.1524  0.3250
 1084TIP3   OH224742   6.196   3.301   4.057  0.3767 -0.4712  0.2215
 1084TIP3    H124743   6.219   3.387   4.021 -0.4414 -0.6198 -0.7229
 1084TIP3    H224744   6.154   3.256   3.984 -0.3725 -1.2024  1.0835
 1085TIP3   OH224745   6.584   0.824  12.909  0.0645  0.1874  0.7656
 1085TIP3    H124746   6.492   0.801  12.908 -0.2213  1.2648 -0.4457
 1085TIP3    H224747   6.596   0.873  12.991  0.1322 -1.9250  2.0976
 1086TIP3   OH224748   2.758   3.295  14.411 -0.4517 -0.0710  0.6301
 1086TIP3    H124749   2.663   3.304  14.410 -0.4919 -0.0922 -2.0070
 1086TIP3    H224750   2.780   3.258  14.325  1.9322 -0.2362  1.2342
 1087TIP3   OH224751   5.655   3.290  13.389 -0.7333 -0.4624  0.4999
 1087TIP3    H124752   5.612   3.276  13.305 -0.2891  1.5516 -0.1282
 1087TIP3    H224753   5.637   3.382  13.409  2.8418  0.3919  0.4093
 1088TIP3   OH224754   2.255   2.341  12.327 -0.9052 -0.2470 -0.4655
 1088TIP3    H124755   2.290   2.401  12.392 -0.8445 -1.4271  0.6521
 1088TIP3    H224756   2.282   2.376  12.243  0.2268  0.5677  0.2215
 1089TIP3   OH224757   1.107   5.465   2.572  0.5895 -0.1503  0.5204
 1089TIP3    H124758   1.136   5.554   2.552 -0.8767  0.5675  1.3830
 1089TIP3    H224759   1.161   5.409   2.517  1.5525  1.2732 -0.0419
 1090TIP3   OH224760   0.831   6.139  16.298 -0.0667  0.3818  0.0892
 1090TIP3    H124761   0.881   6.057  16.297 -0.4927 -0.0066  2.5745
 1090TIP3    H224762   0.884   6.201  16.248  1.2040 -0.9150 -0.2422
 1091TIP3   OH224763   2.153   6.380  10.519 -0.2454  0.4534  0.1917
 1091TIP3    H124764   2.161   6.439  10.444 -2.9219  0.1320 -0.4603
 1091TIP3    H224765   2.066   6.397  10.554 -0.3476 -1.7487  1.1724
 1092TIP3   OH224766   2.991   2.610   4.631  0.2365  0.5511  0.3534
 1092TIP3    H124767   3.046   2.679   4.596 -1.0873  0.9213 -1.1152
 1092TIP3    H224768   2.945   2.575   4.555 -1.0424 -0.1983  1.4222
 1093TIP3   OH224769   6.135   0.985   5.835  0.0995 -0.1044  0.3408
 1093TIP3    H124770   6.073   0.914   5.817 -0.2676 -0.5276  2.9270
 1093TIP3    H224771   6.204   0.973   5.769 -2.1365 -0.0451 -2.1680
 1094TIP3   OH224772   2.216   4.872  10.928  0.0485 -0.5856 -0.3001
 1094TIP3    H124773   2.281   4.933  10.893  0.0132  0.3362  1.1457
 1094TIP3    H224774   2.215   4.800  10.865 -0.3528  1.1457 -2.3867
 1095TIP3   OH224775   4.921   3.716  10.628 -0.3423  0.0218 -0.6319
 1095TIP3    H124776   4.900   3.665  10.550  0.4324  0.3092 -1.0400
 1095TIP3    H224777   4.836   3.732  10.670 -0.8333  0.3349 -1.7087
 1096TIP3   OH224778   5.259   2.221   4.145 -1.2598  0.4729 -0.4721
 1096TIP3    H124779   5.234   2.192   4.233 -0.1828 -1.9399 -0.8896
 1096TIP3    H224780   5.330   2.283   4.160 -2.4155  1.6510  0.3948
 1097TIP3   OH224781   5.914   1.277  16.209  0.3025  0.4091  0.0181
 1097TIP3    H124782   5.891   1.291  16.301 -1.5964  1.4395 -0.5605
 1097TIP3    H224783   5.968   1.353  16.186  0.9147  0.0692  0.2992
 1098TIP3   OH224784   0.147   0.728   6.377 -0.0720  0.3997 -0.3883
 1098TIP3    H124785   0.163   0.704   6.469 -0.3278 -0.7411 -0.6262
 1098TIP3    H224786   0.235   0.739   6.340  0.0286  1.5418  0.1435
 1099TIP3   OH224787   3.538   6.710   5.240  0.1825  0.1313 -0.5379
 1099TIP3    H124788   3.514   6.620   5.260 -0.9822  0.0218 -2.1769
 1099TIP3    H224789   3.633   6.710   5.238  0.2017 -1.3577 -1.5609
 1100TIP3   OH224790   3.603   6.068  12.386  0.2670 -0.0850  0.1507
 1100TIP3    H124791   3.690   6.028  12.388 -0.4843 -1.8022  0.5981
 1100TIP3    H224792   3.570   6.049  12.298  0.7084  1.4387 -0.3626
 1101TIP3   OH224793   0.548   4.635   5.017  0.5869  0.3273  0.2619
 1101TIP3    H124794   0.518   4.547   4.994  1.7808  0.1281 -0.6611
 1101TIP3    H224795   0.587   4.625   5.104  2.1897 -0.4542 -0.5048
 1102TIP3   OH224796   6.507   3.295   5.932  0.1341 -0.1743  0.4044
 1102TIP3    H124797   6.443   3.366   5.941  0.8490  0.4250  0.9577
 1102TIP3    H224798   6.495   3.242   6.010 -0.0400 -0.3642  0.2501
 1103TIP3   OH224799   0.566   5.205  11.754 -0.4111 -0.1202 -0.8371
 1103TIP3    H124800   0.632   5.191  11.685  0.7199 -1.7843  0.5148
 1103TIP3    H224801   0.507   5.130  11.746 -1.2290  0.5189 -0.9788
 1104TIP3   OH224802   5.567   1.619  14.847 -0.3252  0.5645 -0.4262
 1104TIP3    H124803   5.604   1.703  14.820  0.1009  0.4167 -0.3096
 1104TIP3    H224804   5.479   1.640  14.878  0.2239  1.1584  0.7862
 1105TIP3   OH224805   3.029   6.839  13.116 -0.4165  0.1441 -0.6466
 1105TIP3    H124806   3.112   6.847  13.069 -0.7128  0.1148 -1.1926
 1105TIP3    H224807   2.972   6.904  13.074 -0.2273  1.2400  0.7343
 1106TIP3   OH224808   3.023   6.714  16.166 -0.1553 -0.1668 -0.1229
 1106TIP3    H124809   3.116   6.720  16.145 -0.3225 -1.1740 -1.2804
 1106TIP3    H224810   2.979   6.720  16.081 -1.2605  1.8600  0.5264
 1107TIP3   OH224811   2.922   1.076  12.843  0.4004  0.2416  0.4406
 1107TIP3    H124812   2.961   1.002  12.796  0.2545  0.5965 -0.2447
 1107TIP3    H224813   2.996   1.117  12.887  0.5467 -0.0582  0.4791
 1108TIP3   OH224814   1.539   0.388  12.254  0.5973  0.2815 -0.3390
 1108TIP3    H124815   1.569   0.297  12.248 -0.2158 -0.1272  1.2451
 1108TIP3    H224816   1.446   0.385  12.231  0.8101  0.9131 -1.3578
 1109TIP3   OH224817   4.418   0.177   5.837  0.1533 -0.8102 -0.5275
 1109TIP3    H124818   4.507   0.191   5.871 -0.3492  1.2835  0.0849
 1109TIP3    H224819   4.395   0.089   5.867  1.3640 -0.7060  0.8685
 1110TIP3   OH224820   6.632   1.275  15.276  0.4857 -0.7554 -0.3682
 1110TIP3    H124821   6.606   1.348  15.220 -2.6536  0.8355  2.7457
 1110TIP3    H224822   6.712   1.305  15.319  0.3308  0.0227 -0.6000
 1111TIP3   OH224823   1.286   1.452  14.911  0.3017  0.3424  0.6998
 1111TIP3    H124824   1.259   1.364  14.888 -1.3694  0.6531  1.3135
 1111TIP3    H224825   1.342   1.441  14.988  0.3202 -0.1965  0.6084
 1112TIP3   OH224826   2.291   1.880   0.448  0.0134 -0.0496 -0.3031
 1112TIP3    H124827   2.302   1.826   0.526 -1.6988  0.7225  0.5317
 1112TIP3    H224828   2.378   1.882   0.407  0.5575 -1.8249  0.6597
 1113TIP3   OH224829   6.539   2.844   0.890 -0.1109  0.3723  0.5646
 1113TIP3    H124830   6.550   2.765   0.941 -0.3716  0.2692  0.4624
 1113TIP3    H224831   6.445   2.864   0.895 -0.1345  0.3813  0.1628
 1114TIP3   OH224832   3.774   3.986  16.768  0.5108 -0.1629 -0.0104
 1114TIP3    H124833   3.841   4.044  16.804 -0.3796  1.0911 -0.3236
 1114TIP3    H224834   3.765   4.013  16.677 -0.2811 -0.4289 -0.0226
 1115TIP3   OH224835   1.665   3.370  11.238  0.4447 -0.4592 -0.2322
 1115TIP3    H124836   1.676   3.361  11.143 -0.7671 -0.3888 -0.3934
 1115TIP3    H224837   1.668   3.464  11.254 -4.9153  0.1676 -1.0441
 1116TIP3   OH224838   2.899   3.674  14.824 -0.3462 -0.1131 -0.6629
 1116TIP3    H124839   2.839   3.748  14.815  0.6393  0.7633 -0.2667
 1116TIP3    H224840   2.863   3.607  14.766 -2.2483  0.0065  0.2696
 1117TIP3   OH224841   1.743   6.598  11.248 -0.1903  0.2132 -0.7603
 1117TIP3    H124842   1.690   6.648  11.186 -0.6501  0.5666 -0.0995
 1117TIP3    H224843   1.829   6.641  11.247 -0.8846  1.7684  0.6084
 1118TIP3   OH224844   1.707   0.022   0.800  0.8605  0.9181  0.4736
 1118TIP3    H124845   1.626  -0.011   0.763  0.5607 -1.2481  2.7788
 1118TIP3    H224846   1.768   0.027   0.726 -0.7451  0.5464 -0.9158
 1119TIP3   OH224847   3.057   0.978  15.685 -0.5843  0.0786  0.3628
 1119TIP3    H124848   3.096   0.892  15.697 -0.9351  0.0191  1.1930
 1119TIP3    H224849   3.111   1.020  15.619 -1.0522 -1.1753 -0.8741
 1120TIP3   OH224850   5.416   5.794  14.656  0.6048 -0.1260 -0.4272
 1120TIP3    H124851   5.416   5.883  14.692  1.4081 -0.4091  0.2845
 1120TIP3    H224852   5.469   5.743  14.717 -2.3606 -1.8168  0.9564
 1121TIP3   OH224853   3.598   6.167   6.322  0.1021 -0.0191  0.5348
 1121TIP3    H124854   3.572   6.250   6.361 -0.7404 -0.2663  0.5211
 1121TIP3    H224855   3.569   6.101   6.386 -0.4432 -0.3724 -0.0679
 1122TIP3   OH224856   2.640   6.459   1.746  0.5347  0.2185  0.0561
 1122TIP3    H124857   2.692   6.493   1.672 -1.1472  1.1541 -0.7642
 1122TIP3    H224858   2.607   6.375   1.715 -1.4008  1.2767 -0.9296
 1123TIP3   OH224859   2.803   3.775   2.266 -0.1669  0.5490  0.5309
 1123TIP3    H124860   2.771   3.743   2.181  1.2022  0.6038 -0.0241
 1123TIP3    H224861   2.821   3.868   2.251  0.6271  0.4288  0.7128
 1124TIP3   OH224862   1.639   0.468   3.855  0.3219 -0.1947 -0.3072
 1124TIP3    H124863   1.626   0.422   3.772  2.0116  0.2380 -0.8397
 1124TIP3    H224864   1.660   0.558   3.830 -0.4062  0.2629  0.6524
 1125TIP3   OH224865   3.962   6.478  15.947  0.3325 -0.6607  0.0169
 1125TIP3    H124866   3.916   6.549  15.903  1.6064  0.8424  1.0029
 1125TIP3    H224867   4.003   6.428  15.876 -0.8025 -0.5818 -0.7069
 1126TIP3   OH224868   2.376   5.677  16.227  0.3218 -0.6883  0.2953
 1126TIP3    H124869   2.312   5.725  16.174  0.7712 -1.9932 -1.5119
 1126TIP3    H224870   2.420   5.618  16.165  1.0224 -2.1499  2.0770
 1127TIP3   OH224871   2.002   5.188  16.319 -0.7560 -0.1667 -0.0668
 1127TIP3    H124872   1.976   5.187  16.411 -0.4175 -0.7804  0.0292
 1127TIP3    H224873   2.083   5.137  16.317 -0.1046  0.8589 -0.5206
 1128TIP3   OH224874   3.974   6.795  13.608 -0.6081 -0.1167 -0.1245
 1128TIP3    H124875   3.988   6.701  13.616  1.9600  0.0162 -1.8596
 1128TIP3    H224876   3.902   6.803  13.545 -1.0536 -0.9029  0.2724
 1129TIP3   OH224877   1.723   0.889   0.726 -0.3518 -0.1838  0.0620
 1129TIP3    H124878   1.673   0.862   0.803  1.7956  0.0207  1.6234
 1129TIP3    H224879   1.659   0.932   0.669 -1.9708 -0.1438  1.8235
 1130TIP3   OH224880   0.443   5.997  15.130  0.0325 -0.6214  0.0692
 1130TIP3    H124881   0.403   6.014  15.045 -1.7636 -0.5914  0.8975
 1130TIP3    H224882   0.456   5.902  15.131  0.0185 -0.6270 -0.2200
 1131TIP3   OH224883   4.959   2.353   1.507  0.0447  0.6056 -0.1093
 1131TIP3    H124884   4.956   2.423   1.442  0.1414  0.8366  0.1356
 1131TIP3    H224885   5.029   2.378   1.567  0.0944  0.2883 -0.0336
 1132TIP3   OH224886   2.443   0.218   2.420 -0.0789  0.2242 -0.0024
 1132TIP3    H124887   2.493   0.253   2.347  0.0383  1.4288  0.6238
 1132TIP3    H224888   2.489   0.137   2.445  1.5902  1.2888  0.5522
 1133TIP3   OH224889   1.477   1.479   5.333  0.7407  0.1048 -0.4080
 1133TIP3    H124890   1.405   1.518   5.382  0.8206 -1.3284  0.9338
 1133TIP3    H224891   1.517   1.552   5.286 -0.9332  1.0976 -0.3733
 1134TIP3   OH224892   6.325   5.861   5.325  0.1287 -0.2917 -0.5253
 1134TIP3    H124893   6.351   5.846   5.234  0.7515 -0.0132 -0.3977
 1134TIP3    H224894   6.234   5.831   5.329  0.2961 -0.9042 -1.0822
 1135TIP3   OH224895   4.294   4.374   0.838  0.1787 -0.4947 -0.4107
 1135TIP3    H124896   4.309   4.466   0.860 -0.8108 -0.5892  0.8370
 1135TIP3    H224897   4.379   4.341   0.809  0.7379  0.6112 -0.0655
 1136TIP3   OH224898   4.061   3.623   2.789  0.7599  0.4723  1.1264
 1136TIP3    H124899   4.099   3.578   2.864 -0.4723 -0.2914  1.3269
 1136TIP3    H224900   4.011   3.555   2.744  1.6337  0.8792 -0.5076
 1137TIP3   OH224901   6.117   5.942   0.563  0.6787  0.5077  0.4058
 1137TIP3    H124902   6.131   5.878   0.633  3.8461  4.5551  4.0564
 1137TIP3    H224903   6.168   5.908   0.489 -0.3550 -2.5396  0.9377
 1138TIP3   OH224904   1.054   3.846  15.102 -0.0020  0.0812  0.0090
 1138TIP3    H124905   0.997   3.771  15.119  0.9586 -0.8789 -0.8326
 1138TIP3    H224906   1.102   3.822  15.023  1.1188  1.1289  0.3379
 1139TIP3   OH224907   3.714   0.418  16.798 -0.0602  0.1374  0.0484
 1139TIP3    H124908   3.763   0.338  16.783  1.6287  1.4039 -1.6511
 1139TIP3    H224909   3.624   0.396  16.775  0.2743 -1.3790  0.1005
 1140TIP3   OH224910   6.557   4.285   4.114 -0.1983 -0.3026 -0.7460
 1140TIP3    H124911   6.518   4.276   4.201 -0.5742 -0.6078 -0.9435
 1140TIP3    H224912   6.503   4.351   4.070  0.9049  0.9986 -0.2425
 1141TIP3   OH224913   2.330   3.393   2.256  0.0348  0.6571 -0.2081
 1141TIP3    H124914   2.396   3.432   2.314 -1.0664 -0.1699  1.7061
 1141TIP3    H224915   2.290   3.324   2.309  1.3850 -2.6783 -3.1347
 1142TIP3   OH224916   4.273   4.968   6.037  0.0872 -0.3064  0.2352
 1142TIP3    H124917   4.306   4.995   6.122 -1.6393  1.3768  0.4415
 1142TIP3    H224918   4.229   4.884   6.054 -1.1623  0.5244  1.2600
 1143TIP3   OH224919   0.991   5.498   5.482 -0.5364  0.2051 -0.1226
 1143TIP3    H124920   0.982   5.519   5.574 -0.3549  1.0323 -0.2851
 1143TIP3    H224921   0.936   5.421   5.469 -0.2188 -0.1874  0.7611
 1144TIP3   OH224922   2.751   5.229  13.524  0.4733 -0.2033 -0.0043
 1144TIP3    H124923   2.754   5.233  13.619 -0.1665 -1.2067  0.0661
 1144TIP3    H224924   2.683   5.166  13.504  1.4244 -0.9297 -1.1105
 1145TIP3   OH224925   6.482   6.609  16.588  0.7504 -0.2234  0.8531
 1145TIP3    H124926   6.436   6.643  16.664 -0.1560 -1.6387  0.9728
 1145TIP3    H224927   6.420   6.619  16.515  1.4625  0.7640  0.3636
 1146TIP3   OH224928   3.110   3.927   0.250 -0.6049 -0.2705 -0.6090
 1146TIP3    H124929   3.092   3.839   0.282 -1.6965  0.1768  0.0710
 1146TIP3    H224930   3.087   3.924   0.157 -0.4021 -0.7644 -0.6439
 1147TIP3   OH224931   0.299   5.321   2.704 -0.8096 -0.2612  0.0355
 1147TIP3    H124932   0.275   5.411   2.683 -0.4721  0.0336  0.8664
 1147TIP3    H224933   0.351   5.291   2.629 -0.6142  0.3530 -0.0774
 1148TIP3   OH224934   5.335   3.306  15.715  0.4499 -0.1390 -0.0303
 1148TIP3    H124935   5.403   3.307  15.782 -0.5849 -2.6141  1.1893
 1148TIP3    H224936   5.381   3.286  15.634  1.2872 -1.0802  0.6521
 1149TIP3   OH224937   2.762   2.261   5.113  0.2011 -0.0709  0.8522
 1149TIP3    H124938   2.791   2.339   5.067 -3.7713  0.4936 -1.0826
 1149TIP3    H224939   2.792   2.188   5.058 -0.5069  0.3884 -0.1646
 1150TIP3   OH224940   5.842   0.770   5.165  0.1945 -0.2385 -0.4853
 1150TIP3    H124941   5.876   0.716   5.092  1.0606  0.1855 -0.4074
 1150TIP3    H224942   5.767   0.721   5.197  0.0499 -0.6466 -1.4016
 1151TIP3   OH224943   0.216   0.617   4.363 -0.0042 -0.0438 -0.1554
 1151TIP3    H124944   0.276   0.625   4.438  1.7713  0.6002 -1.5779
 1151TIP3    H224945   0.227   0.699   4.315  0.6828 -1.3757 -2.3763
 1152TIP3   OH224946   5.057   5.131   0.524 -0.2338 -0.0351  0.1944
 1152TIP3    H124947   5.050   5.065   0.455 -0.5536 -1.1016  1.2035
 1152TIP3    H224948   5.091   5.209   0.480 -1.6114 -0.2769 -1.4180
 1153TIP3   OH224949   4.507   1.075   1.538  0.0432  0.3736  0.1956
 1153TIP3    H124950   4.476   1.056   1.626  0.1698 -1.2889 -0.0811
 1153TIP3    H224951   4.545   0.993   1.508 -0.3139  0.7974 -1.5399
 1154TIP3   OH224952   5.813   1.639  15.620  0.1556  0.1618 -0.3405
 1154TIP3    H124953   5.840   1.726  15.590  0.8150  0.4278  0.9666
 1154TIP3    H224954   5.888   1.583  15.601 -0.4759 -0.2783 -1.6989
 1155TIP3   OH224955   0.151   4.554   0.263 -0.3010  0.6857  0.1477
 1155TIP3    H124956   0.113   4.522   0.345 -0.1692 -0.8980 -0.3734
 1155TIP3    H224957   0.088   4.619   0.231 -0.8050  0.6518  1.0464
 1156TIP3   OH224958   5.102   6.199  16.244  0.1986  0.0104 -0.4886
 1156TIP3    H124959   5.178   6.227  16.194  1.4489 -1.3506  0.5711
 1156TIP3    H224960   5.127   6.114  16.281 -2.1102 -0.8726 -0.7392
 1157TIP3   OH224961   3.442   2.681  12.523 -0.7389 -0.0083 -0.7293
 1157TIP3    H124962   3.387   2.705  12.598 -0.2188 -1.3492  0.1286
 1157TIP3    H224963   3.521   2.644  12.563 -0.2504 -0.3150 -1.9498
 1158TIP3   OH224964   6.453   1.313   2.585 -0.2841  0.3326 -0.3020
 1158TIP3    H124965   6.508   1.316   2.507  1.4503 -0.2962  0.8219
 1158TIP3    H224966   6.460   1.400   2.624  0.6907  0.0045  0.3036
 1159TIP3   OH224967   1.841   1.558   2.728 -0.3370  0.2629  0.0594
 1159TIP3    H124968   1.769   1.616   2.752 -0.5584 -0.2322  0.6131
 1159TIP3    H224969   1.850   1.569   2.634  0.5167  2.2291  0.3037
 1160TIP3   OH224970   3.529   2.681  15.556  0.2345  0.4404  0.4489
 1160TIP3    H124971   3.437   2.662  15.537  0.6976 -1.5969 -0.1032
 1160TIP3    H224972   3.537   2.776  15.548 -1.9991  0.7667  1.4169
 1161TIP3   OH224973   6.755   0.204  13.295 -0.4548  0.1026 -0.0599
 1161TIP3    H124974   6.719   0.272  13.238 -0.5290 -0.0119 -0.1503
 1161TIP3    H224975   6.833   0.172  13.249 -1.9571 -1.8433 -1.4122
 1162TIP3   OH224976   0.485   5.045  14.850 -0.3614 -0.2761 -0.3982
 1162TIP3    H124977   0.569   5.058  14.893 -0.3435 -0.6534 -0.3175
 1162TIP3    H224978   0.436   5.126  14.869 -1.6854 -1.7450  3.3851
 1163TIP3   OH224979   5.879   0.300   1.059 -0.2456 -0.4424  0.3247
 1163TIP3    H124980   5.832   0.338   0.985  1.5295 -2.1679 -1.8699
 1163TIP3    H224981   5.814   0.246   1.104 -1.5409  1.2135  0.5040
 1164TIP3   OH224982   5.137   2.772   5.529  0.1438 -0.1317 -0.1440
 1164TIP3    H124983   5.045   2.750   5.540  0.4565 -1.6220 -0.3129
 1164TIP3    H224984   5.177   2.757   5.615  0.5826 -1.4432 -0.5529
 1165TIP3   OH224985   4.330   2.458   2.511  0.4432 -0.0989 -0.6303
 1165TIP3    H124986   4.388   2.424   2.580  0.0753 -1.6111 -1.0239
 1165TIP3    H224987   4.373   2.538   2.482 -0.5981  2.0174  2.9971
 1166TIP3   OH224988   0.221   5.003   1.546  0.0173  0.2351 -0.1554
 1166TIP3    H124989   0.141   5.051   1.570  0.4868  0.0133  2.0521
 1166TIP3    H224990   0.288   5.070   1.537 -0.0370  0.2716 -0.2870
 1167TIP3   OH224991   4.216   4.246  11.446  0.0126 -0.5670 -0.3817
 1167TIP3    H124992   4.300   4.201  11.457  0.9376  1.1715  0.0133
 1167TIP3    H224993   4.239   4.333  11.414 -1.6327  0.0380 -0.0382
 1168TIP3   OH224994   1.215   1.999  15.566  0.3676  0.5077 -0.1424
 1168TIP3    H124995   1.209   1.984  15.471  1.8426  0.3732 -0.2348
 1168TIP3    H224996   1.306   1.981  15.587  0.5656  2.5356  0.9567
 1169TIP3   OH224997   3.464   6.438   5.764 -0.5219  0.3086 -0.6181
 1169TIP3    H124998   3.435   6.367   5.707 -0.8844 -0.9224  0.9976
 1169TIP3    H224999   3.383   6.470   5.805 -0.1550  0.2820  0.1464
 1170TIP3   OH225000   3.189   5.355  11.786 -0.1813  0.4586  0.2328
 1170TIP3    H125001   3.181   5.440  11.829  0.0471  1.0887 -0.9086
 1170TIP3    H225002   3.252   5.306  11.838  0.7131  1.5061  0.1509
 1171TIP3   OH225003   4.219   5.042   3.793  0.1278  0.0537 -0.3524
 1171TIP3    H125004   4.289   5.104   3.814 -0.0527  0.3257 -0.5484
 1171TIP3    H225005   4.238   5.013   3.704 -0.3339  0.5733 -0.6228
 1172TIP3   OH225006   1.326   3.586  14.568 -0.1129 -0.1549  0.1841
 1172TIP3    H125007   1.303   3.674  14.536 -1.6604  0.1661  1.9952
 1172TIP3    H225008   1.298   3.527  14.498  1.3518  0.7739 -1.2528
 1173TIP3   OH225009   6.216   0.102  12.037  0.1727 -0.6781  0.4814
 1173TIP3    H125010   6.297   0.072  11.995  0.0115 -0.1859 -0.1799
 1173TIP3    H225011   6.158   0.026  12.034 -0.9125  0.1483 -2.8596
 1174TIP3   OH225012   4.304   3.675  10.705 -0.3256 -0.1173  0.1315
 1174TIP3    H125013   4.358   3.746  10.741  2.0300 -2.3327  1.3048
 1174TIP3    H225014   4.234   3.720  10.658  0.1977  2.9728  1.9846
 1175TIP3   OH225015   1.756   6.516  13.701  0.0402 -0.4091  0.6169
 1175TIP3    H125016   1.668   6.552  13.707  0.7025  1.8001 -1.1496
 1175TIP3    H225017   1.763   6.485  13.610  1.3808  0.4456  0.3987
 1176TIP3   OH225018   1.345   4.822   0.926  0.8208 -0.9891 -0.0903
 1176TIP3    H125019   1.434   4.855   0.911  1.9251 -3.8215 -0.5212
 1176TIP3    H225020   1.292   4.900   0.939  3.1609  0.8672 -0.9391
 1177TIP3   OH225021   0.468   4.550   1.341 -0.3168 -0.5046  0.3467
 1177TIP3    H125022   0.563   4.554   1.350 -0.2982  3.4643  0.2640
 1177TIP3    H225023   0.454   4.524   1.249  0.6531 -1.2050  0.3813
 1178TIP3   OH225024   2.936   5.444   1.058  0.0496  0.1330  0.1439
 1178TIP3    H125025   2.978   5.452   1.144 -0.2524  0.0220  0.3035
 1178TIP3    H225026   2.918   5.350   1.049  1.2453 -0.0476 -0.6000
 1179TIP3   OH225027   4.157   4.931  12.829  0.1205 -0.2737 -0.0207
 1179TIP3    H125028   4.233   4.882  12.799 -0.7827 -0.8939 -1.3642
 1179TIP3    H225029   4.087   4.866  12.835 -1.2268  0.8558 -2.2684
 1180TIP3   OH225030   2.909   6.078   1.954 -0.4058 -0.1141 -0.4019
 1180TIP3    H125031   2.923   6.148   2.018 -1.3484  0.9486 -1.3153
 1180TIP3    H225032   2.821   6.045   1.972 -0.1533 -0.7462 -0.2907
 1181TIP3   OH225033   0.514   4.700  14.665 -0.8302 -0.5606  0.5058
 1181TIP3    H125034   0.434   4.752  14.670 -1.4046 -1.4744  1.2451
 1181TIP3    H225035   0.506   4.649  14.585  0.3200  1.3593 -0.9061
 1182TIP3   OH225036   5.087   0.587  14.624  0.2996  0.0127  0.0090
 1182TIP3    H125037   5.123   0.611  14.538  0.7283  0.3360  0.2803
 1182TIP3    H225038   4.992   0.586  14.610  0.2943  1.3694 -0.1299
 1183TIP3   OH225039   4.675   3.676  11.991  0.2926  0.9188 -0.6757
 1183TIP3    H125040   4.765   3.654  11.970  0.5714  0.7725  0.6205
 1183TIP3    H225041   4.673   3.772  11.990  0.4893  0.9236 -0.5779
 1184TIP3   OH225042   2.093   0.282  11.807 -0.0746 -0.0110  0.0937
 1184TIP3    H125043   2.050   0.196  11.807 -0.2723  0.0844  0.5687
 1184TIP3    H225044   2.058   0.327  11.884 -0.5190  0.7765 -0.5512
 1185TIP3   OH225045   4.544   3.747   5.674 -0.6531 -0.8873  0.2812
 1185TIP3    H125046   4.631   3.779   5.698 -0.7162 -1.3829  1.2525
 1185TIP3    H225047   4.485   3.820   5.692 -0.3179 -0.1400 -1.5086
 1186TIP3   OH225048   2.302   5.747   2.029  0.0834 -0.3314 -0.2719
 1186TIP3    H125049   2.284   5.741   2.123 -0.7536 -0.9800 -0.4559
 1186TIP3    H225050   2.284   5.659   1.996  1.3058 -0.3682 -0.9019
 1187TIP3   OH225051   1.350   6.417   4.634  0.2948 -0.0604  0.5380
 1187TIP3    H125052   1.416   6.473   4.595 -0.4944  0.9695  0.6157
 1187TIP3    H225053   1.277   6.418   4.571  0.6624 -1.8885  0.0287
 1188TIP3   OH225054   2.961   4.321  13.518 -0.5446 -0.1241 -0.0456
 1188TIP3    H125055   3.040   4.267  13.525  0.8518  1.9270  1.0114
 1188TIP3    H225056   2.981   4.385  13.450 -0.8557  1.0578  0.9433
 1189TIP3   OH225057   4.849   1.841   0.708  0.2859 -0.2891  0.2394
 1189TIP3    H125058   4.765   1.801   0.729  0.8832 -1.4137  0.5669
 1189TIP3    H225059   4.910   1.768   0.702  1.7872  0.6492  2.6035
 1190TIP3   OH225060   1.909   6.678  14.851 -0.1769 -0.0000 -0.2538
 1190TIP3    H125061   1.968   6.686  14.926 -1.9453 -0.3276  1.2596
 1190TIP3    H225062   1.962   6.639  14.782  1.2783 -0.5787  1.1275
 1191TIP3   OH225063   6.073   1.627   2.963  0.1997  0.4916 -0.2939
 1191TIP3    H125064   6.015   1.701   2.944 -0.5298  0.1647  0.5604
 1191TIP3    H225065   6.035   1.554   2.913  1.1625  0.7693 -1.4751
 1192TIP3   OH225066   0.559   0.260  11.893 -0.4431 -0.2229 -0.5927
 1192TIP3    H125067   0.516   0.216  11.965  1.1711  1.5527  1.5950
 1192TIP3    H225068   0.619   0.195  11.856  0.7944 -0.3783  1.5653
 1193TIP3   OH225069   1.308   3.932   4.599  0.3791 -0.1709  0.1526
 1193TIP3    H125070   1.327   3.840   4.620 -1.6609 -0.5585  0.5459
 1193TIP3    H225071   1.304   3.934   4.503 -1.1402 -0.8907  0.1694
 1194TIP3   OH225072   6.444   3.965  11.607 -0.4831 -0.1608  0.0878
 1194TIP3    H125073   6.476   4.027  11.541  1.8371  1.7658  2.7973
 1194TIP3    H225074   6.351   3.984  11.615 -0.4761  0.6855 -1.4307
 1195TIP3   OH225075   3.258   1.049   1.634  0.4898 -0.0647 -0.9475
 1195TIP3    H125076   3.185   1.026   1.691  1.1752  1.8922  0.8359
 1195TIP3    H225077   3.217   1.073   1.551 -0.8188 -0.0228 -0.3158
 1196TIP3   OH225078   5.298   2.331  11.312 -0.0141  0.1590 -0.3107
 1196TIP3    H125079   5.252   2.407  11.275 -0.3570  0.2289  0.2550
 1196TIP3    H225080   5.276   2.332  11.405  0.0372 -0.5921 -0.2816
 1197TIP3   OH225081   6.592   0.656  14.644  0.2333  0.1337 -0.1455
 1197TIP3    H125082   6.496   0.655  14.646  0.1363  0.5076 -2.4525
 1197TIP3    H225083   6.618   0.568  14.673 -0.8304 -0.3000 -0.4742
 1198TIP3   OH225084   0.674   5.568   2.324 -0.0398 -0.5642 -0.2196
 1198TIP3    H125085   0.747   5.628   2.338 -0.8535  0.2856  0.4683
 1198TIP3    H225086   0.707   5.483   2.354  0.3362  0.0037  1.0069
 1199TIP3   OH225087   0.141   0.146   4.064  0.3359 -0.4571 -0.0142
 1199TIP3    H125088   0.191   0.093   4.126  1.5767  0.5131 -0.1183
 1199TIP3    H225089   0.190   0.140   3.982  0.0289  0.1382 -0.2523
 1200TIP3   OH225090   4.857   5.190  14.014 -0.5670  0.1602 -0.4424
 1200TIP3    H125091   4.842   5.134  14.091  1.5744 -0.4570 -0.4252
 1200TIP3    H225092   4.885   5.129  13.946  0.6819  1.0708 -0.7606
 1201TIP3   OH225093   6.654   3.403  16.941  0.0737 -0.6778 -0.0368
 1201TIP3    H125094   6.564   3.385  16.915  0.1478 -1.7430  0.3786
 1201TIP3    H225095   6.687   3.318  16.971  0.5204  0.1382  1.9148
 1202TIP3   OH225096   0.780   6.806  14.223 -0.2582  0.4136  0.1879
 1202TIP3    H125097   0.787   6.816  14.128  1.0642  0.5693  0.2835
 1202TIP3    H225098   0.824   6.724  14.242  0.8396  1.1208  0.8078
 1203TIP3   OH225099   5.397   4.880   3.039 -0.0358 -0.5283 -0.4603
 1203TIP3    H125100   5.313   4.913   3.005 -0.0148 -0.8803 -0.8669
 1203TIP3    H225101   5.406   4.793   3.000 -0.2071 -1.1298  0.7978
 1204TIP3   OH225102   3.505   4.207  10.924 -0.0410 -0.2021 -0.1778
 1204TIP3    H125103   3.458   4.243  10.999 -1.1708 -2.1888  0.1304
 1204TIP3    H225104   3.521   4.282  10.867 -1.4787  0.9146  0.8330
 1205TIP3   OH225105   4.350   4.243   2.752  0.0266  0.3893  0.0860
 1205TIP3    H125106   4.259   4.226   2.725  0.5658  0.6601 -2.1113
 1205TIP3    H225107   4.366   4.182   2.824 -1.2471 -1.1818 -0.8885
 1206TIP3   OH225108   2.059   4.250   3.478  0.4269  0.0699 -0.1246
 1206TIP3    H125109   2.005   4.320   3.439 -0.7403 -0.9023 -0.3212
 1206TIP3    H225110   2.021   4.238   3.566  1.3551  0.4396  0.3415
 1207TIP3   OH225111   5.006   4.569  13.555  0.5571 -0.1771 -0.0034
 1207TIP3    H125112   5.096   4.539  13.541 -0.5168 -2.6246 -2.4862
 1207TIP3    H225113   4.953   4.490  13.548 -2.0228  1.5364 -1.3552
 1208TIP3   OH225114   6.820   4.585  17.004  0.2093 -0.0286  0.1096
 1208TIP3    H125115   6.736   4.628  16.987  1.0138  1.5736 -0.0545
 1208TIP3    H225116   6.877   4.613  16.932  1.2143 -0.1007  0.8406
 1209TIP3   OH225117   2.207   0.526  17.175 -0.2718 -0.0050  0.4888
 1209TIP3    H125118   2.224   0.512  17.082 -0.1814 -0.7627  0.6138
 1209TIP3    H225119   2.236   0.445  17.218  0.1672  0.5324  1.2404
 1210TIP3   OH225120   6.665   5.863  11.739 -0.5438 -0.0827  0.2290
 1210TIP3    H125121   6.725   5.881  11.667 -0.3982  0.6039  0.5181
 1210TIP3    H225122   6.713   5.886  11.818 -0.8134 -0.5399  0.5325
 1211TIP3   OH225123   0.240   2.169   2.452  0.3573 -0.9594  0.5017
 1211TIP3    H125124   0.215   2.110   2.381  0.4330 -0.3182 -0.0690
 1211TIP3    H225125   0.322   2.132   2.486  2.8668  1.1124 -2.7359
 1212TIP3   OH225126   3.277   4.034  16.347 -0.9558 -0.5357 -0.0131
 1212TIP3    H125127   3.302   3.958  16.295 -1.2055 -0.9636  0.4872
 1212TIP3    H225128   3.182   4.038  16.339 -0.7945  1.5625 -2.5794
 1213TIP3   OH225129   4.360   2.120   3.986  0.0082  0.3587 -0.3244
 1213TIP3    H125130   4.394   2.032   4.001  1.6922  1.1729  0.9121
 1213TIP3    H225131   4.433   2.168   3.947 -0.8865  1.2227 -0.9956
 1214TIP3   OH225132   4.604   6.090   4.140 -0.2951  0.0233  0.3294
 1214TIP3    H125133   4.531   6.141   4.178 -0.7415 -1.2341  1.2257
 1214TIP3    H225134   4.606   6.117   4.048 -0.3948  1.7827  0.7937
 1215TIP3   OH225135   2.599   2.696   1.165 -0.1631  0.6608  0.1723
 1215TIP3    H125136   2.663   2.766   1.181  0.9147 -0.6456  1.9454
 1215TIP3    H225137   2.598   2.685   1.070  0.2835  2.4756 -0.0737
 1216TIP3   OH225138   5.045   0.118  10.937  0.4565 -0.1624  0.5057
 1216TIP3    H125139   4.965   0.165  10.957  0.6425 -0.5773  2.3812
 1216TIP3    H225140   5.017   0.028  10.922  0.1076  0.3863 -3.0227
 1217TIP3   OH225141   4.120   1.369  16.650 -0.1474  0.3854  0.3361
 1217TIP3    H125142   4.054   1.336  16.712  0.0618  0.2320  0.4798
 1217TIP3    H225143   4.201   1.325  16.676  0.0866  0.8388  0.3842
 1218TIP3   OH225144   4.732   0.770   4.128 -0.1430 -0.1378 -0.3583
 1218TIP3    H125145   4.695   0.705   4.188 -1.9357  0.5409 -0.6325
 1218TIP3    H225146   4.661   0.834   4.117  0.7292  0.6156 -1.9158
 1219TIP3   OH225147   6.716   5.602  13.760 -0.2608 -0.2059  0.2782
 1219TIP3    H125148   6.722   5.526  13.817  0.6416 -1.1810 -1.0453
 1219TIP3    H225149   6.802   5.644  13.767 -0.7681  0.7252  1.0351
 1220TIP3   OH225150   4.181   5.729  15.862 -0.3055  0.3605 -0.2113
 1220TIP3    H125151   4.241   5.697  15.795 -1.3787  1.7901 -1.9220
 1220TIP3    H225152   4.095   5.698  15.835 -0.6191 -0.2309  1.3083
 1221TIP3   OH225153   3.962   3.181  13.920 -0.4524 -0.3538  0.2000
 1221TIP3    H125154   3.919   3.111  13.871 -0.3356 -1.2616  1.3557
 1221TIP3    H225155   4.055   3.169  13.903 -0.3044 -1.5054  1.6672
 1222TIP3   OH225156   4.120   1.765   3.576 -0.4637  0.4972  0.2136
 1222TIP3    H125157   4.151   1.793   3.662 -1.0831  1.9923 -0.0337
 1222TIP3    H225158   4.157   1.828   3.515 -0.7001 -0.0773 -0.5406
 1223TIP3   OH225159   6.644   0.882   2.737 -0.2249 -0.2137 -0.3591
 1223TIP3    H125160   6.684   0.969   2.734  2.8130 -1.4989 -0.4494
 1223TIP3    H225161   6.569   0.892   2.797  1.2163  2.0192  1.2175
 1224TIP3   OH225162   4.411   5.405  16.424  0.4654  0.3449  0.4521
 1224TIP3    H125163   4.505   5.384  16.428  0.2971 -0.2493  1.9328
 1224TIP3    H225164   4.379   5.359  16.347  0.9865 -1.2260  1.1440
 1225TIP3   OH225165   5.484   0.044   3.056 -0.1510 -0.1336 -0.0819
 1225TIP3    H125166   5.547  -0.028   3.053  2.3017  1.8718 -1.6737
 1225TIP3    H225167   5.495   0.088   2.971  0.8660  3.9138  1.9077
 1226TIP3   OH225168   0.783   1.603  11.638  0.0328  0.5260 -0.4049
 1226TIP3    H125169   0.791   1.687  11.684 -2.2917  0.8337 -0.4216
 1226TIP3    H225170   0.689   1.584  11.639  0.3490 -1.4198 -1.6016
 1227TIP3   OH225171   3.132   3.443   4.259 -0.4567  0.3647 -0.0536
 1227TIP3    H125172   3.190   3.435   4.334  0.2537  0.4742 -0.5776
 1227TIP3    H225173   3.133   3.537   4.238 -1.0100  0.4024  0.0768
 1228TIP3   OH225174   5.661   5.192  15.253  0.0552  0.4220  0.4442
 1228TIP3    H125175   5.587   5.249  15.235 -0.2679  0.3559  1.5118
 1228TIP3    H225176   5.736   5.235  15.212 -0.3579  1.1052  0.3991
 1229TIP3   OH225177   4.248   6.726  16.186  0.3114  0.5269 -0.3963
 1229TIP3    H125178   4.162   6.727  16.228 -0.0228 -2.0316 -0.8234
 1229TIP3    H225179   4.232   6.688  16.100  1.8581 -0.0509 -0.4674
 1230TIP3   OH225180   3.487   5.582  14.829  0.3221 -0.1596 -0.4241
 1230TIP3    H125181   3.461   5.668  14.860  0.2410 -0.1070 -0.6377
 1230TIP3    H225182   3.408   5.544  14.791 -0.1330 -1.1063  1.3824
 1231TIP3   OH225183   6.725   1.742   3.153 -0.7603 -0.3111  0.3495
 1231TIP3    H125184   6.673   1.737   3.233 -0.1949  0.0023  0.7455
 1231TIP3    H225185   6.738   1.836   3.139  2.0750 -0.3822  1.8490
 1232TIP3   OH225186   1.406   4.820  10.706  0.4075  0.0434 -0.3074
 1232TIP3    H125187   1.384   4.769  10.628  0.6015  2.1688 -1.8126
 1232TIP3    H225188   1.376   4.909  10.686  1.3938  0.8578  1.6325
 1233TIP3   OH225189   1.184   6.113   4.202  0.2086  0.1356  0.4122
 1233TIP3    H125190   1.223   6.085   4.119 -0.1700  1.9318 -0.4321
 1233TIP3    H225191   1.231   6.194   4.224 -2.0626  1.6682  0.0257
 1234TIP3   OH225192   2.424   5.235  15.723  0.4069  0.3535  0.5556
 1234TIP3    H125193   2.435   5.324  15.690  0.8165 -0.9146 -3.2977
 1234TIP3    H225194   2.484   5.182  15.669 -1.4593 -2.5355  1.0646
 1235TIP3   OH225195   1.284   5.198  10.881 -0.1651  0.1136 -0.2479
 1235TIP3    H125196   1.304   5.200  10.788  1.3940 -1.2152  0.0107
 1235TIP3    H225197   1.232   5.118  10.893 -1.7435  1.1017 -0.1777
 1236TIP3   OH225198   1.514   1.484  13.395 -0.0082 -0.2145  0.5613
 1236TIP3    H125199   1.516   1.544  13.470  1.7447  0.7286 -0.1569
 1236TIP3    H225200   1.425   1.491  13.361 -0.4320  0.3997  1.7257
 1237TIP3   OH225201   2.308   5.567   2.460 -0.0724  0.0570  0.1690
 1237TIP3    H125202   2.265   5.529   2.536 -2.4008  0.4166 -0.8719
 1237TIP3    H225203   2.293   5.504   2.389  0.5044  0.5437 -0.4083
 1238TIP3   OH225204   3.917   3.913   3.596 -0.6973 -0.4619 -0.2488
 1238TIP3    H125205   3.925   3.916   3.500 -0.8003  1.6307 -0.2405
 1238TIP3    H225206   4.007   3.914   3.628 -0.6684 -0.3553 -0.3301
 1239TIP3   OH225207   1.125   3.086   5.780 -0.2360 -0.5566  0.1819
 1239TIP3    H125208   1.186   3.146   5.824 -0.0871 -0.6880  0.1545
 1239TIP3    H225209   1.100   3.131   5.700 -1.1430  0.0494  0.7838
 1240TIP3   OH225210   4.796   2.337   2.910  0.1457 -0.4493  0.2488
 1240TIP3    H125211   4.834   2.253   2.885  2.7385  0.5220  0.5888
 1240TIP3    H225212   4.863   2.379   2.964 -0.7023  2.1510 -0.5294
 1241TIP3   OH225213   1.504   1.164   1.480  0.2855 -0.2943  0.0317
 1241TIP3    H125214   1.596   1.138   1.482  0.7764  1.3280 -0.1794
 1241TIP3    H225215   1.505   1.256   1.508 -0.9746  0.4889 -2.2616
 1242TIP3   OH225216   1.052   3.959  12.121  0.2061  0.2682  0.0411
 1242TIP3    H125217   1.060   3.872  12.083  1.1800  0.0030  0.8139
 1242TIP3    H225218   1.078   4.018  12.050 -0.3047 -0.0584 -0.4353
 1243TIP3   OH225219   2.696   1.613   5.763 -0.0223 -0.0162  0.1547
 1243TIP3    H125220   2.760   1.612   5.692 -0.3356  1.6588 -0.2095
 1243TIP3    H225221   2.746   1.633   5.841  0.1519 -0.6389  0.2076
 1244TIP3   OH225222   6.817   2.665  12.978  0.0562  0.3387  0.5390
 1244TIP3    H125223   6.893   2.721  12.964  0.5002 -0.4397 -0.2239
 1244TIP3    H225224   6.851   2.576  12.976 -0.8627 -0.0248  0.2159
 1245TIP3   OH225225   1.606   6.281  11.328  0.4608  0.2109 -0.0095
 1245TIP3    H125226   1.566   6.272  11.242 -0.1470 -0.4091  0.3246
 1245TIP3    H225227   1.700   6.287  11.311  0.4537 -1.1725 -0.6477
 1246TIP3   OH225228   5.133   4.959  14.216  0.4880 -0.5418  0.0660
 1246TIP3    H125229   5.125   4.963  14.312  1.7222 -0.8739  0.1992
 1246TIP3    H225230   5.134   4.865  14.196 -0.6921 -0.4772 -0.3792
 1247TIP3   OH225231   5.693   2.588  11.307  0.5516  0.0199  0.3566
 1247TIP3    H125232   5.726   2.517  11.252 -1.0498 -1.2559  0.9437
 1247TIP3    H225233   5.710   2.668  11.257  2.8896 -0.6995 -0.0810
 1248TIP3   OH225234   1.650   2.556   5.596  0.1769  0.4368 -0.3688
 1248TIP3    H125235   1.571   2.608   5.609 -1.3026 -1.7891  0.1901
 1248TIP3    H225236   1.703   2.607   5.535 -2.3248  1.3890 -1.8908
 1249TIP3   OH225237   4.867   3.741   4.914 -0.1450  0.5260 -0.9068
 1249TIP3    H125238   4.950   3.789   4.919 -0.0794  0.2955  0.3885
 1249TIP3    H225239   4.812   3.779   4.983 -0.0787 -1.2556  0.2039
 1250TIP3   OH225240   3.628   1.367  16.886 -0.1543  0.0117  0.1710
 1250TIP3    H125241   3.660   1.280  16.910  1.5821  0.6893  0.4547
 1250TIP3    H225242   3.549   1.349  16.834  0.7784 -1.7891 -0.7601
 1251TIP3   OH225243   0.057   5.080   3.996 -0.3943  0.3435  0.5007
 1251TIP3    H125244   0.003   5.050   4.070  0.1124 -0.4229  0.5672
 1251TIP3    H225245   0.054   5.008   3.933 -0.7267  0.9436 -0.1880
 1252TIP3   OH225246   1.906   4.565  17.064 -0.6631  0.3982 -0.4309
 1252TIP3    H125247   1.968   4.587  17.134 -0.9885 -1.3538  0.4905
 1252TIP3    H225248   1.937   4.481  17.030 -0.0609  1.5704 -3.0081
 1253TIP3   OH225249   1.217   5.979  16.056 -0.1908  0.5395 -0.2826
 1253TIP3    H125250   1.311   5.980  16.038 -0.2008 -0.7271 -0.4749
 1253TIP3    H225251   1.178   6.026  15.983  0.2220  0.2984 -0.6630
 1254TIP3   OH225252   0.096   0.663  12.434  0.0046 -0.5748  0.0714
 1254TIP3    H125253   0.065   0.679  12.345 -1.9430  0.9109  0.9386
 1254TIP3    H225254   0.136   0.746  12.461 -1.9949 -0.0163  1.5229
 1255TIP3   OH225255   5.560   6.695  11.780  0.1827 -0.5027  0.3652
 1255TIP3    H125256   5.491   6.761  11.792 -0.9814 -1.2901 -1.5186
 1255TIP3    H225257   5.562   6.680  11.685  1.7002 -1.8492  0.5765
 1256TIP3   OH225258   3.586   1.009   1.379 -0.1525  0.5150  0.0294
 1256TIP3    H125259   3.525   0.942   1.411  0.1384 -0.3865 -1.2210
 1256TIP3    H225260   3.615   1.055   1.458  0.7755 -1.7922  1.1385
 1257TIP3   OH225261   3.401   2.346   0.060  0.5555 -0.3424  0.2255
 1257TIP3    H125262   3.389   2.265   0.010  0.0980 -0.9664  1.3207
 1257TIP3    H225263   3.346   2.335   0.137 -0.8775  1.7662 -0.4317
 1258TIP3   OH225264   1.916   0.558   1.370 -0.4138  0.1908  0.6163
 1258TIP3    H125265   1.825   0.586   1.380 -1.0033 -1.4138  0.1216
 1258TIP3    H225266   1.948   0.607   1.294 -0.7506  0.9958  0.9795
 1259TIP3   OH225267   6.654   3.038  13.191  1.0676  0.0199  0.5132
 1259TIP3    H125268   6.688   2.954  13.223 -2.3196 -1.0247  1.7876
 1259TIP3    H225269   6.714   3.104  13.225  2.7779 -1.7371  1.0488
 1260TIP3   OH225270   0.972   2.844   5.623 -0.0820  0.5649  0.3956
 1260TIP3    H125271   0.933   2.932   5.622 -1.0316  0.1559  0.4993
 1260TIP3    H225272   0.898   2.785   5.638  0.4294 -0.3216 -0.4632
 1261TIP3   OH225273   3.949   0.452  11.144  0.8615  0.0264  0.2669
 1261TIP3    H125274   3.993   0.384  11.093  0.2048  0.3960 -0.8269
 1261TIP3    H225275   3.897   0.500  11.080  0.1216  0.6035  1.2745
 1262TIP3   OH225276   1.118   6.746  11.290  0.0992  0.0087 -1.1013
 1262TIP3    H125277   1.201   6.757  11.335 -0.6582  0.3451  0.2653
 1262TIP3    H225278   1.141   6.704  11.207  1.3978 -2.1668  0.2577
 1263TIP3   OH225279   5.273   1.600  11.144  0.2318  0.0747 -0.6456
 1263TIP3    H125280   5.338   1.531  11.129  0.3177  0.4255 -2.0397
 1263TIP3    H225281   5.313   1.658  11.209  0.2703 -1.0262  0.3306
 1264TIP3   OH225282   5.394   1.542   1.495 -0.4064  0.8729 -0.1644
 1264TIP3    H125283   5.350   1.461   1.521 -0.6401  0.8129 -0.7247
 1264TIP3    H225284   5.378   1.603   1.567  0.7379  0.0826  0.7937
 1265TIP3   OH225285   2.283   4.320  11.606 -0.0436 -0.0154 -0.2358
 1265TIP3    H125286   2.212   4.255  11.614  0.3450 -0.5886 -1.2812
 1265TIP3    H225287   2.354   4.284  11.658 -0.3562  0.3420  0.4505
 1266TIP3   OH225288   1.414   1.757   6.257  0.4774  0.3350 -0.7613
 1266TIP3    H125289   1.487   1.767   6.319 -1.1874 -0.5829  1.5077
 1266TIP3    H225290   1.417   1.665   6.232 -0.4452  0.0281  0.1607
 1267TIP3   OH225291   2.355   0.384  11.879 -0.4374  0.8710 -0.4574
 1267TIP3    H125292   2.270   0.342  11.871  0.2313 -0.5453 -0.3145
 1267TIP3    H225293   2.347   0.442  11.955 -0.7572 -0.5592  0.6347
 1268TIP3   OH225294   2.052   4.774  13.706 -0.4025 -0.1326  0.4925
 1268TIP3    H125295   2.066   4.710  13.636 -0.3134  0.2204  0.1836
 1268TIP3    H225296   2.106   4.742  13.779  0.7829  0.3471 -0.1395
 1269TIP3   OH225297   3.832   1.720   2.464  0.2657 -0.1183 -0.4156
 1269TIP3    H125298   3.845   1.813   2.481  1.7261 -0.4374  0.4666
 1269TIP3    H225299   3.849   1.678   2.548 -0.0609 -1.2000 -0.8703
 1270TIP3   OH225300   3.014   2.363   2.135  0.2120  0.0645  0.1343
 1270TIP3    H125301   3.030   2.269   2.122 -3.9295 -1.1876  2.4274
 1270TIP3    H225302   2.920   2.373   2.127  0.2674  3.6877  2.0525
 1271TIP3   OH225303   3.375   4.465  11.848 -0.3660  0.1610 -0.4357
 1271TIP3    H125304   3.406   4.548  11.883  0.2016 -0.2207 -0.0035
 1271TIP3    H225305   3.281   4.477  11.836  0.0424  1.6660 -2.6455
 1272TIP3   OH225306   3.532   2.231   4.755  0.4237  0.0249  0.5114
 1272TIP3    H125307   3.515   2.261   4.844  0.5289 -1.5209  1.0834
 1272TIP3    H225308   3.451   2.188   4.727 -0.0187  1.5253 -0.6052
 1273TIP3   OH225309   6.534   4.239   0.676 -0.7684  0.2456  0.5685
 1273TIP3    H125310   6.527   4.213   0.584  0.5177 -0.5823  0.6782
 1273TIP3    H225311   6.609   4.190   0.709 -0.1304  1.8392  1.6199
 1274TIP3   OH225312   4.567   4.372  14.529  0.1095  0.4756  0.6589
 1274TIP3    H125313   4.655   4.398  14.555 -0.3456  1.7469  1.0114
 1274TIP3    H225314   4.509   4.426  14.582 -0.9242 -1.1377  1.2641
 1275TIP3   OH225315   3.895   0.802   5.242  0.2558 -0.2864  1.3097
 1275TIP3    H125316   3.855   0.725   5.202  0.6432 -0.0906  0.5423
 1275TIP3    H225317   3.914   0.775   5.332 -1.1442 -0.5446  1.5568
 1276TIP3   OH225318   1.377   3.814   1.766 -0.8617  0.1711 -0.0161
 1276TIP3    H125319   1.281   3.816   1.761 -0.8475  0.5786 -0.1396
 1276TIP3    H225320   1.396   3.794   1.857 -1.0584  1.0130  0.2153
 1277TIP3   OH225321   0.605   6.109  17.101  0.8263  0.3198 -0.0994
 1277TIP3    H125322   0.526   6.054  17.107  0.1972  1.2097 -0.0328
 1277TIP3    H225323   0.604   6.143  17.012  0.7812  0.8573  0.1057
 1278TIP3   OH225324   4.457   5.980  12.174 -0.0989  0.1226 -0.2501
 1278TIP3    H125325   4.533   5.956  12.121 -0.0204  0.5078 -0.3112
 1278TIP3    H225326   4.392   6.010  12.111 -1.0637 -2.0920 -0.4182
 1279TIP3   OH225327   3.417   2.378   3.072 -0.5210  0.3968 -0.2251
 1279TIP3    H125328   3.399   2.451   3.012  1.7626  1.2312  0.0341
 1279TIP3    H225329   3.471   2.317   3.021  1.4986  1.1410  0.9116
 1280TIP3   OH225330   1.470   6.476   0.577 -0.3211  0.3581 -0.5013
 1280TIP3    H125331   1.516   6.446   0.498 -1.0667  0.2867 -0.9172
 1280TIP3    H225332   1.539   6.512   0.632  0.2626  0.0768 -1.0336
 1281TIP3   OH225333   4.376   4.043   4.446  0.1731 -0.6897  0.3853
 1281TIP3    H125334   4.460   4.086   4.462 -0.3629  0.2937  0.6907
 1281TIP3    H225335   4.318   4.079   4.514 -0.8340 -0.3190 -0.6392
 1282TIP3   OH225336   2.899   5.649   5.169 -0.7799 -0.4324 -0.0092
 1282TIP3    H125337   2.814   5.693   5.162 -2.0236 -2.5907  0.6568
 1282TIP3    H225338   2.899   5.583   5.100 -0.6914 -2.0419  1.4656
 1283TIP3   OH225339   0.623   5.050   4.229 -0.3057 -0.0983 -0.1373
 1283TIP3    H125340   0.693   5.023   4.170 -1.3766  0.0137 -1.5099
 1283TIP3    H225341   0.609   5.143   4.210  0.0584  0.2266  1.0872
 1284TIP3   OH225342   4.652   2.485   1.652 -0.3573  0.7590  0.0900
 1284TIP3    H125343   4.609   2.400   1.660 -0.3718  0.7612  0.0388
 1284TIP3    H225344   4.705   2.493   1.731  0.5234  0.2038 -0.4183
 1285TIP3   OH225345   0.965   4.079   2.142 -0.0591 -0.2057  0.0832
 1285TIP3    H125346   0.875   4.107   2.159 -0.0816 -0.2957  0.1139
 1285TIP3    H225347   0.985   4.114   2.055 -0.0710 -0.0579  0.1401
 1286TIP3   OH225348   3.869   0.081   0.062 -0.0149 -0.3807  0.2263
 1286TIP3    H125349   3.937   0.133   0.105  1.4240 -1.9239 -0.0468
 1286TIP3    H225350   3.797   0.079   0.124  0.6860  0.2567  1.0947
 1287TIP3   OH225351   6.293   0.239   3.238  0.1419 -0.4792  0.8873
 1287TIP3    H125352   6.314   0.146   3.240  0.3064 -0.4447  0.8220
 1287TIP3    H225353   6.197   0.243   3.241  0.1346 -0.6509  0.8600
 1288TIP3   OH225354   5.796   0.934  15.277  0.2871 -0.0917 -0.0992
 1288TIP3    H125355   5.869   0.990  15.304  1.3331 -1.8984  1.0235
 1288TIP3    H225356   5.795   0.863  15.341 -2.5985 -0.0443  0.0011
 1289TIP3   OH225357   0.313   1.928   2.811  0.3018  0.2762 -0.5349
 1289TIP3    H125358   0.334   1.835   2.815 -0.7374 -0.0572 -1.8299
 1289TIP3    H225359   0.319   1.959   2.901  1.8065 -0.7719 -0.2548
 1290TIP3   OH225360   6.139   6.459  14.850  0.5383  0.2227 -0.1586
 1290TIP3    H125361   6.234   6.450  14.850  0.6872  1.6027 -0.8814
 1290TIP3    H225362   6.108   6.381  14.895  2.0480  0.2336  0.9606
 1291TIP3   OH225363   4.529   2.837  14.774  0.5512  0.0225  0.5482
 1291TIP3    H125364   4.596   2.824  14.840  0.9267 -0.2453  0.1188
 1291TIP3    H225365   4.472   2.905  14.810  1.7371  1.1307  0.3979
 1292TIP3   OH225366   3.502   3.845  13.828  0.3610 -0.5968 -1.1349
 1292TIP3    H125367   3.512   3.839  13.733 -1.8802  1.5022 -1.5977
 1292TIP3    H225368   3.448   3.769  13.851  3.4729 -2.9626 -0.9116
 1293TIP3   OH225369   3.756   4.879  10.697  0.5662  0.9203 -0.6213
 1293TIP3    H125370   3.843   4.896  10.660  0.6085  2.0647 -0.0288
 1293TIP3    H225371   3.754   4.784  10.708  1.9425  0.9162 -0.1819
 1294TIP3   OH225372   0.793   6.291  14.818  0.0185  0.0358 -0.4437
 1294TIP3    H125373   0.740   6.320  14.892  1.0427  1.3801 -0.2055
 1294TIP3    H225374   0.881   6.284  14.853  0.3599 -0.2280 -1.3227
 1295TIP3   OH225375   5.439   5.116   6.214  0.3880  0.5768  0.5981
 1295TIP3    H125376   5.442   5.164   6.297  1.6952  0.9211  0.3813
 1295TIP3    H225377   5.515   5.057   6.218 -1.4144 -1.8439  1.0316
 1296TIP3   OH225378   4.161   3.973   2.571 -0.1855 -0.2485 -0.4050
 1296TIP3    H125379   4.076   3.931   2.583 -0.3978  0.3221  0.1356
 1296TIP3    H225380   4.219   3.927   2.632 -0.3504  0.0506 -0.0216
 1297TIP3   OH225381   6.157   5.927   3.042 -0.4052  0.5361 -0.1720
 1297TIP3    H125382   6.106   5.935   2.962  1.4047 -0.9757 -1.5600
 1297TIP3    H225383   6.149   5.836   3.068  0.1703  0.6768  0.5517
 1298TIP3   OH225384   5.447   4.833  16.699  0.7038  0.6929 -0.4216
 1298TIP3    H125385   5.355   4.808  16.686  0.9645 -0.0771 -0.8533
 1298TIP3    H225386   5.469   4.884  16.620  1.4656 -1.5838 -1.7609
 1299TIP3   OH225387   2.293   2.704   4.832 -0.6543 -0.3999  0.4185
 1299TIP3    H125388   2.326   2.667   4.750  1.0406 -1.8848  1.6840
 1299TIP3    H225389   2.203   2.673   4.838 -0.3660 -1.4207 -0.2525
 1300TIP3   OH225390   3.023   0.617   0.181 -0.4858 -0.2884 -0.2016
 1300TIP3    H125391   2.951   0.650   0.128 -1.4636 -0.5907  0.8834
 1300TIP3    H225392   3.014   0.662   0.265  0.5158 -0.4354  0.0028
 1301TIP3   OH225393   0.068   3.871  12.548  0.8024 -0.8203 -0.3256
 1301TIP3    H125394   0.131   3.910  12.608  0.2007  0.2330 -0.3540
 1301TIP3    H225395   0.122   3.825  12.484  1.6787  1.3791 -1.2753
 1302TIP3   OH225396   1.582   5.169   1.553  0.0801  0.4768  0.9980
 1302TIP3    H125397   1.600   5.128   1.638  0.0685 -0.2210  0.6702
 1302TIP3    H225398   1.549   5.256   1.575 -1.1360 -0.1438  1.7643
 1303TIP3   OH225399   1.230   1.627  12.950  0.3438 -0.0086  0.8675
 1303TIP3    H125400   1.276   1.597  12.872 -0.2232 -0.0850  0.5526
 1303TIP3    H225401   1.210   1.546  12.998  1.4475  0.1021  1.5319
 1304TIP3   OH225402   5.300   3.927  10.447 -0.5170  0.0554  0.3903
 1304TIP3    H125403   5.347   3.988  10.391 -1.2339  0.0294 -0.2552
 1304TIP3    H225404   5.216   3.970  10.464 -0.3152  0.0704  1.4671
 1305TIP3   OH225405   6.371   1.446   5.561  0.4666 -0.0631 -1.0576
 1305TIP3    H125406   6.284   1.452   5.520  0.7191 -1.1831 -1.8079
 1305TIP3    H225407   6.369   1.510   5.632 -0.3660  1.1731 -2.1631
 1306TIP3   OH225408   2.832   6.780  15.940 -0.5753 -0.0918  0.3945
 1306TIP3    H125409   2.741   6.750  15.947  0.1398 -2.0956  2.4120
 1306TIP3    H225410   2.858   6.757  15.851 -2.1306  0.9072 -0.3589
 1307TIP3   OH225411   3.731   1.948  12.265 -0.1510 -0.0396 -0.0973
 1307TIP3    H125412   3.725   1.999  12.346 -1.0636  0.9841 -0.7665
 1307TIP3    H225413   3.790   1.999  12.209 -1.4925  0.6141 -0.9706
 1308TIP3   OH225414   3.500   2.705  10.811  1.0973 -0.3055 -0.5208
 1308TIP3    H125415   3.583   2.726  10.768  1.2758 -2.0166 -1.0792
 1308TIP3    H225416   3.515   2.619  10.851  0.1028  0.0970  0.7660
 1309TIP3   OH225417   6.538   0.979  11.829  0.5528  0.5046  0.7305
 1309TIP3    H125418   6.539   0.914  11.759 -0.9504  1.0366  0.1942
 1309TIP3    H225419   6.504   0.932  11.905 -2.5489  1.0861 -0.1713
 1310TIP3   OH225420   5.781   1.394  12.754  0.3560 -0.0317 -0.7033
 1310TIP3    H125421   5.856   1.344  12.786 -1.4399 -2.2066  0.3220
 1310TIP3    H225422   5.742   1.431  12.832 -1.3380 -1.4182 -0.8556
 1311TIP3   OH225423   0.870   2.169  15.461  0.2557 -0.3846  0.2329
 1311TIP3    H125424   0.959   2.173  15.427  0.5469  0.5172  1.0452
 1311TIP3    H225425   0.833   2.255  15.441 -0.7113 -1.0214 -0.8028
 1312TIP3   OH225426   5.797   3.778   5.152  0.3275  0.2057  0.4861
 1312TIP3    H125427   5.796   3.693   5.196  1.9898  0.4658  1.0870
 1312TIP3    H225428   5.731   3.830   5.199  0.3062 -0.2973  1.0302
 1313TIP3   OH225429   2.653   5.717  11.238 -0.7909 -0.2780 -0.0565
 1313TIP3    H125430   2.611   5.644  11.192 -0.3583 -0.1288 -0.6928
 1313TIP3    H225431   2.745   5.691  11.246 -1.1173 -0.9630  2.0505
 1314TIP3   OH225432   4.112   4.469  12.242 -0.1142  0.2473 -0.0021
 1314TIP3    H125433   4.104   4.514  12.326  0.4269  0.8933 -0.2903
 1314TIP3    H225434   4.206   4.467  12.225 -0.2481  0.4645 -0.7741
 1315TIP3   OH225435   6.197   4.907  14.712 -0.0001  0.2150 -0.0070
 1315TIP3    H125436   6.218   4.903  14.806 -1.5298  0.2056  0.3518
 1315TIP3    H225437   6.110   4.946  14.708  0.0123  0.1514 -1.4331
 1316TIP3   OH225438   6.151   1.238   1.171  0.3715 -0.9157 -0.2887
 1316TIP3    H125439   6.218   1.251   1.104 -1.0540 -0.2034 -1.6253
 1316TIP3    H225440   6.163   1.311   1.232  0.9218 -0.8992 -0.4133
 1317TIP3   OH225441   6.125   6.298  14.387  0.8198 -0.0969 -0.1335
 1317TIP3    H125442   6.206   6.328  14.427 -0.7872  0.6214  2.8998
 1317TIP3    H225443   6.090   6.376  14.344  1.1358 -0.0980 -0.3987
 1318TIP3   OH225444   0.839   0.194  16.571  0.5080  0.1827 -0.5620
 1318TIP3    H125445   0.843   0.098  16.576 -1.6159  0.0309 -1.0063
 1318TIP3    H225446   0.898   0.223  16.641  1.4437 -1.4288 -0.6168
 1319TIP3   OH225447   1.531   1.135  15.433  0.3941 -0.0522 -0.0311
 1319TIP3    H125448   1.446   1.118  15.474  1.2450 -0.7828  1.5173
 1319TIP3    H225449   1.558   1.051  15.397  0.4141  0.2153 -0.6599
 1320TIP3   OH225450   4.721   1.883   5.253  0.7550  0.0416  0.2327
 1320TIP3    H125451   4.672   1.811   5.214 -0.9291 -0.1761  2.5385
 1320TIP3    H225452   4.803   1.844   5.283  0.0154 -0.8940  1.1227
 1321TIP3   OH225453   3.444   4.887   5.479  0.3210 -0.6477  0.0871
 1321TIP3    H125454   3.361   4.842   5.463  1.0047 -1.6058 -0.9332
 1321TIP3    H225455   3.448   4.954   5.410  0.6121 -0.9176 -0.1580
 1322TIP3   OH225456   4.171   1.030  16.939  0.9330  0.2349 -0.7792
 1322TIP3    H125457   4.119   0.983  17.005  0.5873 -0.3655 -1.4699
 1322TIP3    H225458   4.243   0.971  16.919  1.5683  0.8121 -0.2734
 1323TIP3   OH225459   4.839   6.414   3.159  0.3637 -0.1229 -0.1559
 1323TIP3    H125460   4.763   6.388   3.212  1.0756 -0.0887  0.9197
 1323TIP3    H225461   4.830   6.509   3.150  0.7677  0.0118  0.7785
 1324TIP3   OH225462   4.457   2.238   4.962  0.5474  0.8345 -0.6737
 1324TIP3    H125463   4.474   2.321   5.007 -3.5796  0.4509  2.0944
 1324TIP3    H225464   4.501   2.172   5.016 -0.4379  0.8351  0.1718
 1325TIP3   OH225465   3.437   3.710   0.111 -0.8239  0.2682  0.0288
 1325TIP3    H125466   3.450   3.642   0.046 -1.9512 -1.1748  1.2270
 1325TIP3    H225467   3.482   3.678   0.189 -0.7795  1.2377  0.4177
 1326TIP3   OH225468   6.576   4.752   2.689  0.0366 -0.3250 -0.3412
 1326TIP3    H125469   6.513   4.776   2.621  0.0855 -1.2296 -0.7186
 1326TIP3    H225470   6.627   4.681   2.651 -1.7004 -2.7729  1.5240
 1327TIP3   OH225471   0.139   4.534  15.737  1.1040 -0.3692 -0.1951
 1327TIP3    H125472   0.130   4.606  15.674  0.5048 -1.1612 -1.0334
 1327TIP3    H225473   0.062   4.479  15.723  1.2511 -0.8811  0.8420
 1328TIP3   OH225474   2.051   1.498  15.032  0.0346  0.4451  0.0722
 1328TIP3    H125475   2.054   1.530  14.942 -0.4762  0.5312  0.0847
 1328TIP3    H225476   1.974   1.441  15.035  0.2027  0.2321  0.3867
 1329TIP3   OH225477   5.979   4.627  11.313  0.3827 -0.2160  0.2046
 1329TIP3    H125478   5.886   4.606  11.315  0.3418 -0.1709 -0.8815
 1329TIP3    H225479   5.983   4.721  11.297  0.5924 -0.6047 -2.4665
 1330TIP3   OH225480   5.135   2.571  15.527  0.2445  0.0692  0.1889
 1330TIP3    H125481   5.172   2.565  15.440  0.0755 -0.2012  0.1354
 1330TIP3    H225482   5.200   2.620  15.578  0.5206 -0.1151  0.0140
 1331TIP3   OH225483   1.735   3.194  11.436  0.2536 -0.2004  0.2162
 1331TIP3    H125484   1.696   3.266  11.387  0.6610  0.0013  0.1834
 1331TIP3    H225485   1.702   3.115  11.393 -0.7671 -0.0464  0.7068
 1332TIP3   OH225486   0.215   3.973   0.453 -0.1646  0.8823  0.0098
 1332TIP3    H125487   0.220   3.911   0.380  0.4837 -2.6710  2.7722
 1332TIP3    H225488   0.304   3.978   0.486 -0.5228  1.9898  0.8642
 1333TIP3   OH225489   3.251   4.111  11.470 -0.2655 -0.0767 -0.1697
 1333TIP3    H125490   3.222   4.182  11.528  1.0068  0.9525 -0.7625
 1333TIP3    H225491   3.170   4.079  11.430 -0.9284  0.6302  0.5599
 1334TIP3   OH225492   5.909   5.428  17.162 -0.0790  0.7191  0.0427
 1334TIP3    H125493   5.877   5.407  17.250 -0.7123  1.5104  0.0127
 1334TIP3    H225494   5.994   5.470  17.177 -0.7055  1.9051  0.3647
 1335TIP3   OH225495   1.100   5.983   4.984  0.8146 -0.4502 -0.0131
 1335TIP3    H125496   1.171   6.028   5.030  0.8608 -0.4432 -0.0915
 1335TIP3    H225497   1.063   5.924   5.050 -0.9896  1.5645  0.9102
 1336TIP3   OH225498   4.322   6.157   4.006 -0.7595  0.0894 -0.0046
 1336TIP3    H125499   4.306   6.063   4.013 -1.8406  0.3328  1.1863
 1336TIP3    H225500   4.257   6.197   4.065  0.3746  1.5171  0.3312
 1337TIP3   OH225501   1.182   5.749  14.443  0.5832 -0.3337 -0.3825
 1337TIP3    H125502   1.203   5.838  14.472  0.9425 -0.1898 -1.0633
 1337TIP3    H225503   1.105   5.725  14.493 -0.2407  0.8125 -1.0574
 1338TIP3   OH225504   0.963   2.790   2.619 -0.4759  0.4440  0.4625
 1338TIP3    H125505   1.004   2.870   2.586 -0.1224  0.6777  1.4515
 1338TIP3    H225506   0.886   2.820   2.667  0.1431  0.2723  1.5883
 1339TIP3   OH225507   6.086   3.027  11.961 -0.2632 -0.3826  0.7451
 1339TIP3    H125508   6.033   3.008  12.038  0.4936  0.3187  1.4520
 1339TIP3    H225509   6.155   2.961  11.962  0.7432  0.6314  1.6519
 1340TIP3   OH225510   5.726   6.619   2.164 -0.0005  0.3928  0.2373
 1340TIP3    H125511   5.817   6.604   2.188  0.2568  1.3167 -0.1277
 1340TIP3    H225512   5.691   6.531   2.145  0.7774  0.0275  0.4557
 1341TIP3   OH225513   2.122   6.493   5.022  0.6648 -0.0636 -0.4965
 1341TIP3    H125514   2.114   6.564   4.959 -2.0767 -0.9082 -1.2508
 1341TIP3    H225515   2.034   6.482   5.058  1.6896 -1.0178  1.9535
 1342TIP3   OH225516   1.514   0.649  13.815  0.3150  0.3142  0.0421
 1342TIP3    H125517   1.549   0.684  13.733  1.7756  1.3583  1.0397
 1342TIP3    H225518   1.420   0.645  13.802  0.4620  1.0767 -1.4543
 1343TIP3   OH225519   0.583   5.063   1.515  0.1419 -0.1158  0.1874
 1343TIP3    H125520   0.619   5.123   1.450  0.4107  0.2402  0.6525
 1343TIP3    H225521   0.581   4.978   1.471  0.2305  0.1347 -0.3124
 1344TIP3   OH225522   2.384   0.315  15.895  0.5743 -0.3590 -0.4852
 1344TIP3    H125523   2.347   0.257  15.961 -1.0004  0.2304 -0.8189
 1344TIP3    H225524   2.309   0.347  15.846  1.3907  1.9108 -0.3600
 1345TIP3   OH225525   3.697   3.682   1.541  0.3059  0.1256 -0.1863
 1345TIP3    H125526   3.702   3.599   1.590 -0.1994 -0.3382 -0.8966
 1345TIP3    H225527   3.606   3.710   1.553  0.4758  0.5811  0.0451
 1346TIP3   OH225528   2.424   5.718   4.278 -0.6935 -0.4436 -0.4973
 1346TIP3    H125529   2.433   5.784   4.347  1.2857  0.4103 -1.5024
 1346TIP3    H225530   2.391   5.767   4.203  0.6582 -0.5824 -1.2083
 1347TIP3   OH225531   2.495   0.747   0.883  0.0158  0.2298  0.5581
 1347TIP3    H125532   2.473   0.672   0.940  0.5512 -1.9455 -1.8855
 1347TIP3    H225533   2.412   0.767   0.838  0.2490 -0.0690 -0.0212
 1348TIP3   OH225534   4.902   2.004  15.466 -0.3040  0.2156  0.0818
 1348TIP3    H125535   4.886   2.060  15.390  0.3592 -0.3752 -0.5137
 1348TIP3    H225536   4.988   2.032  15.498 -1.4624  1.9093  1.9379
 1349TIP3   OH225537   4.882   5.625  14.623  0.1650 -0.3830  0.5712
 1349TIP3    H125538   4.958   5.682  14.609  0.9863 -1.7601 -0.9801
 1349TIP3    H225539   4.901   5.581  14.706  0.6156 -0.0176  0.6685
 1350TIP3   OH225540   1.068   0.120  14.636  0.1988  0.3132  0.7202
 1350TIP3    H125541   1.056   0.119  14.731  0.1400 -1.7566  0.7344
 1350TIP3    H225542   1.161   0.139  14.625  0.1744  0.7281  1.1858
 1351TIP3   OH225543   3.046   2.803  11.103  1.0811  0.1218 -0.4717
 1351TIP3    H125544   2.973   2.826  11.160  0.2675 -0.5907 -1.1904
 1351TIP3    H225545   3.114   2.865  11.125  0.6837  0.0526  1.0534
 1352TIP3   OH225546   1.273   6.654   0.647  0.1665  0.1096  0.2630
 1352TIP3    H125547   1.354   6.607   0.626  1.3174  1.3280  1.7445
 1352TIP3    H225548   1.238   6.608   0.723 -0.5891 -0.4387 -0.3999
 1353TIP3   OH225549   2.597   4.943  14.777  0.2153 -0.7071  0.2362
 1353TIP3    H125550   2.575   4.980  14.863  0.1776 -1.0087  0.3602
 1353TIP3    H225551   2.596   5.017  14.717  0.9982 -0.3615  0.6372
 1354TIP3   OH225552   2.149   4.010   1.141  0.0723  0.0667 -0.0399
 1354TIP3    H125553   2.077   4.056   1.184  0.5816  1.2626 -0.4314
 1354TIP3    H225554   2.122   3.918   1.142 -1.1835  0.4135  0.3519
 1355TIP3   OH225555   0.673   2.677  15.154 -0.3137 -0.1051  0.2708
 1355TIP3    H125556   0.607   2.731  15.111  0.3441  0.4675 -0.0475
 1355TIP3    H225557   0.659   2.691  15.247  0.0607  0.8949  0.1874
 1356TIP3   OH225558   1.351   0.083  15.868  0.5517 -0.0629 -0.5320
 1356TIP3    H125559   1.337   0.026  15.792  0.7355  0.9276 -1.3255
 1356TIP3    H225560   1.276   0.065  15.925 -0.3973  0.2629 -1.6364
 1357TIP3   OH225561   3.497   2.763   3.985 -0.3645 -0.5028 -0.1983
 1357TIP3    H125562   3.406   2.758   4.012 -0.2199  0.8508  0.6855
 1357TIP3    H225563   3.494   2.805   3.899 -0.5380  0.9442  0.4734
 1358TIP3   OH225564   1.062   2.930  15.932  0.6299  0.2562  0.4664
 1358TIP3    H125565   0.993   2.988  15.900  1.3250  0.5190 -0.6211
 1358TIP3    H225566   1.015   2.860  15.977 -0.4548 -0.2076 -1.2782
 1359TIP3   OH225567   1.679   4.840  15.778 -0.8961 -0.0465  0.0036
 1359TIP3    H125568   1.647   4.838  15.868  2.1731  0.9429  1.2307
 1359TIP3    H225569   1.672   4.932  15.753  1.2446  0.2863  0.4764
 1360TIP3   OH225570   0.823   6.739   4.563 -0.6486 -0.2334 -0.1588
 1360TIP3    H125571   0.849   6.815   4.511 -3.4109  2.4131  2.0027
 1360TIP3    H225572   0.734   6.718   4.533 -0.6569 -1.4023  0.5995
 1361TIP3   OH225573   6.445   5.147   4.582  0.6542  0.1127 -0.1537
 1361TIP3    H125574   6.417   5.238   4.596  2.3723  0.8927 -1.3556
 1361TIP3    H225575   6.518   5.134   4.642 -0.5397 -1.0339  1.1173
 1362TIP3   OH225576   1.694   3.725   5.287 -0.0779  0.3326  0.0414
 1362TIP3    H125577   1.765   3.774   5.248  0.7882  0.1982  1.3882
 1362TIP3    H225578   1.646   3.789   5.340 -1.6447  0.6643 -1.6668
 1363TIP3   OH225579   0.251   1.050  13.323 -0.3648 -0.2281 -0.0463
 1363TIP3    H125580   0.216   1.004  13.247  0.8552 -0.4813 -0.4802
 1363TIP3    H225581   0.178   1.103  13.355 -1.1904 -0.8918 -0.7744
 1364TIP3   OH225582   5.846   0.859   4.813 -0.1835 -0.0633  0.3783
 1364TIP3    H125583   5.887   0.816   4.888 -0.2697  0.6886  0.8689
 1364TIP3    H225584   5.769   0.902   4.849  0.5157  1.4638  0.1407
 1365TIP3   OH225585   4.852   0.219  12.210 -0.0439 -0.3910  0.7347
 1365TIP3    H125586   4.913   0.185  12.275 -0.5984  0.3479  1.6582
 1365TIP3    H225587   4.772   0.169  12.223  0.1390 -0.9025 -0.0349
 1366TIP3   OH225588   3.625   3.673   3.196 -0.1763  0.7690  0.0549
 1366TIP3    H125589   3.599   3.589   3.234 -1.2434  1.5414  1.1080
 1366TIP3    H225590   3.720   3.671   3.196 -0.1675  0.1206  1.4170
 1367TIP3   OH225591   4.182   0.179   5.575 -0.5612  0.0188  0.3814
 1367TIP3    H125592   4.174   0.263   5.530 -0.0366 -0.0643  0.1250
 1367TIP3    H225593   4.231   0.124   5.514 -0.8565 -0.4561  0.5717
 1368TIP3   OH225594   2.842   2.348  13.879  0.1736 -0.2561 -0.2961
 1368TIP3    H125595   2.893   2.338  13.960  0.5145  0.8961 -0.3568
 1368TIP3    H225596   2.823   2.258  13.852  1.7885 -0.7066 -0.0298
 1369TIP3   OH225597   0.945   1.064  13.396 -0.3409 -0.2403 -0.0464
 1369TIP3    H125598   0.921   1.039  13.485  0.5132 -0.7937  0.0421
 1369TIP3    H225599   0.867   1.106  13.361 -1.2154 -1.3993  0.4391
 1370TIP3   OH225600   2.817   5.730   3.766  0.8348  0.0900  0.2823
 1370TIP3    H125601   2.727   5.715   3.795  0.8877  0.5760  0.7164
 1370TIP3    H225602   2.810   5.745   3.672  0.4317  0.3774  0.3550
 1371TIP3   OH225603   6.527   1.225   4.641  0.2991  0.1118 -0.1504
 1371TIP3    H125604   6.611   1.199   4.677  1.5610 -0.9841 -3.5087
 1371TIP3    H225605   6.529   1.320   4.641  1.2084  0.1067  0.4525
 1372TIP3   OH225606   0.929   3.537  10.919  0.5454 -0.2680 -0.0129
 1372TIP3    H125607   1.001   3.581  10.965  0.7104 -0.2091 -0.3233
 1372TIP3    H225608   0.850   3.578  10.954  0.6938  0.1802 -0.1893
 1373TIP3   OH225609   0.025   0.452  11.126 -0.1594  0.4408 -0.4183
 1373TIP3    H125610  -0.005   0.528  11.075 -0.1781  0.6238 -0.1368
 1373TIP3    H225611   0.081   0.403  11.065 -0.5946  0.3831 -0.7769
 1374TIP3   OH225612   6.180   5.835   2.024 -0.3642  0.4431  0.3760
 1374TIP3    H125613   6.180   5.757   2.080 -1.0478  0.6325  0.6598
 1374TIP3    H225614   6.160   5.802   1.937 -0.0861  0.2334  0.3923
 1375TIP3   OH225615   2.121   5.064   4.387 -0.2226  0.1835  0.1684
 1375TIP3    H125616   2.123   4.969   4.388  0.9904  0.1961  1.0037
 1375TIP3    H225617   2.068   5.089   4.463 -0.8630  0.1825 -0.2708
 1376TIP3   OH225618   4.415   2.460  15.298  0.1631 -0.2135  0.2797
 1376TIP3    H125619   4.385   2.381  15.342  1.1157 -1.2250 -0.8434
 1376TIP3    H225620   4.497   2.483  15.343  1.0380 -1.1407 -0.7881
 1377TIP3   OH225621   4.346   4.825  14.680  0.6564 -0.5402  0.0772
 1377TIP3    H125622   4.322   4.741  14.641 -1.2796  0.1107 -0.2420
 1377TIP3    H225623   4.286   4.835  14.753  1.9196 -0.1194  1.0883
 1378TIP3   OH225624   6.507   3.271   1.818 -0.2090 -0.2820  0.0593
 1378TIP3    H125625   6.471   3.356   1.792 -1.2963 -0.8946 -0.5747
 1378TIP3    H225626   6.489   3.265   1.911  1.3129  0.8308  0.4599
 1379TIP3   OH225627   3.205   4.052  12.898  0.2246  0.1351 -0.3397
 1379TIP3    H125628   3.117   4.019  12.883 -0.5398  2.1037 -0.4648
 1379TIP3    H225629   3.204   4.082  12.989  1.4772 -1.8248  0.3687
 1380TIP3   OH225630   5.319   5.577   1.876  0.0701  0.0640 -0.5041
 1380TIP3    H125631   5.307   5.562   1.782 -1.7402  0.0506 -0.2973
 1380TIP3    H225632   5.388   5.515   1.901  0.1243 -0.3871 -1.6866
 1381TIP3   OH225633   5.243   4.833   4.146 -0.3389  0.2695 -0.1965
 1381TIP3    H125634   5.184   4.766   4.178 -0.6121  0.7324  0.2942
 1381TIP3    H225635   5.210   4.914   4.185  1.4481  0.3502  1.2409
 1382TIP3   OH225636   1.837   5.922   3.190  0.1396  0.0350 -0.2639
 1382TIP3    H125637   1.824   5.929   3.095 -1.8258  0.5095 -0.0028
 1382TIP3    H225638   1.791   5.998   3.226  1.0687 -0.0034  1.0670
 1383TIP3   OH225639   0.775   1.507  12.892 -0.0224 -0.1803 -0.2969
 1383TIP3    H125640   0.849   1.540  12.841 -0.7210  2.3127  0.1557
 1383TIP3    H225641   0.808   1.501  12.981 -0.3101  0.9164 -0.0979
 1384TIP3   OH225642   1.596   5.686   3.757  1.0611 -0.1872  0.2228
 1384TIP3    H125643   1.539   5.700   3.832 -1.1490 -0.3204 -1.3324
 1384TIP3    H225644   1.656   5.760   3.758  0.0394  0.6590  1.2080
 1385TIP3   OH225645   0.738   2.534   1.427  0.0523 -0.1863  0.5117
 1385TIP3    H125646   0.772   2.621   1.445  0.7637 -0.5872  1.2142
 1385TIP3    H225647   0.649   2.548   1.395  0.5453  0.8538 -0.4773
 1386TIP3   OH225648   5.294   1.348   0.325 -0.0877 -0.1038 -1.0125
 1386TIP3    H125649   5.361   1.398   0.278 -0.5936 -0.2204 -1.8628
 1386TIP3    H225650   5.276   1.401   0.403  0.9304 -0.0337 -0.8125
 1387TIP3   OH225651   0.862   5.649  16.571 -0.1989 -0.2925  0.1023
 1387TIP3    H125652   0.896   5.663  16.659  0.2506  0.7689 -0.2233
 1387TIP3    H225653   0.926   5.592  16.529 -0.0908 -0.2936  0.2696
 1388TIP3   OH225654   0.901   1.701   3.293 -0.2264 -0.5455  0.1437
 1388TIP3    H125655   0.904   1.776   3.233  0.8580 -0.8533 -0.2000
 1388TIP3    H225656   0.981   1.708   3.345 -0.0683 -1.5065  0.0501
 1389TIP3   OH225657   2.556   4.006  16.179 -0.5432 -0.5873  0.6695
 1389TIP3    H125658   2.571   4.100  16.166 -0.3826 -0.5786  0.9154
 1389TIP3    H225659   2.604   3.985  16.259 -1.3451 -0.6839  1.1424
 1390TIP3   OH225660   0.927   1.199  14.678 -0.0583 -0.1679  0.0522
 1390TIP3    H125661   0.892   1.268  14.622  1.1877  0.9071  0.5558
 1390TIP3    H225662   1.020   1.220  14.688  0.2603 -1.6651  0.6003
 1391TIP3   OH225663   0.664   0.886  16.935  0.5066 -0.1640 -0.2039
 1391TIP3    H125664   0.723   0.827  16.888  0.1659 -0.5830 -0.1071
 1391TIP3    H225665   0.716   0.965  16.950  0.9194 -0.3866 -0.4538
 1392TIP3   OH225666   1.079   6.818   0.003 -0.0390 -0.3791  0.4167
 1392TIP3    H125667   1.025   6.897   0.000  0.2576 -0.1931 -0.3097
 1392TIP3    H225668   1.079   6.792   0.095 -1.2274 -0.2892  0.4669
 1393TIP3   OH225669   5.251   5.516  14.391  0.1054 -0.4252  0.1898
 1393TIP3    H125670   5.188   5.464  14.441  0.8854 -1.4937  0.1210
 1393TIP3    H225671   5.289   5.453  14.330  1.3274  0.1573  0.3203
 1394TIP3   OH225672   2.039   5.026   5.544  0.3419 -0.3291 -0.1128
 1394TIP3    H125673   2.072   4.953   5.596  0.5162 -0.1260  0.0635
 1394TIP3    H225674   2.099   5.098   5.563 -0.8101  0.3762  1.0933
 1395TIP3   OH225675   3.348   6.500   3.856  0.5298 -0.0597  0.0905
 1395TIP3    H125676   3.264   6.546   3.863  0.0125 -0.9806  0.1401
 1395TIP3    H225677   3.325   6.413   3.824  1.4999 -0.2495 -0.1161
 1396TIP3   OH225678   5.643   0.887  10.555 -0.1847 -0.3595  0.5300
 1396TIP3    H125679   5.577   0.881  10.487 -0.8634 -0.1835  1.1668
 1396TIP3    H225680   5.719   0.927  10.511 -1.2766  1.6313  0.3309
 1397TIP3   OH225681   4.951   6.488  16.331 -0.6750  0.0829  0.4498
 1397TIP3    H125682   4.968   6.394  16.334  1.0886  0.3391 -0.4512
 1397TIP3    H225683   4.868   6.496  16.283 -1.6708 -1.0631  1.9234
 1398TIP3   OH225684   2.165   1.195  14.838 -0.0675  0.0119  0.1420
 1398TIP3    H125685   2.108   1.207  14.762 -0.7552 -0.9179  0.4865
 1398TIP3    H225686   2.105   1.179  14.911  0.6187 -1.2076  0.4763
 1399TIP3   OH225687   5.448   6.760   5.553  0.6265 -0.1265 -0.5176
 1399TIP3    H125688   5.444   6.772   5.648 -0.1142 -0.2708 -0.5196
 1399TIP3    H225689   5.533   6.719   5.537  0.5153 -0.6357  0.1498
 1400TIP3   OH225690   6.621   1.237   2.799 -0.1097 -0.4237 -0.0536
 1400TIP3    H125691   6.543   1.224   2.745 -1.1743 -2.0410  1.7858
 1400TIP3    H225692   6.597   1.307   2.860  0.8003  0.8099 -1.0402
 1401TIP3   OH225693   3.970   6.265  14.615  0.1415  0.6172  0.1107
 1401TIP3    H125694   3.886   6.229  14.588  1.2461 -0.9512 -1.4169
 1401TIP3    H225695   4.017   6.192  14.654  1.3362  1.1146 -0.3491
 1402TIP3   OH225696   5.295   3.490  10.307 -0.1184 -0.4295  0.3162
 1402TIP3    H125697   5.318   3.424  10.242 -1.8001 -0.1725 -0.5999
 1402TIP3    H225698   5.200   3.484  10.315 -0.1737  1.0574  1.1009
 1403TIP3   OH225699   1.634   5.241  12.867  0.1619 -0.1549  0.8708
 1403TIP3    H125700   1.632   5.242  12.772 -1.2476 -2.9697  0.7555
 1403TIP3    H225701   1.696   5.310  12.891  1.7998 -0.4291 -2.1084
 1404TIP3   OH225702   6.538   2.300   3.445  0.0012 -0.0524  0.0672
 1404TIP3    H125703   6.515   2.326   3.355  1.5238  2.8883  0.3893
 1404TIP3    H225704   6.455   2.297   3.492 -0.7647 -1.1350 -1.2773
 1405TIP3   OH225705   0.882   4.201  13.595  0.4623 -0.0947  0.0103
 1405TIP3    H125706   0.865   4.250  13.675  1.1111  0.0314  0.0781
 1405TIP3    H225707   0.903   4.113  13.624  0.2396 -0.1674 -0.0498
 1406TIP3   OH225708   0.958   2.608   0.028  0.1246 -0.5810 -0.5186
 1406TIP3    H125709   0.923   2.590   0.115 -0.2756  1.0595 -0.2907
 1406TIP3    H225710   0.883   2.643  -0.021  1.1875  2.5762 -0.1651
 1407TIP3   OH225711   6.120   1.111   5.475 -0.0898  0.1747  0.0381
 1407TIP3    H125712   6.192   1.065   5.518  0.0506 -0.1189 -0.4980
 1407TIP3    H225713   6.129   1.202   5.503  1.2269  0.3860 -0.9664
 1408TIP3   OH225714   2.688   2.643   3.029 -0.5614 -0.0635 -0.6092
 1408TIP3    H125715   2.605   2.689   3.022 -1.5693 -1.8152 -0.6176
 1408TIP3    H225716   2.717   2.657   3.119 -0.6176  0.9161 -0.7322
 1409TIP3   OH225717   3.618   5.967  15.685  0.1382 -0.2541 -0.6426
 1409TIP3    H125718   3.636   5.932  15.598  0.4918  0.9388 -1.0774
 1409TIP3    H225719   3.670   6.047  15.690 -3.1363  2.1139 -1.0671
 1410TIP3   OH225720   5.681   6.043   4.911  0.1526  0.4786  0.1014
 1410TIP3    H125721   5.603   5.988   4.901 -0.5859  1.6486 -0.7351
 1410TIP3    H225722   5.746   6.003   4.852 -0.5662  0.8246 -0.9493
 1411TIP3   OH225723   4.815   0.567  14.045 -0.2185  0.2151 -0.3695
 1411TIP3    H125724   4.800   0.535  14.134 -0.0839  1.7231  0.2354
 1411TIP3    H225725   4.728   0.571  14.006 -0.2123 -1.0836 -0.5588
 1412TIP3   OH225726   3.312   6.697   3.502 -0.9977  0.4534 -0.2254
 1412TIP3    H125727   3.231   6.650   3.520 -3.1059  2.8517 -2.6130
 1412TIP3    H225728   3.374   6.664   3.567 -2.4677 -4.7680 -0.9765
 1413TIP3   OH225729   0.712   6.737   5.432 -0.3056  0.0811 -0.4171
 1413TIP3    H125730   0.649   6.809   5.423 -2.3423 -1.6037 -0.2064
 1413TIP3    H225731   0.782   6.774   5.485  0.0651  2.7183 -2.5239
 1414TIP3   OH225732   2.301   6.416  14.737 -0.0822  1.0099  0.3351
 1414TIP3    H125733   2.282   6.372  14.654 -0.9300  2.5159 -0.2954
 1414TIP3    H225734   2.393   6.443  14.730 -0.2558  1.4517 -0.2657
 1415TIP3   OH225735   2.704   3.881  16.652  0.2859  0.0223 -0.5093
 1415TIP3    H125736   2.613   3.860  16.676  0.3692 -0.7019 -0.7831
 1415TIP3    H225737   2.753   3.872  16.733  0.0475  0.8776 -0.2578
 1416TIP3   OH225738   0.755   3.901   6.357  0.2723 -0.5880 -0.1281
 1416TIP3    H125739   0.763   3.830   6.420  0.5567  0.1494  0.6812
 1416TIP3    H225740   0.811   3.971   6.392  0.4881 -0.1868 -1.2246
 1417TIP3   OH225741   2.923   6.324  16.370 -0.2400 -0.4786 -0.5980
 1417TIP3    H125742   2.874   6.251  16.407  0.1793 -1.0891 -1.2108
 1417TIP3    H225743   2.962   6.288  16.290 -0.4277  0.5537 -1.1722
 1418TIP3   OH225744   0.285   1.021  15.447 -0.2174 -0.0372 -0.2047
 1418TIP3    H125745   0.246   1.108  15.458 -0.2886 -0.2502  1.3374
 1418TIP3    H225746   0.314   1.020  15.356 -0.8600  1.3363 -0.4519
 1419TIP3   OH225747   0.505   1.529  11.678  0.0942  0.5277  0.3648
 1419TIP3    H125748   0.456   1.600  11.637 -0.2069 -0.1460 -0.4765
 1419TIP3    H225749   0.484   1.536  11.771 -2.2858 -0.2039 -0.0436
 1420TIP3   OH225750   6.579   2.769  11.477 -0.0843  0.4446 -0.0941
 1420TIP3    H125751   6.638   2.780  11.402 -1.4453  0.4051 -1.2216
 1420TIP3    H225752   6.496   2.809  11.449 -0.5273  0.7820  1.5538
 1421TIP3   OH225753   1.604   0.747  11.672  0.3977  0.4031  0.3629
 1421TIP3    H125754   1.574   0.718  11.585  0.6325  0.9466  0.0987
 1421TIP3    H225755   1.529   0.731  11.729 -0.7231  2.4353 -0.4222
 1422TIP3   OH225756   4.658   5.277   3.358  0.1339  0.2148 -0.2250
 1422TIP3    H125757   4.688   5.262   3.448 -0.8226 -0.5170 -0.0056
 1422TIP3    H225758   4.570   5.313   3.367 -0.4811 -1.0394 -0.8491
 1423TIP3   OH225759   5.454   3.626   3.387  0.2632 -0.2888  0.1264
 1423TIP3    H125760   5.364   3.605   3.414  0.1995  0.6813  0.7318
 1423TIP3    H225761   5.476   3.559   3.323 -0.6408 -0.9602  0.4910
 1424TIP3   OH225762   6.493   2.045   0.444  0.4919 -0.0706  0.0687
 1424TIP3    H125763   6.551   1.969   0.434  1.7378  0.8837 -0.2661
 1424TIP3    H225764   6.502   2.070   0.536  1.3494  0.6260 -0.1932
 1425TIP3   OH225765   1.295   6.196   6.509 -0.8082 -0.0038 -0.6400
 1425TIP3    H125766   1.204   6.192   6.478  0.0345  0.5302 -3.4650
 1425TIP3    H225767   1.318   6.288   6.503 -0.6145  0.1985  2.0193
 1426TIP3   OH225768   1.691   5.940  11.930  0.2628 -0.2162  0.1486
 1426TIP3    H125769   1.678   5.987  11.848  1.0745  0.6631  0.5044
 1426TIP3    H225770   1.688   5.848  11.906  0.7666  0.0362 -0.9090
 1427TIP3   OH225771   2.930   2.100   4.895 -0.4703  0.4552 -0.3078
 1427TIP3    H125772   3.005   2.048   4.866 -1.5143 -1.1866 -0.1423
 1427TIP3    H225773   2.957   2.191   4.879  1.2568 -0.1257 -0.9273
 1428TIP3   OH225774   3.406   1.924   5.926  0.0910  0.0636  0.1809
 1428TIP3    H125775   3.484   1.979   5.912  0.0439  0.7329  2.1990
 1428TIP3    H225776   3.413   1.896   6.017 -1.3263 -1.0551 -0.0210
 1429TIP3   OH225777   5.963   4.305   1.904 -0.0120  0.3202  0.2127
 1429TIP3    H125778   5.882   4.309   1.956 -0.5636  1.2174 -0.6870
 1429TIP3    H225779   6.022   4.365   1.949 -1.0756  2.4712 -1.1236
 1430TIP3   OH225780   1.571   6.767  16.047 -0.1628 -0.0992  0.2323
 1430TIP3    H125781   1.568   6.738  16.138  1.9863 -1.1747  0.0319
 1430TIP3    H225782   1.484   6.747  16.012 -0.0201 -2.7894  1.1771
 1431TIP3   OH225783   1.072   0.571   5.218 -0.2999 -0.1225 -0.0680
 1431TIP3    H125784   1.108   0.525   5.142  3.0535  1.5335  0.3288
 1431TIP3    H225785   0.989   0.607   5.187  0.1910 -0.8387 -2.4329
 1432TIP3   OH225786   4.156   1.601   4.389  0.2244 -0.3703  0.6211
 1432TIP3    H125787   4.082   1.633   4.440 -0.1646  0.2278 -0.3015
 1432TIP3    H225788   4.137   1.508   4.376 -0.8110 -0.0405 -0.3439
 1433TIP3   OH225789   2.032   3.988   4.494  0.0697  0.2789  0.5778
 1433TIP3    H125790   2.110   3.935   4.511  0.4107  0.6096  0.0609
 1433TIP3    H225791   2.062   4.078   4.503 -0.1295  0.4178 -0.1338
 1434TIP3   OH225792   4.676   2.386  14.389 -0.2665  0.2467 -0.2705
 1434TIP3    H125793   4.649   2.294  14.394  1.9737 -0.4186  0.7147
 1434TIP3    H225794   4.759   2.385  14.342 -1.1030  2.0496 -1.9692
 1435TIP3   OH225795   4.765   2.781  14.945 -0.0013 -0.0157 -0.0781
 1435TIP3    H125796   4.775   2.833  15.024 -0.0211 -0.3251  0.1314
 1435TIP3    H225797   4.760   2.690  14.976  0.5893 -0.1928 -0.4778
 1436TIP3   OH225798   5.812   6.662  14.676 -0.2058  0.3870  0.0904
 1436TIP3    H125799   5.902   6.644  14.647  0.0870  0.4770  0.9320
 1436TIP3    H225800   5.777   6.576  14.699  0.1354  0.5013  1.0823
 1437TIP3   OH225801   3.017   0.476  15.324  0.1539  0.1551 -0.3744
 1437TIP3    H125802   3.034   0.418  15.398 -3.5094 -1.0714 -0.3116
 1437TIP3    H225803   3.000   0.562  15.363  1.2864  0.2708 -0.1050
 1438TIP3   OH225804   6.402   3.303  12.809 -0.3058 -0.5169  0.0587
 1438TIP3    H125805   6.427   3.326  12.898 -1.5410 -1.1431  0.5926
 1438TIP3    H225806   6.377   3.211  12.814  0.3297 -0.7787 -1.1037
 1439TIP3   OH225807   6.099   5.732   4.973  0.4633 -0.2260  0.7592
 1439TIP3    H125808   6.090   5.657   4.914  2.7768 -0.6064  0.7624
 1439TIP3    H225809   6.102   5.808   4.915 -0.2254 -0.3068  0.6189
 1440TIP3   OH225810   3.639   6.220   4.191 -0.6961 -0.3243 -0.1447
 1440TIP3    H125811   3.609   6.252   4.276 -0.4626  0.8749 -0.4815
 1440TIP3    H225812   3.610   6.287   4.129  3.0826  1.3516 -0.4407
 1441TIP3   OH225813   4.984   2.387   2.259  0.2425  0.2853  0.0544
 1441TIP3    H125814   5.049   2.386   2.329  0.3067  0.4129 -0.0029
 1441TIP3    H225815   4.916   2.446   2.291  0.1939  0.2156  0.0797
 1442TIP3   OH225816   5.745   5.849  12.855  0.7139  0.1677  0.1328
 1442TIP3    H125817   5.832   5.850  12.895 -0.2870 -0.0851  2.4579
 1442TIP3    H225818   5.685   5.858  12.928 -1.2419  0.5846 -1.4429
 1443TIP3   OH225819   2.001   2.356   3.968  0.1156 -0.3601 -0.1392
 1443TIP3    H125820   1.968   2.292   4.032  0.2487 -0.2317  0.0567
 1443TIP3    H225821   1.925   2.408   3.945 -0.2329 -1.2250 -1.0608
 1444TIP3   OH225822   6.247   6.214   4.415 -0.5217 -0.1640  0.3333
 1444TIP3    H125823   6.196   6.134   4.431 -0.3010 -0.6813 -1.3215
 1444TIP3    H225824   6.184   6.276   4.380  0.0932 -1.2476 -3.0407
 1445TIP3   OH225825   4.699   2.545  15.081 -0.3440  0.0300  0.2346
 1445TIP3    H125826   4.725   2.500  15.162  0.7705 -0.3847 -0.3351
 1445TIP3    H225827   4.689   2.475  15.017  1.1035  0.5296 -0.5850
 1446TIP3   OH225828   3.473   2.536   0.334  0.0193 -0.1086 -0.2070
 1446TIP3    H125829   3.437   2.478   0.266  0.5340  0.3238 -0.8613
 1446TIP3    H225830   3.467   2.484   0.414  1.0687 -1.3639 -0.8783
 1447TIP3   OH225831   6.346   5.823  16.557 -0.8012  0.5050 -0.1440
 1447TIP3    H125832   6.385   5.771  16.628  0.4776 -0.7308 -1.6730
 1447TIP3    H225833   6.394   5.906  16.560  0.5071 -0.2019 -0.6413
 1448TIP3   OH225834   4.351   0.716  15.106  0.5526 -0.7343  0.0105
 1448TIP3    H125835   4.365   0.697  15.198  0.6406 -0.6334  0.0183
 1448TIP3    H225836   4.259   0.694  15.090 -0.1673  1.5003  0.7023
 1449TIP3   OH225837   1.623   4.662  12.297 -0.4687 -0.0677 -0.1675
 1449TIP3    H125838   1.577   4.680  12.379 -1.0465 -1.8432 -0.0427
 1449TIP3    H225839   1.555   4.669  12.230 -0.0229  1.2602 -0.5074
 1450TIP3   OH225840   0.458   1.621   2.584 -0.2437  0.4060  0.0416
 1450TIP3    H125841   0.553   1.605   2.580 -0.0718  1.5925 -2.2178
 1450TIP3    H225842   0.440   1.677   2.509 -2.8131 -0.0015  0.2614
 1451TIP3   OH225843   3.667   3.675  14.562  0.7083  0.3274  0.5195
 1451TIP3    H125844   3.676   3.662  14.467 -1.3069 -0.3123  0.3781
 1451TIP3    H225845   3.577   3.649  14.581  1.0342  0.6090  2.6009
 1452TIP3   OH225846   6.676   5.584   4.403 -0.3636 -0.1571 -0.2155
 1452TIP3    H125847   6.707   5.641   4.472 -0.4495  1.4835 -1.4752
 1452TIP3    H225848   6.753   5.568   4.348 -0.7609  0.3610 -0.9414
 1453TIP3   OH225849   3.298   2.126  16.720  0.5148  0.4649 -0.4764
 1453TIP3    H125850   3.209   2.153  16.698  1.1019  0.7554 -2.6689
 1453TIP3    H225851   3.291   2.093  16.810 -1.2656  2.8719  0.3600
 1454TIP3   OH225852   6.546   6.760   3.558 -0.3850  0.0132  0.0450
 1454TIP3    H125853   6.460   6.789   3.588  0.2284 -0.0363  2.0062
 1454TIP3    H225854   6.558   6.804   3.474 -1.3281  1.9846  0.8770
 1455TIP3   OH225855   2.648   2.741  11.586  0.4621  0.6037  0.7358
 1455TIP3    H125856   2.712   2.760  11.517  0.7963  0.4286  0.9891
 1455TIP3    H225857   2.667   2.650  11.611 -0.3853  0.2932  0.2936
 1456TIP3   OH225858   5.159   4.449   0.174  0.0021 -0.0511 -0.1437
 1456TIP3    H125859   5.233   4.405   0.134 -0.3396  2.6215 -4.3785
 1456TIP3    H225860   5.196   4.497   0.248  1.9122 -0.8838 -0.5078
 1457TIP3   OH225861   4.856   0.682  14.464 -0.6056  0.1897  0.5771
 1457TIP3    H125862   4.839   0.762  14.514 -1.7387  0.9740 -0.9835
 1457TIP3    H225863   4.911   0.710  14.391 -0.0966 -0.6871  0.5972
 1458TIP3   OH225864   1.399   2.491   0.891 -0.1393  0.2398 -0.4721
 1458TIP3    H125865   1.494   2.508   0.894 -0.1015 -0.1348  1.3350
 1458TIP3    H225866   1.361   2.562   0.942 -0.8714  0.4840 -1.3349
 1459TIP3   OH225867   2.015   6.786   6.101  0.0301  0.7725 -0.5453
 1459TIP3    H125868   2.102   6.822   6.120 -0.1410  0.1812  1.5943
 1459TIP3    H225869   1.997   6.813   6.011  2.8693 -0.0127 -1.4425
 1460TIP3   OH225870   3.233   4.238  13.548  0.2329 -0.2891  0.0730
 1460TIP3    H125871   3.277   4.180  13.487 -0.3144 -0.0288 -0.5871
 1460TIP3    H225872   3.238   4.193  13.633  3.2143  0.4991  0.4049
 1461TIP3   OH225873   3.643   4.226   4.196 -0.0523  0.3322  0.2727
 1461TIP3    H125874   3.557   4.269   4.191 -0.4514 -0.0910  2.4459
 1461TIP3    H225875   3.633   4.147   4.143 -0.1668  1.5327 -1.5557
 1462TIP3   OH225876   4.811   1.881   3.454  0.0850  0.2087 -0.5458
 1462TIP3    H125877   4.782   1.849   3.368 -0.7036  0.4682 -0.3798
 1462TIP3    H225878   4.907   1.880   3.448  0.1160 -2.2808 -0.5148
 1463TIP3   OH225879   0.628   4.891  15.467 -0.1806 -0.3753  0.0574
 1463TIP3    H125880   0.645   4.808  15.422 -0.5267  0.0368 -0.8459
 1463TIP3    H225881   0.640   4.870  15.560  2.5485 -0.7919 -0.2814
 1464TIP3   OH225882   0.926   3.204  13.986  0.2425 -0.3316  0.2380
 1464TIP3    H125883   0.841   3.165  14.005 -1.1904  2.6881  0.5480
 1464TIP3    H225884   0.906   3.291  13.953  3.2280  0.1740 -0.5091
 1465TIP3   OH225885   6.783   2.840  10.693 -0.2246  0.4158  0.2435
 1465TIP3    H125886   6.823   2.916  10.736 -0.1195  0.4448  0.0952
 1465TIP3    H225887   6.857   2.788  10.663 -0.2975  0.8330 -0.6732
 1466TIP3   OH225888   6.821   4.034  10.591  0.1995  0.7985 -0.5641
 1466TIP3    H125889   6.817   4.124  10.623 -1.0868  0.6140 -0.1631
 1466TIP3    H225890   6.837   4.043  10.497 -0.7337  1.4888 -0.6768
 1467TIP3   OH225891   0.662   5.834  13.330 -0.1167 -0.2172  0.1640
 1467TIP3    H125892   0.599   5.823  13.259  0.7456  0.5982 -0.7530
 1467TIP3    H225893   0.662   5.750  13.375 -0.4558 -0.8606 -0.9957
 1468TIP3   OH225894   4.292   5.612  10.699 -0.0691 -0.0745  0.1729
 1468TIP3    H125895   4.338   5.552  10.642 -0.9894 -2.5139  1.8333
 1468TIP3    H225896   4.341   5.610  10.781 -0.7036  0.6410  0.5851
 1469TIP3   OH225897   4.294   3.280  14.604 -0.5268  0.9073  0.0685
 1469TIP3    H125898   4.284   3.277  14.509 -0.5154 -1.5582  0.0861
 1469TIP3    H225899   4.283   3.189  14.632  3.3541  0.8482  2.0135
 1470TIP3   OH225900   2.020   1.417   3.391 -0.7547 -0.5083  0.5811
 1470TIP3    H125901   1.974   1.391   3.471 -1.7929 -2.0060 -0.4343
 1470TIP3    H225902   2.073   1.493   3.416 -1.6928 -0.4335  2.4632
 1471TIP3   OH225903   1.880   1.754  11.483  0.1746  0.1385 -0.0622
 1471TIP3    H125904   1.953   1.700  11.451 -0.0549  0.6398 -1.4959
 1471TIP3    H225905   1.807   1.693  11.493  0.1505  0.0258 -0.8692
 1472TIP3   OH225906   2.867   2.984   4.191  0.2499  0.2052 -0.5851
 1472TIP3    H125907   2.803   3.055   4.203  0.0932  0.0967 -0.7871
 1472TIP3    H225908   2.825   2.907   4.230  0.7998  0.4201  0.4896
 1473TIP3   OH225909   1.809   2.856  12.370  0.4225 -0.2612  0.6981
 1473TIP3    H125910   1.744   2.905  12.420  1.1885  0.1636  1.3022
 1473TIP3    H225911   1.857   2.922  12.320  1.1902 -0.4233  1.2017
 1474TIP3   OH225912   1.178   2.567  11.605 -0.2150  0.5110 -0.6835
 1474TIP3    H125913   1.200   2.538  11.517 -3.5107 -1.1901 -1.0936
 1474TIP3    H225914   1.229   2.510  11.663  0.0663 -0.0751 -1.4894
 1475TIP3   OH225915   2.701   0.507  13.761  0.2730  0.0422  0.5396
 1475TIP3    H125916   2.666   0.555  13.836  2.0857 -0.3726  1.7158
 1475TIP3    H225917   2.740   0.574  13.705  0.3939  0.1995  0.8129
 1476TIP3   OH225918   6.125   3.056   1.360 -0.0110  0.2108 -0.0526
 1476TIP3    H125919   6.177   3.038   1.438 -0.1633  1.8691  0.4688
 1476TIP3    H225920   6.100   2.970   1.328  0.7282 -0.5336  1.2607
 1477TIP3   OH225921   5.432   1.579   0.762  0.0379 -0.3226 -0.0501
 1477TIP3    H125922   5.511   1.632   0.771 -1.4220  2.3405 -1.6231
 1477TIP3    H225923   5.427   1.528   0.843  2.9139  0.0002  0.4070
 1478TIP3   OH225924   0.805   1.555  14.761  0.1480  0.2376  0.0056
 1478TIP3    H125925   0.884   1.582  14.807 -0.4731 -0.2836  1.4305
 1478TIP3    H225926   0.765   1.637  14.733  1.0028  0.5201 -0.4280
 1479TIP3   OH225927   6.651   2.870   5.178  0.2124  0.4905  0.0165
 1479TIP3    H125928   6.631   2.943   5.237 -2.1705 -0.6547  0.7515
 1479TIP3    H225929   6.567   2.845   5.141  1.1686 -1.0671 -1.2346
 1480TIP3   OH225930   1.304   0.209  15.438  0.2847 -0.6515  0.3426
 1480TIP3    H125931   1.387   0.176  15.473 -0.8116 -2.0496  1.8237
 1480TIP3    H225932   1.253   0.231  15.516 -0.5078  0.7962 -0.5618
 1481TIP3   OH225933   0.160   6.629   6.031 -0.3263 -0.0008  0.6013
 1481TIP3    H125934   0.076   6.674   6.044 -0.5702 -0.4111  0.4407
 1481TIP3    H225935   0.218   6.667   6.097 -0.1905  1.4037 -0.2765
 1482TIP3   OH225936   5.019   6.628   4.921 -0.0183  0.0370 -0.1734
 1482TIP3    H125937   5.034   6.723   4.918  0.0579  0.0317  0.0304
 1482TIP3    H225938   5.106   6.590   4.906 -0.2873 -0.0142 -1.7690
 1483TIP3   OH225939   4.518   2.264   0.144 -0.0018 -0.0477 -0.4402
 1483TIP3    H125940   4.500   2.357   0.129 -1.4240  0.0524  1.5062
 1483TIP3    H225941   4.600   2.248   0.097  1.8153  2.8773  1.3827
 1484TIP3   OH225942   4.656   4.578   3.589  0.2185 -0.0986  0.2761
 1484TIP3    H125943   4.622   4.540   3.670 -0.3003  1.0718  0.6271
 1484TIP3    H225944   4.655   4.672   3.604 -0.3667  0.1798 -1.2601
 1485TIP3   OH225945   0.552   1.121  12.299 -0.2757 -0.3917  0.3700
 1485TIP3    H125946   0.628   1.062  12.295 -1.6816 -2.2856  0.3906
 1485TIP3    H225947   0.481   1.071  12.260 -0.6288  2.9156 -4.1147
 1486TIP3   OH225948   1.381   0.739  10.717 -0.1636  0.6674  0.0049
 1486TIP3    H125949   1.331   0.701  10.644  1.4245 -0.2381 -0.6537
 1486TIP3    H225950   1.428   0.665  10.755  0.4709  1.4492  0.7803
 1487TIP3   OH225951   0.972   5.501   1.184  0.6629 -0.7680  0.6192
 1487TIP3    H125952   1.002   5.560   1.252  2.1931 -0.7428 -0.0385
 1487TIP3    H225953   1.008   5.537   1.103 -0.4992 -1.2005 -0.1194
 1488TIP3   OH225954   4.526   3.798  13.247 -0.2344 -0.2435  0.2138
 1488TIP3    H125955   4.463   3.778  13.317 -2.1088 -0.4167 -1.4331
 1488TIP3    H225956   4.492   3.877  13.206  0.4009 -0.5649 -0.9816
 1489TIP3   OH225957   2.655   0.964  13.699  0.1157  0.6030 -0.1044
 1489TIP3    H125958   2.560   0.974  13.699  0.1299  0.7401  0.3695
 1489TIP3    H225959   2.688   1.048  13.731  0.3397  0.0877  1.0651
 1490TIP3   OH225960   6.466   0.040  17.128  0.0366  0.2958 -0.1307
 1490TIP3    H125961   6.411   0.092  17.187  1.2358  1.6399 -0.1579
 1490TIP3    H225962   6.475  -0.044  17.172 -1.5044  0.2593  0.1755
 1491TIP3   OH225963   4.448   2.855  15.414  0.8173 -0.1885 -0.2154
 1491TIP3    H125964   4.488   2.797  15.478 -1.3126 -0.5385  0.9085
 1491TIP3    H225965   4.372   2.807  15.382  0.7294  0.7833 -1.5413
 1492TIP3   OH225966   0.632   1.492  14.034 -0.7473 -0.0437  0.0367
 1492TIP3    H125967   0.630   1.422  13.968 -0.7253 -1.0356  1.0685
 1492TIP3    H225968   0.714   1.538  14.016 -1.7749  1.1289 -2.0394
 1493TIP3   OH225969   3.909   5.156   3.676 -0.3103 -0.0318 -0.1002
 1493TIP3    H125970   3.950   5.193   3.754 -1.8732 -0.8838  1.1707
 1493TIP3    H225971   3.862   5.079   3.707  0.2436 -1.2787 -2.1462
 1494TIP3   OH225972   6.777   0.924   5.310 -0.4416 -0.2740  0.2762
 1494TIP3    H125973   6.719   0.861   5.269  0.0854 -0.6620  0.1129
 1494TIP3    H225974   6.727   1.006   5.312 -0.7268 -0.4228 -0.5119
 1495TIP3   OH225975   0.001   3.734  12.246 -0.3591 -0.1873 -0.2867
 1495TIP3    H125976  -0.070   3.673  12.226 -0.0687 -0.6494  0.0772
 1495TIP3    H225977   0.065   3.682  12.294  0.7196 -0.0371 -1.5117
 1496TIP3   OH225978   6.567   5.937   1.418 -0.1139 -0.4482  0.2700
 1496TIP3    H125979   6.656   5.935   1.455 -1.1099 -1.1851  2.8069
 1496TIP3    H225980   6.525   6.012   1.460 -0.3755  0.6980 -1.8886
 1497TIP3   OH225981   2.458   2.963   2.635 -0.0313 -0.2717  0.2155
 1497TIP3    H125982   2.539   3.009   2.615 -0.4891  0.5865  0.2949
 1497TIP3    H225983   2.455   2.959   2.730  0.1225 -0.6848  0.2049
 1498TIP3   OH225984   6.059   0.792  15.607 -0.5116 -0.1087  0.4607
 1498TIP3    H125985   6.017   0.755  15.530 -1.1292  0.4973  0.4974
 1498TIP3    H225986   6.034   0.885  15.606  1.0588  0.3350  0.3306
 1499TIP3   OH225987   2.509   1.790   5.377 -0.2094 -0.1543 -0.2302
 1499TIP3    H125988   2.427   1.784   5.329  0.2924 -0.5171 -1.0547
 1499TIP3    H225989   2.562   1.717   5.344  0.4115  0.0138  0.3629
 1500TIP3   OH225990   4.156   0.096   1.403 -0.0380  0.3945 -0.0031
 1500TIP3    H125991   4.249   0.121   1.398 -0.1471  1.1257  1.1268
 1500TIP3    H225992   4.156   0.001   1.395  0.8653  0.3433  0.4469
 1501TIP3   OH225993   1.459   1.824  13.358 -0.3081  0.3651 -0.3079
 1501TIP3    H125994   1.520   1.896  13.373  0.1589  0.0524 -0.6594
 1501TIP3    H225995   1.491   1.782  13.278 -0.2668 -0.5401  0.1692
 1502TIP3   OH225996   5.667   1.191   1.789 -0.1524  0.5908 -0.2140
 1502TIP3    H125997   5.712   1.106   1.788 -0.2373  0.5391  0.2752
 1502TIP3    H225998   5.589   1.176   1.735 -1.3545 -0.3150  1.6611
 1503TIP3   OH225999   4.581   6.367  14.769 -0.1477 -0.5802 -0.4295
 1503TIP3    H126000   4.563   6.310  14.695  0.1829 -2.4615  0.8651
 1503TIP3    H226001   4.572   6.310  14.846  1.1892  0.8663  0.8692
 1504TIP3   OH226002   4.929   1.613  15.626 -0.2478 -0.2574  0.1166
 1504TIP3    H126003   4.847   1.588  15.669 -0.9098  0.0739 -0.9253
 1504TIP3    H226004   4.960   1.688  15.676 -0.9712  0.0795  0.0729
 1505TIP3   OH226005   0.334   1.145   5.091 -0.0516 -0.5090  0.6000
 1505TIP3    H126006   0.291   1.224   5.059  1.1678 -0.7991 -2.0443
 1505TIP3    H226007   0.273   1.074   5.071  0.6104 -0.6622 -1.0325
 1506TIP3   OH226008   1.054   5.847   3.178 -0.2696 -0.6371  0.2248
 1506TIP3    H126009   1.133   5.877   3.134 -0.0847  2.0578  2.1287
 1506TIP3    H226010   1.076   5.759   3.210  0.3839 -1.6816 -2.8072
 1507TIP3   OH226011   0.690   1.398  16.013 -0.1656  0.2181 -0.2028
 1507TIP3    H126012   0.779   1.433  16.010  0.6119 -1.7059 -1.2315
 1507TIP3    H226013   0.679   1.354  15.929 -1.3527 -1.2949  0.7034
 1508TIP3   OH226014   6.529   3.855   0.966 -0.1599  0.1854  0.1038
 1508TIP3    H126015   6.624   3.846   0.974 -0.2582  0.0672  1.4566
 1508TIP3    H226016   6.514   3.868   0.873  1.2615  1.0887 -0.0337
 1509TIP3   OH226017   0.981   0.482  16.398  0.5334  0.1444 -0.5204
 1509TIP3    H126018   0.922   0.557  16.413  1.4255  0.1317  4.4229
 1509TIP3    H226019   0.922   0.407  16.388 -0.2743  0.8749 -1.5730
 1510TIP3   OH226020   4.461   4.069  11.841  0.6481  0.1444 -0.2419
 1510TIP3    H126021   4.380   4.114  11.819  0.7444  0.9533  0.9708
 1510TIP3    H226022   4.486   4.104  11.926  1.7517 -0.8167 -0.1389
 1511TIP3   OH226023   4.436   3.151   3.546  0.1574 -0.0694 -0.2014
 1511TIP3    H126024   4.365   3.087   3.557 -1.3991  1.6713  0.3776
 1511TIP3    H226025   4.515   3.103   3.571 -1.2103 -1.1586  2.4085
 1512TIP3   OH226026   0.419   5.303  14.183 -0.0542  0.2046  0.1409
 1512TIP3    H126027   0.380   5.247  14.116  0.2223 -0.6137  0.6435
 1512TIP3    H226028   0.345   5.352  14.219 -0.1490  0.9192 -0.9981
 1513TIP3   OH226029   6.594   1.535  15.425 -0.6296  0.3551 -0.2565
 1513TIP3    H126030   6.500   1.535  15.442 -0.8034  2.2320 -1.0040
 1513TIP3    H226031   6.601   1.535  15.329  0.2083 -1.8813 -0.2677
 1514TIP3   OH226032   6.699   3.311  12.720 -0.1129 -0.2751 -0.0664
 1514TIP3    H126033   6.740   3.281  12.802 -0.4822  1.5275  0.8115
 1514TIP3    H226034   6.606   3.312  12.738 -0.0752  2.1946  0.2590
 1515TIP3   OH226035   5.108   5.539   2.675  0.0859 -0.6939 -0.0668
 1515TIP3    H126036   5.067   5.587   2.603 -1.9552 -1.3478  0.5778
 1515TIP3    H226037   5.200   5.566   2.672 -0.8029  2.9799  0.0164
 1516TIP3   OH226038   5.080   4.358   3.363 -0.2876  0.2540  0.0500
 1516TIP3    H126039   5.008   4.335   3.422 -0.0108 -2.8951 -0.6315
 1516TIP3    H226040   5.048   4.433   3.314 -1.6558  1.1731  2.1845
 1517TIP3   OH226041   4.568   0.413  11.292  0.2279  0.3791 -0.2628
 1517TIP3    H126042   4.577   0.378  11.204 -1.9503 -0.1970 -0.3220
 1517TIP3    H226043   4.617   0.352  11.348  0.0356 -0.3321 -0.8601
 1518TIP3   OH226044   0.547   1.331   4.000  0.1203  0.4233 -0.3039
 1518TIP3    H126045   0.554   1.290   3.913  0.8108 -2.0923  0.8361
 1518TIP3    H226046   0.553   1.258   4.061  1.1836  2.2702  1.9391
 1519TIP3   OH226047   4.607   1.042  14.196 -0.7379 -0.4615 -0.0593
 1519TIP3    H126048   4.659   0.990  14.134  0.4261 -0.5243  0.9145
 1519TIP3    H226049   4.517   1.011  14.184 -0.1967 -2.1695 -0.0611
 1520TIP3   OH226050   5.388   0.509   4.387 -0.4365  0.1450  0.0749
 1520TIP3    H126051   5.440   0.529   4.465 -1.2352  1.0824  0.3837
 1520TIP3    H226052   5.335   0.434   4.412 -2.1821  1.6676  1.1755
 1521TIP3   OH226053   3.876   4.181  15.383  0.5987 -0.8682  0.1386
 1521TIP3    H126054   3.847   4.272  15.381  0.2371 -1.0004 -1.1278
 1521TIP3    H226055   3.971   4.186  15.396  0.6936 -0.2847 -0.7123
 1522TIP3   OH226056   3.469   5.276  14.971 -0.2702 -0.7935  0.5072
 1522TIP3    H126057   3.485   5.365  15.002 -1.3104  0.1194 -1.3932
 1522TIP3    H226058   3.520   5.269  14.891 -1.1176 -1.4875  0.0123
 1523TIP3   OH226059   6.157   6.526  13.714 -0.2972  0.1252  0.2669
 1523TIP3    H126060   6.227   6.589  13.730  0.8524 -1.1509  0.4843
 1523TIP3    H226061   6.101   6.568  13.649  1.9262  0.3214 -1.6548
 1524TIP3   OH226062   5.508   6.668  13.295  0.2996  0.1904 -0.5701
 1524TIP3    H126063   5.554   6.595  13.253 -0.0951  0.0342 -0.7309
 1524TIP3    H226064   5.570   6.741  13.289  1.8537 -0.7712  2.0078
 1525TIP3   OH226065   4.716   2.837   5.652  0.1321  0.3431 -0.3259
 1525TIP3    H126066   4.625   2.862   5.666 -0.0136 -0.8542  1.1305
 1525TIP3    H226067   4.766   2.902   5.702 -0.0078  0.1930  0.0129
 1526TIP3   OH226068   3.888   1.617   4.048  0.6008 -0.0947  0.2510
 1526TIP3    H126069   3.902   1.572   3.964 -0.8000 -2.3549  1.1437
 1526TIP3    H226070   3.859   1.548   4.107 -1.5543  1.9948  1.7875
 1527TIP3   OH226071   2.722   1.741  11.998  0.4494  0.6883 -0.2442
 1527TIP3    H126072   2.660   1.790  12.052 -0.2323  0.2708 -0.6358
 1527TIP3    H226073   2.772   1.689  12.060 -1.3425 -0.9440 -0.0908
 1528TIP3   OH226074   6.564   6.621  13.320  0.2218  0.1578  0.3053
 1528TIP3    H126075   6.575   6.570  13.400 -0.3442  1.2043  1.0740
 1528TIP3    H226076   6.602   6.706  13.340 -1.9930  1.2214  0.3107
 1529TIP3   OH226077   4.340   5.073  11.416 -0.0630  0.6239 -0.1821
 1529TIP3    H126078   4.429   5.078  11.381 -0.4281 -0.9595 -1.5043
 1529TIP3    H226079   4.284   5.083  11.339 -0.9655 -0.4872  0.2944
 1530TIP3   OH226080   0.096   4.722  11.006 -0.5353 -0.8193 -0.5404
 1530TIP3    H126081   0.152   4.764  10.941 -0.9291 -0.9823 -0.9922
 1530TIP3    H226082   0.048   4.655  10.957 -2.8342  0.8194 -0.7109
 1531TIP3   OH226083   5.597   3.506   1.659  0.5605 -0.1011 -0.0077
 1531TIP3    H126084   5.553   3.590   1.667 -1.4350 -1.0707 -0.1766
 1531TIP3    H226085   5.686   3.528   1.630 -0.2757  1.8777 -1.2606
 1532TIP3   OH226086   5.319   5.427   5.971  0.1201  0.2126 -0.2927
 1532TIP3    H126087   5.364   5.469   6.045 -0.3950  0.2406  0.0042
 1532TIP3    H226088   5.284   5.500   5.920 -0.1416  0.1690 -0.1754
 1533TIP3   OH226089   3.944   1.872  13.891 -0.1479  0.1667  0.1925
 1533TIP3    H126090   3.851   1.847  13.893 -0.2268  0.2172 -1.3874
 1533TIP3    H226091   3.986   1.804  13.839  0.9297 -0.4244  1.7686
 1534TIP3   OH226092   1.620   4.286   2.780  0.4158 -0.0761  0.0372
 1534TIP3    H126093   1.578   4.201   2.796 -0.2320 -0.2725 -2.3535
 1534TIP3    H226094   1.550   4.342   2.748  1.4325  0.3842 -1.4975
 1535TIP3   OH226095   2.683   3.716  12.597  0.7553  0.0710 -0.2614
 1535TIP3    H126096   2.639   3.716  12.683  1.8103 -0.7474  0.3026
 1535TIP3    H226097   2.775   3.699  12.617  1.0826  0.2361 -1.5382
 1536TIP3   OH226098   2.325   5.972   1.698  0.2381  0.4472 -0.0454
 1536TIP3    H126099   2.311   5.948   1.606 -0.2926 -1.7198  0.5459
 1536TIP3    H226100   2.238   5.973   1.736  0.6255 -1.2770  0.9897
 1537TIP3   OH226101   3.067   4.794   4.326  0.5210 -0.2917 -0.9341
 1537TIP3    H126102   3.107   4.765   4.245 -1.7342  0.8668 -2.5811
 1537TIP3    H226103   2.981   4.751   4.328  0.5029 -0.2543  0.8237
 1538TIP3   OH226104   2.925   2.804   2.037 -0.0193 -0.0366  0.3503
 1538TIP3    H126105   2.982   2.790   1.961  0.6635  0.5405  0.7424
 1538TIP3    H226106   2.912   2.899   2.040 -0.9806 -0.1532  0.2945
 1539TIP3   OH226107   3.495   4.057  15.271  0.1208 -0.0577  0.3067
 1539TIP3    H126108   3.589   4.045  15.257 -0.0011 -0.7004  0.0153
 1539TIP3    H226109   3.470   4.122  15.206  0.3586  0.0995  0.3698
 1540TIP3   OH226110   2.980   2.951   3.858  0.2658 -0.3300 -0.2833
 1540TIP3    H126111   3.029   2.993   3.928  0.4120 -0.4617 -0.3080
 1540TIP3    H226112   2.897   2.925   3.899  0.3762 -0.4637 -0.1443
 1541TIP3   OH226113   4.332   2.255   1.204  0.0647  0.1920 -0.5556
 1541TIP3    H126114   4.243   2.220   1.209  0.2586 -0.1753  0.6319
 1541TIP3    H226115   4.375   2.204   1.136 -0.5940  0.2990 -1.0617
 1542TIP3   OH226116   4.434   3.424   3.514  0.1442  0.1797  0.3457
 1542TIP3    H126117   4.407   3.422   3.422  0.4318  0.4296  0.2505
 1542TIP3    H226118   4.459   3.334   3.534 -1.1996 -0.1492  0.5810
 1543TIP3   OH226119   0.910   2.362  13.877  0.1892 -0.2980 -0.3279
 1543TIP3    H126120   0.860   2.376  13.957  0.8670  0.6685 -0.0506
 1543TIP3    H226121   0.845   2.364  13.807 -0.1403  1.5758 -0.0322
 1544TIP3   OH226122   4.903   1.458   1.407  0.2288  0.1736 -0.1607
 1544TIP3    H126123   4.963   1.532   1.403 -4.1081  4.1630  0.1278
 1544TIP3    H226124   4.891   1.432   1.315  1.3041  0.2264 -0.3268
 1545TIP3   OH226125   2.863   3.937   2.901 -0.3996  0.2254 -0.4326
 1545TIP3    H126126   2.777   3.968   2.930 -0.3311  1.3396 -1.3617
 1545TIP3    H226127   2.843   3.856   2.854 -0.8184 -0.0519  0.2012
 1546TIP3   OH226128   4.139   4.967   2.143 -0.3527  0.1597  0.8477
 1546TIP3    H126129   4.050   4.964   2.176 -1.4686 -0.1492 -1.8945
 1546TIP3    H226130   4.154   5.059   2.122 -1.2018 -0.1351 -1.3617
 1547TIP3   OH226131   4.261   3.560  14.584 -0.3584 -0.9288 -0.0524
 1547TIP3    H126132   4.214   3.643  14.581  1.4859  0.1976  0.4407
 1547TIP3    H226133   4.293   3.547  14.494 -0.5947 -1.0904 -0.1154
 1548TIP3   OH226134   5.824   4.303   1.370  0.1659  0.0067  0.0007
 1548TIP3    H126135   5.738   4.287   1.332  1.1073 -0.1066 -2.2298
 1548TIP3    H226136   5.810   4.297   1.465 -2.2421 -0.0508 -0.3020
 1549TIP3   OH226137   1.145   4.287   4.796  0.5515  0.0663 -0.5456
 1549TIP3    H126138   1.199   4.331   4.730 -0.9217 -0.2298 -2.0211
 1549TIP3    H226139   1.101   4.359   4.842 -0.3523  0.2491 -1.6354
 1550TIP3   OH226140   5.983   5.962   3.911  0.2248  0.1164 -0.6874
 1550TIP3    H126141   5.990   5.887   3.852  0.3279  0.3459 -0.9703
 1550TIP3    H226142   6.009   5.928   3.997 -1.0685 -0.5023 -0.5266
 1551TIP3   OH226143   5.472   3.455   2.760 -0.5683  0.2142  0.4323
 1551TIP3    H126144   5.436   3.540   2.735  0.4401  0.2119 -1.1675
 1551TIP3    H226145   5.500   3.416   2.678 -0.5191 -1.4539  1.2052
 1552TIP3   OH226146   3.564   3.104   0.659  0.4300  0.1817  0.4028
 1552TIP3    H126147   3.577   3.028   0.603 -1.6513  1.2009 -1.6321
 1552TIP3    H226148   3.521   3.069   0.737 -1.8084 -0.6380 -1.1059
 1553TIP3   OH226149   6.063   3.601   2.665  0.5685  0.0599 -0.6328
 1553TIP3    H126150   6.026   3.517   2.637 -2.1417  1.4882 -1.6902
 1553TIP3    H226151   6.129   3.621   2.598 -0.2443 -0.2751 -1.5516
 1554TIP3   OH226152   4.433   5.385  15.591 -0.0275 -0.3050 -0.2790
 1554TIP3    H126153   4.510   5.347  15.633  1.0623  1.7249 -0.3556
 1554TIP3    H226154   4.445   5.368  15.498 -0.6599 -1.6540 -0.1401
 1555TIP3   OH226155   2.188   5.769  13.411 -0.0116 -0.2659 -0.5131
 1555TIP3    H126156   2.109   5.743  13.365 -0.7979  0.2482  0.4926
 1555TIP3    H226157   2.199   5.703  13.479 -0.4066  0.4318  0.2515
 1556TIP3   OH226158   1.322   2.670   1.969  0.4728  0.0582 -0.0815
 1556TIP3    H126159   1.234   2.708   1.968  0.6526  0.4629 -0.6849
 1556TIP3    H226160   1.379   2.744   1.991  0.5542 -0.4493  1.5477
 1557TIP3   OH226161   4.623   4.946   2.638  0.1142  0.7559 -0.5640
 1557TIP3    H126162   4.554   4.985   2.583 -0.3649  0.6349 -0.0544
 1557TIP3    H226163   4.694   5.010   2.637  0.3426  0.5104 -1.7820
 1558TIP3   OH226164   5.378   4.937   6.496 -0.3883  0.5133 -0.0592
 1558TIP3    H126165   5.448   4.917   6.434  0.7153  0.7576  1.0662
 1558TIP3    H226166   5.378   5.032   6.503  0.8342  0.4329  1.7400
 1559TIP3   OH226167   5.573   2.515   0.742  0.4515  0.3674 -0.2653
 1559TIP3    H126168   5.652   2.495   0.692  1.7882  3.2386  0.4865
 1559TIP3    H226169   5.605   2.538   0.829 -1.4923 -0.8392  0.8511
 1560TIP3   OH226170   5.988   1.618  12.658 -0.4708  0.1045  0.0705
 1560TIP3    H126171   6.067   1.644  12.706  0.4913 -0.2749 -1.2246
 1560TIP3    H226172   5.929   1.584  12.725  1.1319 -1.1744  0.9174
 1561TIP3   OH226173   1.508   1.393   1.874  0.0369 -0.0793  0.6343
 1561TIP3    H126174   1.468   1.395   1.960  2.6302 -1.5146  2.0038
 1561TIP3    H226175   1.530   1.300   1.860 -0.0121  0.1690 -1.4363
 1562TIP3   OH226176   1.125   5.010  11.516  0.7853 -0.0143 -0.1682
 1562TIP3    H126177   1.072   5.060  11.578 -1.5722  0.8022 -2.6548
 1562TIP3    H226178   1.187   5.074  11.480  1.9824 -0.4314  1.0499
 1563TIP3   OH226179   5.765   1.522   1.866  0.4840  0.6905  0.5347
 1563TIP3    H126180   5.681   1.477   1.878  0.9665 -0.0949  1.0160
 1563TIP3    H226181   5.756   1.568   1.782  0.2853 -0.9861 -0.3967
 1564TIP3   OH226182   6.731   4.224   1.395 -0.3216 -0.4063 -0.2329
 1564TIP3    H126183   6.651   4.276   1.383  1.0042  1.5884 -0.9573
 1564TIP3    H226184   6.757   4.200   1.306  0.5662  0.1102 -0.1297
 1565TIP3   OH226185   5.056   6.415   1.111  0.0214 -0.2762  0.4168
 1565TIP3    H126186   5.094   6.386   1.194  1.6418 -1.8166 -0.7890
 1565TIP3    H226187   5.045   6.509   1.121 -0.7834 -0.5416  2.7152
 1566TIP3   OH226188   0.027   5.589  13.234  0.7695  0.6017 -0.1690
 1566TIP3    H126189   0.023   5.671  13.283  1.1227 -0.5435  1.9349
 1566TIP3    H226190   0.111   5.550  13.259  0.3824 -0.6352 -0.6903
 1567TIP3   OH226191   6.212   5.261  13.253  0.5856 -0.6006  0.1856
 1567TIP3    H126192   6.274   5.324  13.218 -0.1869  0.5356  0.8134
 1567TIP3    H226193   6.149   5.247  13.183  0.6805 -0.5663  0.0937
 1568TIP3   OH226194   2.054   4.274  16.109 -0.2546  0.0616  0.8544
 1568TIP3    H126195   2.061   4.369  16.120 -0.2782  0.3840 -1.5148
 1568TIP3    H226196   1.960   4.256  16.115 -0.2339  0.1524  1.4984
 1569TIP3   OH226197   6.125   0.873  12.388  0.5524 -0.4326 -0.5120
 1569TIP3    H126198   6.065   0.947  12.399 -0.0209 -1.0715  1.0551
 1569TIP3    H226199   6.212   0.912  12.397  0.2698  0.1268 -0.0778
 1570TIP3   OH226200   3.808   0.150   2.850 -0.2457  0.5489  0.2804
 1570TIP3    H126201   3.860   0.084   2.805 -0.8919  1.3527 -1.7522
 1570TIP3    H226202   3.804   0.120   2.941  3.1331  0.0875  0.3992
 1571TIP3   OH226203   0.026   4.039  12.308 -0.6880 -0.2431 -0.1344
 1571TIP3    H126204   0.015   3.994  12.391 -0.6495  0.9711  0.5535
 1571TIP3    H226205   0.112   4.011  12.276  0.1193  0.6504  1.1417
 1572TIP3   OH226206   6.492   1.140  15.868  0.3558  0.4308 -0.4886
 1572TIP3    H126207   6.573   1.153  15.918 -0.2313 -1.6380  1.1497
 1572TIP3    H226208   6.468   1.049  15.884 -2.3706  1.0095 -0.7946
 1573TIP3   OH226209   3.852   1.247   3.217  0.1393  0.1911  0.5374
 1573TIP3    H126210   3.836   1.338   3.243 -0.6460 -0.3486  2.0790
 1573TIP3    H226211   3.912   1.215   3.284 -0.3069 -0.6849  0.5202
 1574TIP3   OH226212   5.139   0.940   1.681 -0.5712  0.1389  0.3666
 1574TIP3    H126213   5.063   0.883   1.696 -2.6295  3.2107  3.0176
 1574TIP3    H226214   5.200   0.918   1.752 -0.8169  0.3844  0.6565
 1575TIP3   OH226215   4.487   0.560   2.083 -0.1365  0.2228 -0.5291
 1575TIP3    H126216   4.433   0.636   2.108  0.8407  0.9286 -0.4957
 1575TIP3    H226217   4.424   0.491   2.063 -1.0468  0.1300  2.2157
 1576TIP3   OH226218   3.476   3.270   1.796 -0.6140 -0.4994  0.2415
 1576TIP3    H126219   3.499   3.351   1.842  0.7890 -0.7877  0.0870
 1576TIP3    H226220   3.453   3.298   1.708  0.9429 -0.3465 -0.1427
 1577TIP3   OH226221   3.085   5.281   2.235  0.1197 -0.7359  0.5146
 1577TIP3    H126222   3.068   5.310   2.324  0.0058  1.6164 -0.2110
 1577TIP3    H226223   3.002   5.243   2.205 -0.2991 -0.1144  0.8852
 1578TIP3   OH226224   2.731   3.591  15.185 -0.1025  0.4187  0.1880
 1578TIP3    H126225   2.776   3.651  15.244 -0.9526  0.9506  0.3181
 1578TIP3    H226226   2.702   3.519  15.243 -0.6318  0.7684  0.3668
 1579TIP3   OH226227   5.848   0.010   5.530  0.2087  0.8501 -0.1170
 1579TIP3    H126228   5.804   0.025   5.614 -2.0366  0.2435 -1.0940
 1579TIP3    H226229   5.785  -0.042   5.479  1.2473  1.6576 -2.3732
 1580TIP3   OH226230   2.543   3.511   3.744 -0.0212 -0.4101 -0.1653
 1580TIP3    H126231   2.472   3.474   3.796 -0.1800  0.7240  0.4648
 1580TIP3    H226232   2.498   3.565   3.679  0.2465 -0.0849 -0.0828
 1581TIP3   OH226233   4.223   0.302   3.599  0.2708 -0.0682 -0.6695
 1581TIP3    H126234   4.162   0.376   3.591  0.4468  0.2774  0.8127
 1581TIP3    H226235   4.306   0.343   3.623  0.8419 -0.6248 -1.6318
 1582TIP3   OH226236   2.409   6.240  12.723 -0.2922 -0.2161 -0.6304
 1582TIP3    H126237   2.400   6.148  12.698  0.8739 -0.4521 -0.2244
 1582TIP3    H226238   2.387   6.288  12.644  1.2662 -0.9029 -1.5098
 1583TIP3   OH226239   6.048   4.334  15.226 -0.4418  0.7708 -0.3289
 1583TIP3    H126240   6.091   4.366  15.306 -0.4625 -0.3455  0.1440
 1583TIP3    H226241   5.956   4.323  15.251 -0.2738 -0.4734 -0.2181
 1584TIP3   OH226242   1.640   2.232   1.298  0.1448  0.1577  0.5266
 1584TIP3    H126243   1.682   2.155   1.336 -1.0863 -0.7076  0.1706
 1584TIP3    H226244   1.653   2.223   1.204  1.2550  1.1678  0.5450
 1585TIP3   OH226245   4.845   0.541   2.252 -0.4465  0.0878 -0.3775
 1585TIP3    H126246   4.878   0.452   2.249 -1.1651 -0.1797 -0.8479
 1585TIP3    H226247   4.923   0.596   2.260  0.1599 -0.4833 -1.9668
 1586TIP3   OH226248   3.980   3.162  13.543 -0.2586  0.2096 -0.3591
 1586TIP3    H126249   3.923   3.235  13.568  1.0124  1.1996 -0.2449
 1586TIP3    H226250   3.953   3.090  13.601 -2.7760 -0.0483 -1.7090
 1587TIP3   OH226251   4.524   1.317  10.913 -0.1774 -0.0132 -0.0246
 1587TIP3    H126252   4.478   1.384  10.863  0.6482  0.6010  0.0336
 1587TIP3    H226253   4.606   1.358  10.939  1.3848 -1.7597 -1.8923
 1588TIP3   OH226254   3.036   1.438  12.876 -0.6508  0.2552 -0.2020
 1588TIP3    H126255   3.121   1.434  12.919 -0.7000 -0.1332 -0.1390
 1588TIP3    H226256   3.023   1.350  12.840 -0.3465  0.7237 -1.5206
 1589TIP3   OH226257   1.289   1.422  17.189 -0.2659 -0.2127  0.1693
 1589TIP3    H126258   1.332   1.504  17.165 -1.7421  0.8662  0.9965
 1589TIP3    H226259   1.320   1.404  17.278 -1.1857  0.3668  0.6232
 1590TIP3   OH226260   6.665   2.390   0.392  0.1614  0.0877 -0.0422
 1590TIP3    H126261   6.723   2.334   0.445  1.3577  0.9132 -0.4424
 1590TIP3    H226262   6.659   2.345   0.308 -1.8856 -1.3207  0.7726
 1591TIP3   OH226263   1.581   1.737   5.185  0.4154  1.2999  0.2691
 1591TIP3    H126264   1.519   1.789   5.134  0.6441  2.6908  1.3497
 1591TIP3    H226265   1.653   1.720   5.124 -0.6379  0.3322 -0.7598
 1592TIP3   OH226266   1.626   6.634  11.802 -0.2614  0.2470  0.1414
 1592TIP3    H126267   1.695   6.685  11.758 -0.8372  0.8327 -0.0894
 1592TIP3    H226268   1.651   6.636  11.895  1.3163 -1.5368 -0.1752
 1593TIP3   OH226269   2.333   6.697   5.832 -0.1174  0.0669 -0.1197
 1593TIP3    H126270   2.389   6.633   5.875 -3.6962 -1.5462  2.7049
 1593TIP3    H226271   2.297   6.651   5.756 -1.5065 -0.8528  1.0427
 1594TIP3   OH226272   6.709   3.947  16.035  0.1467 -0.5962 -0.0738
 1594TIP3    H126273   6.678   3.869  16.081 -2.2712 -1.3643 -2.6716
 1594TIP3    H226274   6.746   3.913  15.953  0.3984  0.8847 -0.6035
 1595TIP3   OH226275   0.955   0.263   4.321  0.4061  0.6660  0.1600
 1595TIP3    H126276   0.996   0.278   4.236 -0.3019  1.1163 -0.1160
 1595TIP3    H226277   0.911   0.179   4.312  0.2487  0.7594  0.0399
 1596TIP3   OH226278   3.850   0.757  14.421 -0.7933 -0.4874  0.0001
 1596TIP3    H126279   3.938   0.743  14.385 -1.3667 -1.9495 -0.9147
 1596TIP3    H226280   3.804   0.805  14.352 -0.1371  2.2888  1.3567
 1597TIP3   OH226281   0.659   2.672  17.175 -0.1618 -0.6839 -0.4322
 1597TIP3    H126282   0.611   2.610  17.230  1.9998 -1.1850  0.9909
 1597TIP3    H226283   0.641   2.758  17.213 -0.4178 -0.7907 -0.3091
 1598TIP3   OH226284   2.349   5.999  12.617 -0.1210 -0.1330  0.3218
 1598TIP3    H126285   2.348   5.929  12.683  1.3538 -2.7138 -2.1969
 1598TIP3    H226286   2.282   5.973  12.554  0.0207  1.0971 -0.3555
 1599TIP3   OH226287   5.938   5.998  13.447  0.6833 -0.9040 -0.6234
 1599TIP3    H126288   5.910   5.907  13.435  0.4872 -0.8206 -0.8055
 1599TIP3    H226289   5.881   6.031  13.517 -0.5844 -0.3523 -1.8597
 1600TIP3   OH226290   3.772   0.319  11.764  0.7103 -0.1007  0.2656
 1600TIP3    H126291   3.827   0.242  11.751  1.3326 -0.3115  3.2774
 1600TIP3    H226292   3.686   0.283  11.787  0.5246  0.1411 -0.0463
 1601TIP3   OH226293   2.651   5.841  13.113  0.5397  0.0787  0.2609
 1601TIP3    H126294   2.716   5.771  13.107 -1.4764 -1.8708 -0.4477
 1601TIP3    H226295   2.598   5.818  13.190 -0.2521  0.7374 -0.0689
 1602TIP3   OH226296   0.629   3.008   0.115  0.3122  1.1328 -0.3045
 1602TIP3    H126297   0.541   2.983   0.086  0.3188 -0.0531  0.5803
 1602TIP3    H226298   0.620   3.098   0.147 -0.6530  0.9235  0.0357
 1603TIP3   OH226299   3.524   6.631  15.622  0.3428  0.4947 -0.2193
 1603TIP3    H126300   3.519   6.570  15.549 -0.9857  1.4543 -0.9586
 1603TIP3    H226301   3.498   6.715  15.586  0.4601  1.1659  1.1738
 1604TIP3   OH226302   6.421   3.356   0.813  0.8472 -0.0001 -0.0620
 1604TIP3    H126303   6.481   3.284   0.795  1.4525  0.3748  0.4115
 1604TIP3    H226304   6.477   3.432   0.827  0.2884  0.2855  0.7347
 1605TIP3   OH226305   2.527   0.750  15.315 -1.4095 -0.2135 -0.1730
 1605TIP3    H126306   2.439   0.715  15.327 -1.4997  0.0396 -0.0887
 1605TIP3    H226307   2.571   0.735  15.398 -1.7647  0.7680  0.2103
 1606TIP3   OH226308   4.205   3.297   0.673 -0.1044 -0.6383 -0.7640
 1606TIP3    H126309   4.164   3.230   0.728 -0.9132 -0.5209 -1.1962
 1606TIP3    H226310   4.154   3.376   0.691  1.1719  0.0128  0.1379
 1607TIP3   OH226311   4.880   4.379   0.177 -0.0554 -0.1464  0.0903
 1607TIP3    H126312   4.963   4.424   0.159 -0.0038  0.0660  0.8253
 1607TIP3    H226313   4.902   4.286   0.174  0.4542 -0.0860  1.3110
 1608TIP3   OH226314   1.009   4.325   5.621  0.3748  0.6303 -0.4115
 1608TIP3    H126315   0.927   4.373   5.618 -1.9104 -2.7675  0.8797
 1608TIP3    H226316   1.002   4.260   5.551  1.5140 -0.3342  0.3268
 1609TIP3   OH226317   0.048   2.238  10.722 -0.0506  0.1243  0.2896
 1609TIP3    H126318   0.113   2.307  10.706 -0.8507  0.4443 -1.9369
 1609TIP3    H226319   0.083   2.161  10.677 -1.6497  0.6206 -2.0194
 1610TIP3   OH226320   4.512   2.570   2.908  0.3014  0.3261 -0.0377
 1610TIP3    H126321   4.545   2.565   2.818  1.3214 -0.7517  0.3853
 1610TIP3    H226322   4.418   2.555   2.899  0.3803  0.3069 -0.9321
 1611TIP3   OH226323   0.725   1.519   2.548  0.4828 -0.1389  0.0315
 1611TIP3    H126324   0.732   1.478   2.461 -0.1093 -0.1074 -0.0342
 1611TIP3    H226325   0.782   1.466   2.604 -0.9075 -1.5930  0.1385
 1612TIP3   OH226326   5.602   2.909   3.217  0.0025  0.0484  0.0722
 1612TIP3    H126327   5.633   2.936   3.304 -0.4145 -0.3293  0.3456
 1612TIP3    H226328   5.629   2.980   3.159  1.6355 -0.3914  0.2312
 1613TIP3   OH226329   3.637   1.779   0.636  0.3077 -0.0133 -0.3492
 1613TIP3    H126330   3.570   1.749   0.575  0.6941 -0.3694 -0.6028
 1613TIP3    H226331   3.633   1.717   0.709 -1.3867  1.4490  0.8631
 1614TIP3   OH226332   5.374   5.057   2.806  0.0666  0.2778  0.1657
 1614TIP3    H126333   5.456   5.093   2.840  0.1015 -1.3590  1.9457
 1614TIP3    H226334   5.311   5.068   2.877 -0.7495 -0.2643 -0.4525
 1615TIP3   OH226335   1.788   6.252   3.576  0.5842 -0.1883 -0.3605
 1615TIP3    H126336   1.747   6.257   3.490  1.8030 -2.4559 -1.1697
 1615TIP3    H226337   1.842   6.173   3.573  1.0623 -0.0940  2.3369
 1616TIP3   OH226338   0.058   3.958  16.228  0.0173  0.3158 -0.7063
 1616TIP3    H126339   0.075   3.881  16.283  1.7681  1.2881  0.1818
 1616TIP3    H226340   0.001   3.924  16.158  0.1723 -1.6230  0.0250
 1617TIP3   OH226341   4.484   1.794  14.420  0.2102 -0.2558 -0.0621
 1617TIP3    H126342   4.555   1.751  14.466  0.9384  2.6797  1.8409
 1617TIP3    H226343   4.527   1.846  14.352 -0.4038 -0.5050 -0.6627
 1618TIP3   OH226344   4.633   3.993  11.231  0.2110  0.3785  1.0019
 1618TIP3    H126345   4.594   3.908  11.255 -1.7937 -0.0348 -2.9849
 1618TIP3    H226346   4.706   3.970  11.174 -0.6125  1.2672 -0.4530
 1619TIP3   OH226347   2.322   4.331   3.000 -0.0481 -0.3552 -0.0734
 1619TIP3    H126348   2.266   4.260   3.032 -0.5852 -1.1424 -2.5451
 1619TIP3    H226349   2.262   4.391   2.957  0.5671  1.0038  0.8906
 1620TIP3   OH226350   6.565   4.469  12.238 -0.2987 -0.1004 -0.0616
 1620TIP3    H126351   6.475   4.445  12.259 -1.4766  3.2622 -0.4987
 1620TIP3    H226352   6.607   4.484  12.323 -1.5340  2.3591  0.2046
 1621TIP3   OH226353   3.429   5.640   5.236  0.0604 -0.5916 -0.2586
 1621TIP3    H126354   3.336   5.661   5.225 -0.2243 -1.8768 -0.4478
 1621TIP3    H226355   3.468   5.658   5.150 -0.2983 -1.4047 -0.6002
 1622TIP3   OH226356   0.126   1.704   3.387  0.2209  0.2689 -0.0215
 1622TIP3    H126357   0.131   1.779   3.446  2.7515  0.8607 -0.8501
 1622TIP3    H226358   0.072   1.736   3.314  0.2935  0.8808  0.1820
 1623TIP3   OH226359   2.308   5.976  10.908  0.4649  0.1058 -0.1877
 1623TIP3    H126360   2.350   6.057  10.877 -0.0575 -0.2151 -1.8223
 1623TIP3    H226361   2.357   5.953  10.988  1.3390  1.4272 -0.3070
 1624TIP3   OH226362   6.604   0.579   3.377  0.2780  0.2763 -0.4177
 1624TIP3    H126363   6.564   0.570   3.291 -0.9852  0.2681  0.1614
 1624TIP3    H226364   6.675   0.642   3.363  0.9728 -0.7353 -1.7367
 1625TIP3   OH226365   6.253   5.054  14.239 -0.4257 -0.1115 -0.4904
 1625TIP3    H126366   6.225   5.059  14.330  0.8267 -3.2859  0.1826
 1625TIP3    H226367   6.315   5.127  14.229  0.7006 -0.6982  1.7150
 1626TIP3   OH226368   2.610   4.854  16.947  0.3528  0.2314  0.4779
 1626TIP3    H126369   2.689   4.904  16.925  0.1282  1.0512  1.4544
 1626TIP3    H226370   2.626   4.767  16.912  1.8009  0.3117  0.8679
 1627TIP3   OH226371   1.025   5.744   2.345 -0.3227  0.6533 -0.2751
 1627TIP3    H126372   0.995   5.832   2.322 -0.4122  0.6460 -0.1875
 1627TIP3    H226373   1.061   5.753   2.434 -2.6648  0.1037  0.8104
 1628TIP3   OH226374   4.703   5.589  16.088 -0.2338 -0.3932 -0.3688
 1628TIP3    H126375   4.627   5.582  16.030  0.4482  0.4896 -1.3881
 1628TIP3    H226376   4.668   5.630  16.168 -0.9915 -0.8200 -0.4626
 1629TIP3   OH226377   3.946   6.812   0.423 -0.5226  0.0422 -0.5165
 1629TIP3    H126378   3.927   6.754   0.349 -0.3118 -0.3400 -0.2730
 1629TIP3    H226379   3.997   6.759   0.483 -0.3160  0.4874 -0.2925
 1630TIP3   OH226380   4.704   1.190  16.180 -0.0512  0.0381  0.2815
 1630TIP3    H126381   4.783   1.229  16.145  1.2382 -0.7521  2.1589
 1630TIP3    H226382   4.643   1.263  16.189  0.1449  0.5385 -1.8666
 1631TIP3   OH226383   1.698   5.910   5.141  0.4341 -1.3181 -0.1854
 1631TIP3    H126384   1.765   5.905   5.210  1.0898 -0.9523 -0.7728
 1631TIP3    H226385   1.667   6.000   5.145  0.8711 -1.1369 -0.7162
 1632TIP3   OH226386   5.157   2.577  12.557  0.4768  0.1546  0.8086
 1632TIP3    H126387   5.148   2.486  12.586  0.3380  0.0964  0.5907
 1632TIP3    H226388   5.140   2.574  12.463  2.1603  0.1471  0.4765
 1633TIP3   OH226389   5.405   1.419  16.461  0.5720 -0.2491  0.2522
 1633TIP3    H126390   5.346   1.344  16.460 -0.8383  0.8022 -1.1571
 1633TIP3    H226391   5.479   1.393  16.406 -1.1116  0.2341 -2.3686
 1634TIP3   OH226392   1.862   4.307   2.561  0.7214 -0.5889 -0.4338
 1634TIP3    H126393   1.811   4.235   2.597 -0.3170 -0.6629 -1.9892
 1634TIP3    H226394   1.904   4.272   2.483  1.0903  0.1993 -0.6074
 1635TIP3   OH226395   3.414   3.702  15.039  0.0327  0.1261  0.1732
 1635TIP3    H126396   3.342   3.758  15.010  1.8140  1.9083 -1.0608
 1635TIP3    H226397   3.371   3.624  15.075 -2.4585  0.3241 -2.0968
 1636TIP3   OH226398   5.425   4.107  16.181 -0.2492  0.5127 -0.2701
 1636TIP3    H126399   5.495   4.148  16.131 -0.3736 -0.9158 -1.7101
 1636TIP3    H226400   5.416   4.020  16.142 -2.3645  0.4151  0.3176
 1637TIP3   OH226401   0.789   2.655  15.657  0.1616 -0.1940  0.4987
 1637TIP3    H126402   0.862   2.620  15.709  2.5750  2.3346 -0.9048
 1637TIP3    H226403   0.798   2.615  15.571 -0.6189 -0.4570  0.5300
 1638TIP3   OH226404   4.767   2.759  15.416  0.1307  0.2183 -0.2084
 1638TIP3    H126405   4.860   2.776  15.400 -0.0763  0.3486 -1.3344
 1638TIP3    H226406   4.753   2.791  15.506  1.0356  0.7468 -0.2341
 1639TIP3   OH226407   2.977   1.313   2.125 -0.0804 -0.0696  0.1694
 1639TIP3    H126408   3.069   1.287   2.120  0.0360  0.4977 -2.1764
 1639TIP3    H226409   2.979   1.402   2.160  0.4906  0.6749 -1.6308
 1640TIP3   OH226410   3.987   0.578  16.199 -0.3267  0.5424 -0.5111
 1640TIP3    H126411   4.063   0.627  16.230 -1.1777  0.6754  1.4487
 1640TIP3    H226412   3.912   0.635  16.215 -0.9921 -0.0445 -1.3755
 1641TIP3   OH226413   5.041   1.305   4.124  0.1460  0.1264  0.3621
 1641TIP3    H126414   4.967   1.258   4.162 -0.6393 -0.3256 -1.6128
 1641TIP3    H226415   5.014   1.397   4.127  0.5892  0.2386  1.8734
 1642TIP3   OH226416   4.997   6.712  14.444  0.1394 -0.7984  0.5621
 1642TIP3    H126417   5.000   6.673  14.531  1.5776 -0.6968  0.5905
 1642TIP3    H226418   5.045   6.794  14.453 -0.0558 -0.5932 -0.2229
 1643TIP3   OH226419   2.951   3.947  12.852 -0.3249 -0.1350 -0.2117
 1643TIP3    H126420   2.883   3.927  12.917  0.6799 -0.8617  0.6587
 1643TIP3    H226421   2.906   3.940  12.768 -1.4865  0.0847  0.3589
 1644TIP3   OH226422   0.450   0.402   5.069 -0.5764  0.0751  0.6404
 1644TIP3    H126423   0.499   0.442   5.141  1.8393 -2.0733  0.3523
 1644TIP3    H226424   0.396   0.335   5.112  0.0095 -0.4343  0.6063
 1645TIP3   OH226425   2.493   3.963  13.152 -0.2120  0.0861  0.1112
 1645TIP3    H126426   2.418   4.022  13.159 -0.6100 -0.2749 -0.9605
 1645TIP3    H226427   2.463   3.880  13.188  0.6739  0.7624  2.6110
 1646TIP3   OH226428   0.406   6.236  12.767 -0.2470 -0.2408 -0.2211
 1646TIP3    H126429   0.384   6.263  12.678 -0.6774 -0.2126 -0.1089
 1646TIP3    H226430   0.324   6.204  12.803 -0.1376  0.0140  0.2634
 1647TIP3   OH226431   4.252   3.836   4.068 -0.6371  0.3772 -0.0815
 1647TIP3    H126432   4.204   3.918   4.056 -0.1418  0.6750 -0.0556
 1647TIP3    H226433   4.198   3.786   4.129 -0.3320  1.2010  0.8968
 1648TIP3   OH226434   4.081   0.596  15.774 -0.3555 -0.1695 -0.0690
 1648TIP3    H126435   4.046   0.618  15.860 -2.0316  2.1164 -1.2156
 1648TIP3    H226436   4.097   0.681  15.733 -0.3996 -1.1735 -2.3095
 1649TIP3   OH226437   6.322   0.556   2.456  0.1197  0.3665  0.0973
 1649TIP3    H126438   6.288   0.470   2.431  1.0000  0.2780 -0.8860
 1649TIP3    H226439   6.322   0.555   2.551 -0.1016 -0.6359  0.1008
 1650TIP3   OH226440   4.220   1.565  14.260  0.0374 -0.4343 -0.1477
 1650TIP3    H126441   4.172   1.576  14.179 -0.2287 -1.5496 -0.1576
 1650TIP3    H226442   4.312   1.563  14.234 -0.0149 -0.2101 -0.3492
 1651TIP3   OH226443   3.244   6.789  13.864 -0.6478  0.3218 -0.3567
 1651TIP3    H126444   3.158   6.825  13.884 -0.6341 -0.4048  1.2160
 1651TIP3    H226445   3.306   6.851  13.902 -0.5763 -0.4405  0.8184
 1652TIP3   OH226446   3.012   4.230   3.465  0.4330  0.1418 -0.2119
 1652TIP3    H126447   2.928   4.198   3.432 -0.1860  0.4713  1.0041
 1652TIP3    H226448   3.015   4.321   3.435 -0.2484  0.5206  0.8147
 1653TIP3   OH226449   1.860   1.311  15.001 -0.5265 -0.1947  0.5242
 1653TIP3    H126450   1.897   1.225  14.983 -0.8906 -0.1439 -0.5556
 1653TIP3    H226451   1.770   1.306  14.967 -1.4105 -0.1722  2.6627
 1654TIP3   OH226452   1.132   1.796  16.991  0.2054  0.6787 -0.0887
 1654TIP3    H126453   1.184   1.867  17.030 -0.5083  0.3190  1.5959
 1654TIP3    H226454   1.083   1.760  17.064 -2.1386  0.7314 -1.5470
 1655TIP3   OH226455   3.921   2.513   5.287 -0.5655  0.1986  0.1369
 1655TIP3    H126456   3.937   2.558   5.370  1.3389 -0.0673 -0.0349
 1655TIP3    H226457   3.914   2.583   5.222 -0.2088  0.3571  0.2636
 1656TIP3   OH226458   2.172   4.024  14.624 -0.0002  0.3420 -0.2779
 1656TIP3    H126459   2.089   4.040  14.669 -1.0125 -0.2930 -1.8187
 1656TIP3    H226460   2.218   4.107  14.629 -1.2527  1.0712 -0.3915
 1657TIP3   OH226461   5.043   5.599   0.186 -0.3188  0.3549  0.0523
 1657TIP3    H126462   5.087   5.635   0.109  1.5970  1.7756  1.7041
 1657TIP3    H226463   4.958   5.644   0.188  0.0181  1.0473 -0.6791
 1658TIP3   OH226464   5.966   3.272   4.704  0.2635 -0.1848 -0.7195
 1658TIP3    H126465   6.052   3.235   4.724 -0.0988 -0.5471  0.1738
 1658TIP3    H226466   5.908   3.197   4.695 -0.2065  0.1040 -0.1666
 1659TIP3   OH226467   4.272   6.046   5.690 -0.1817 -0.1538  0.9764
 1659TIP3    H126468   4.367   6.048   5.704 -0.0684 -0.0211  0.2194
 1659TIP3    H226469   4.243   6.136   5.708  0.1866  0.4236 -1.0313
 1660TIP3   OH226470   4.478   5.684  13.850 -0.0262  0.4591  0.3586
 1660TIP3    H126471   4.473   5.627  13.927 -0.4445 -0.0095 -0.0107
 1660TIP3    H226472   4.394   5.729  13.848 -0.9706 -1.2700 -1.1403
 1661TIP3   OH226473   6.191   4.071   4.743 -0.4546 -0.0100 -0.1098
 1661TIP3    H126474   6.160   4.028   4.823  0.1487  0.6094  0.4774
 1661TIP3    H226475   6.116   4.122   4.713 -1.7841 -2.7023 -1.7978
 1662TIP3   OH226476   1.228   3.686  12.411  0.2680  0.5123  0.5521
 1662TIP3    H126477   1.245   3.634  12.489 -0.4499 -1.8710 -0.7573
 1662TIP3    H226478   1.134   3.704  12.414  0.3970  1.1834  0.6668
 1663TIP3   OH226479   0.019   0.154  15.490 -0.0105  0.9097 -0.0868
 1663TIP3    H126480   0.022   0.099  15.411 -1.3802  1.7182 -0.7356
 1663TIP3    H226481   0.066   0.103  15.556  0.9362  0.0867 -1.3441
 1664TIP3   OH226482   0.405   2.329   4.117 -0.0181  0.5664 -0.4982
 1664TIP3    H126483   0.334   2.286   4.167 -0.8772  0.6255 -1.6318
 1664TIP3    H226484   0.387   2.307   4.026 -0.0014  2.6491 -1.0538
 1665TIP3   OH226485   5.864   5.384   4.375  0.3426 -0.4383 -0.1645
 1665TIP3    H126486   5.949   5.423   4.398  1.4629 -3.0272  0.4245
 1665TIP3    H226487   5.825   5.446   4.314  2.0389  1.4939  0.6075
 1666TIP3   OH226488   5.679   3.238  15.722  0.3117  0.3787 -0.1053
 1666TIP3    H126489   5.714   3.321  15.754  1.9183 -0.4839  0.5070
 1666TIP3    H226490   5.642   3.260  15.636 -0.4905  1.9602  0.6013
 1667TIP3   OH226491   2.898   1.657  12.206  0.0898  0.4656  0.0482
 1667TIP3    H126492   2.884   1.667  12.300 -0.0695  0.7881 -0.0095
 1667TIP3    H226493   2.992   1.639  12.197 -0.0784 -0.6617  0.3494
 1668TIP3   OH226494   1.676   2.529   0.890  0.1007  0.6240  0.6407
 1668TIP3    H126495   1.662   2.539   0.796  0.7727 -0.6133  0.3826
 1668TIP3    H226496   1.770   2.544   0.902 -0.1993  2.1217  1.3363
 1669TIP3   OH226497   4.551   3.467  12.922 -0.1300  0.2081  0.6958
 1669TIP3    H126498   4.556   3.374  12.902 -1.1656  0.9107 -3.7564
 1669TIP3    H226499   4.485   3.474  12.991 -2.3896 -2.1676 -1.0811
 1670TIP3   OH226500   6.435   4.282   0.997  0.3361  0.2291 -0.4551
 1670TIP3    H126501   6.415   4.376   0.994  1.8799  0.5475 -2.8659
 1670TIP3    H226502   6.461   4.260   0.908 -1.1761 -2.8138 -0.2738
 1671TIP3   OH226503   4.874   3.472  15.206  0.0909  0.0679 -0.3415
 1671TIP3    H126504   4.925   3.409  15.156  0.3676 -1.5276  1.8284
 1671TIP3    H226505   4.792   3.426  15.226  0.1094  0.5282  0.8948
 1672TIP3   OH226506   3.795   1.799  10.810  0.3203  0.2050  0.0060
 1672TIP3    H126507   3.777   1.730  10.875  0.2096  0.3854  0.1707
 1672TIP3    H226508   3.750   1.769  10.731 -0.5119  0.5304  0.3446
 1673TIP3   OH226509   3.348   0.593   4.442 -0.1271 -0.2256  0.0770
 1673TIP3    H126510   3.301   0.519   4.479  0.5166 -1.4573 -1.4635
 1673TIP3    H226511   3.284   0.636   4.384 -1.6597  2.6534  3.5092
 1674TIP3   OH226512   5.443   1.917  14.086  0.2059  0.1498  0.3926
 1674TIP3    H126513   5.527   1.900  14.044 -0.2310  1.8342 -1.2627
 1674TIP3    H226514   5.460   1.989  14.147  0.0282  0.2924  0.2755
 1675TIP3   OH226515   0.584   1.103   4.171  0.2187  0.2102  0.3369
 1675TIP3    H126516   0.625   1.099   4.257  1.3486  4.3852  0.2073
 1675TIP3    H226517   0.626   1.033   4.121  1.9445 -0.2173  2.2719
 1676TIP3   OH226518   2.552   6.021  12.409 -0.4906  0.0830 -0.1334
 1676TIP3    H126519   2.474   6.009  12.464 -1.1554  0.0548 -1.0483
 1676TIP3    H226520   2.546   6.111  12.378 -0.8159 -0.2710 -1.1543
 1677TIP3   OH226521   2.550   0.308   1.449 -0.3086 -0.1974 -0.5706
 1677TIP3    H126522   2.643   0.327   1.444 -0.7870  2.7297 -0.2189
 1677TIP3    H226523   2.528   0.318   1.541 -0.7852 -2.1975 -0.4190
 1678TIP3   OH226524   6.188   3.937   3.052  0.8246  0.6823 -0.1367
 1678TIP3    H126525   6.190   3.842   3.049 -3.0230  0.4280  0.1614
 1678TIP3    H226526   6.207   3.959   3.143  1.2132  0.1899 -0.0971
 1679TIP3   OH226527   1.476   4.639  14.882  0.5644 -0.1753  0.0042
 1679TIP3    H126528   1.482   4.734  14.897 -1.2820  0.0379 -0.3350
 1679TIP3    H226529   1.556   4.617  14.835  1.9227  0.8532  1.6863
 1680TIP3   OH226530   1.483   0.242   4.326  0.3089 -0.1170 -0.5309
 1680TIP3    H126531   1.448   0.323   4.290  0.1181  0.9551  1.8350
 1680TIP3    H226532   1.577   0.247   4.309  0.3101  0.6509 -0.3303
 1681TIP3   OH226533   5.213   3.538   4.720  0.5691  0.1795  0.2603
 1681TIP3    H126534   5.264   3.599   4.773  1.3655 -0.7230  0.5496
 1681TIP3    H226535   5.129   3.532   4.764  0.3842  1.2398  0.0960
 1682TIP3   OH226536   4.811   6.724  11.081  0.9196 -0.0344  0.2836
 1682TIP3    H126537   4.796   6.751  10.991 -2.4258 -2.1986  0.0401
 1682TIP3    H226538   4.858   6.641  11.074  2.6527  0.8513  0.7102
 1683TIP3   OH226539   1.006   4.402  10.682  0.5962  0.5604 -0.1539
 1683TIP3    H126540   1.075   4.337  10.694  2.4584  2.4968  0.1206
 1683TIP3    H226541   1.047   4.486  10.701 -1.9013  1.8144  0.2351
 1684TIP3   OH226542   0.787   4.270  11.377  0.2563 -0.6883  0.2705
 1684TIP3    H126543   0.763   4.180  11.355  0.5385 -0.3110 -1.8216
 1684TIP3    H226544   0.729   4.294  11.449 -0.4032 -2.2722  0.2979
 1685TIP3   OH226545   6.802   3.068  16.279  0.3866  0.0331  0.1231
 1685TIP3    H126546   6.758   3.016  16.212  0.3329  0.7627 -0.4223
 1685TIP3    H226547   6.779   3.025  16.362 -1.2694  0.3361 -0.1501
 1686TIP3   OH226548   0.168   4.961  14.395  0.2124  0.6840 -0.0709
 1686TIP3    H126549   0.124   4.880  14.367  1.7692 -0.0637 -0.4801
 1686TIP3    H226550   0.200   4.942  14.483 -0.0762  1.1408  0.1371
 1687TIP3   OH226551   6.713   5.127   4.731  0.7222  0.3117 -0.3263
 1687TIP3    H126552   6.723   5.208   4.781  1.9106 -0.4253  0.7052
 1687TIP3    H226553   6.733   5.152   4.641 -2.3343  1.8537 -0.6907
 1688TIP3   OH226554   3.191   0.225   6.092  0.5124 -0.4687  0.8579
 1688TIP3    H126555   3.161   0.135   6.087  0.1259 -0.2849 -0.3530
 1688TIP3    H226556   3.160   0.256   6.177 -2.4048 -0.4417 -0.1072
 1689TIP3   OH226557   5.915   5.871  14.010  0.1400 -0.1764 -0.0917
 1689TIP3    H126558   5.849   5.932  14.041 -0.3560 -1.2709  1.0995
 1689TIP3    H226559   5.960   5.918  13.940 -0.4682  1.3942  0.5254
 1690TIP3   OH226560   1.741   2.859   3.305 -0.2787 -0.0782  0.1461
 1690TIP3    H126561   1.764   2.929   3.244 -2.5842 -0.4402 -1.2920
 1690TIP3    H226562   1.723   2.904   3.388 -1.8203  1.1136 -0.7710
 1691TIP3   OH226563   3.584   6.718  16.049  0.1383 -0.4453 -0.2129
 1691TIP3    H126564   3.600   6.776  15.975  0.8455 -0.8767 -0.4093
 1691TIP3    H226565   3.672   6.693  16.080 -0.1430 -1.6314 -0.3150
 1692TIP3   OH226566   3.914   4.153   1.126  0.0678 -0.0051 -0.0257
 1692TIP3    H126567   3.973   4.141   1.052 -0.7220 -0.4029 -0.6118
 1692TIP3    H226568   3.903   4.248   1.134  2.6247  0.2417  1.6165
 1693TIP3   OH226569   2.550   1.453  12.455  0.1195  0.0053  0.2266
 1693TIP3    H126570   2.479   1.516  12.448 -0.8170 -1.0972 -0.6267
 1693TIP3    H226571   2.573   1.433  12.364  1.7511  0.5637  0.4762
 1694TIP3   OH226572   2.123   5.324  16.931  0.5367 -0.5642 -0.5823
 1694TIP3    H126573   2.099   5.283  17.014 -2.6109 -0.0807 -1.1298
 1694TIP3    H226574   2.170   5.255  16.883 -0.1134 -1.8033  0.5030
 1695TIP3   OH226575   3.949   2.854  14.114 -0.1230  0.1040  0.1957
 1695TIP3    H126576   3.991   2.780  14.158  0.8101 -0.1177 -1.0152
 1695TIP3    H226577   3.927   2.821  14.027  0.6671  1.3578 -0.5051
 1696TIP3   OH226578   3.076   3.334  12.932  0.3582 -0.0130  0.1944
 1696TIP3    H126579   3.051   3.375  13.014  0.7206  1.6651 -0.4922
 1696TIP3    H226580   3.045   3.394  12.864  1.3886 -0.5948 -0.8388
 1697TIP3   OH226581   6.555   3.872   2.027 -0.1118 -0.1619 -0.5100
 1697TIP3    H126582   6.622   3.928   2.066 -0.2448 -0.0755 -0.4039
 1697TIP3    H226583   6.551   3.900   1.936 -2.1897  2.0091  0.1486
 1698TIP3   OH226584   1.818   5.977  10.762  0.3231  0.1513 -0.0794
 1698TIP3    H126585   1.786   5.916  10.695  0.9435 -0.6013  0.3025
 1698TIP3    H226586   1.748   6.042  10.770  0.0424 -0.0018 -1.1313
 1699TIP3   OH226587   4.326   0.837  11.225 -0.9022 -0.6991 -0.2724
 1699TIP3    H126588   4.258   0.905  11.219  0.3172  0.5568 -0.2392
 1699TIP3    H226589   4.296   0.769  11.164 -2.1467 -0.1487 -0.3183
 1700TIP3   OH226590   1.649   6.456   1.080  0.0680  0.2881  0.4383
 1700TIP3    H126591   1.682   6.436   1.167 -1.1026 -0.7030  0.6766
 1700TIP3    H226592   1.716   6.512   1.041  1.2965 -0.4482  1.4300
 1701TIP3   OH226593   5.482   2.453  15.440 -0.0478 -0.0598 -0.5499
 1701TIP3    H126594   5.553   2.443  15.376  1.4526  0.2098  1.0019
 1701TIP3    H226595   5.486   2.373  15.492  0.0490  0.5970  0.4583
 1702TIP3   OH226596   6.082   3.279   5.314 -0.4552  0.0201  0.4311
 1702TIP3    H126597   6.080   3.374   5.323 -0.7918  0.2774 -1.8390
 1702TIP3    H226598   6.159   3.251   5.365  0.6789  1.6857 -0.2955
 1703TIP3   OH226599   0.765   3.785  16.649  0.1757 -0.4466  0.0064
 1703TIP3    H126600   0.689   3.727  16.644 -0.4831 -0.1168  3.6975
 1703TIP3    H226601   0.789   3.786  16.741  4.2138  0.1469 -0.8624
 1704TIP3   OH226602   5.604   6.424   2.604  0.2501  0.0067  0.6077
 1704TIP3    H126603   5.657   6.500   2.579  1.0088 -0.9889 -1.0035
 1704TIP3    H226604   5.630   6.405   2.694  0.1625  1.5376  0.9826
 1705TIP3   OH226605   6.101   0.800   1.276 -0.5046  0.2141  0.5311
 1705TIP3    H126606   6.098   0.871   1.340  1.8292 -0.5582  1.6092
 1705TIP3    H226607   6.047   0.831   1.204 -0.7324  2.4640  1.5673
 1706TIP3   OH226608   1.548   2.911   0.750  0.4075 -0.4028  0.9910
 1706TIP3    H126609   1.473   2.933   0.805 -0.0905  0.3452  0.0457
 1706TIP3    H226610   1.571   2.993   0.706  1.1739 -0.8417  0.5525
 1707TIP3   OH226611   5.095   4.772   0.520 -0.1185  0.7062  0.6368
 1707TIP3    H126612   5.107   4.770   0.615 -0.0882  0.9742  0.6395
 1707TIP3    H226613   5.010   4.814   0.507 -0.8026 -0.6654  0.5928
 1708TIP3   OH226614   2.150   0.389   3.333  0.0816 -0.3602  0.7887
 1708TIP3    H126615   2.148   0.441   3.252  1.1488  1.3765  1.8178
 1708TIP3    H226616   2.067   0.411   3.377 -0.1053 -0.6270  0.5697
 1709TIP3   OH226617   4.784   2.757   3.220  0.1806  0.7219  0.3871
 1709TIP3    H126618   4.758   2.771   3.129  1.2017 -2.9318 -0.6129
 1709TIP3    H226619   4.879   2.766   3.220  0.1287  1.5902  1.3662
 1710TIP3   OH226620   1.653   0.470  15.713  0.5192  0.2744 -0.8402
 1710TIP3    H126621   1.707   0.400  15.677  1.1833  0.9378 -1.1616
 1710TIP3    H226622   1.563   0.436  15.709  0.8750 -0.7699 -0.4718
 1711TIP3   OH226623   1.406   3.683   5.089  0.0034  0.2009 -0.5337
 1711TIP3    H126624   1.312   3.667   5.079  0.1008 -0.2645 -0.7032
 1711TIP3    H226625   1.436   3.616   5.150 -0.0070  1.1250  0.5098
 1712TIP3   OH226626   6.603   4.437   1.221  0.2251 -0.1461 -0.1607
 1712TIP3    H126627   6.590   4.530   1.240  0.4941 -0.4601  1.6819
 1712TIP3    H226628   6.517   4.398   1.235  0.0069 -0.1305 -1.3642
 1713TIP3   OH226629   4.506   4.786  16.268 -0.3562 -0.1211 -0.0079
 1713TIP3    H126630   4.593   4.774  16.229  0.6291  3.3537  0.7855
 1713TIP3    H226631   4.519   4.772  16.361 -1.4666 -2.7313 -0.1537
 1714TIP3   OH226632   5.305   2.600   2.464  0.4008  0.0948 -0.2538
 1714TIP3    H126633   5.286   2.636   2.377 -0.6544 -2.5534 -1.2158
 1714TIP3    H226634   5.323   2.508   2.448 -1.7092 -0.9240  2.5177
 1715TIP3   OH226635   2.676   2.224  11.265  0.1217 -0.2862  0.0716
 1715TIP3    H126636   2.689   2.316  11.243  1.1868 -0.2494  0.7706
 1715TIP3    H226637   2.697   2.219  11.359 -1.7829 -0.8906  0.5108
 1716TIP3   OH226638   4.217   5.610  15.082 -0.5170  0.5664  0.0302
 1716TIP3    H126639   4.308   5.621  15.054 -0.7901 -0.2150 -1.2628
 1716TIP3    H226640   4.181   5.699  15.080  0.4885  1.0576  1.6678
 1717TIP3   OH226641   4.604   5.938   2.685 -0.5740 -0.2476 -0.1536
 1717TIP3    H126642   4.668   5.912   2.619 -1.4820 -1.1322 -0.7116
 1717TIP3    H226643   4.643   6.014   2.728  1.0162 -0.9838 -0.2255
 1718TIP3   OH226644   1.821   1.634   0.028  0.0728  0.1516  0.6710
 1718TIP3    H126645   1.877   1.571  -0.018  1.0257  0.6200  1.1566
 1718TIP3    H226646   1.800   1.700  -0.038  0.8321  0.4338  0.6961
 1719TIP3   OH226647   3.812   5.875  16.934 -0.0487 -0.8267  0.0594
 1719TIP3    H126648   3.882   5.863  16.870 -0.5823 -0.0508 -0.6947
 1719TIP3    H226649   3.736   5.833  16.894  0.0895 -2.1223  1.1040
 1720TIP3   OH226650   0.413   2.547   2.969  0.2843 -0.1764  0.3155
 1720TIP3    H126651   0.341   2.609   2.957  0.2451 -0.5843 -2.0929
 1720TIP3    H226652   0.486   2.586   2.920  0.7780 -1.1969  0.2246
 1721TIP3   OH226653   5.884   3.851  15.865 -0.6190 -0.1817 -0.1489
 1721TIP3    H126654   5.859   3.758  15.861  1.2493 -0.6669 -2.4818
 1721TIP3    H226655   5.803   3.898  15.846 -1.1635 -1.4345 -1.0639
 1722TIP3   OH226656   4.727   0.846  11.092 -0.4626 -0.2720 -0.1864
 1722TIP3    H126657   4.685   0.931  11.105  0.9973  1.2369 -3.8787
 1722TIP3    H226658   4.693   0.815  11.008  1.8125 -1.5109 -0.7294
 1723TIP3   OH226659   3.954   3.086   0.110 -0.2904  0.5725  0.2027
 1723TIP3    H126660   3.869   3.119   0.137 -0.5524  0.3579 -0.3343
 1723TIP3    H226661   3.938   3.047   0.023  0.2329  0.0237  0.3436
 1724TIP3   OH226662   2.661   6.794   0.925 -0.4777  0.0596 -0.3636
 1724TIP3    H126663   2.670   6.757   1.012 -0.1330 -0.1859 -0.5049
 1724TIP3    H226664   2.673   6.720   0.865 -1.0401  0.1604 -0.6131
 1725TIP3   OH226665   5.175   5.989   0.724 -0.5036  0.4182 -0.0223
 1725TIP3    H126666   5.245   6.051   0.704 -0.9041  0.6631 -0.7228
 1725TIP3    H226667   5.199   5.909   0.677  0.1961 -0.0882  1.1747
 1726TIP3   OH226668   3.300   5.751   5.820 -0.9641  0.1805  0.5047
 1726TIP3    H126669   3.277   5.692   5.892 -1.5591  1.2828  1.2559
 1726TIP3    H226670   3.357   5.817   5.861 -1.8995  1.2367  0.1562
 1727TIP3   OH226671   1.999   5.589  14.288 -0.4188  0.0222 -0.1009
 1727TIP3    H126672   2.025   5.669  14.243 -0.3777 -0.5493 -1.1220
 1727TIP3    H226673   1.967   5.619  14.373  0.8815  0.9902  0.0702
 1728TIP3   OH226674   6.674   0.060  11.394  0.0988 -0.0321  0.8797
 1728TIP3    H126675   6.764   0.086  11.410  1.0366 -1.5734 -1.3752
 1728TIP3    H226676   6.646   0.112  11.319 -0.4772 -0.3963  0.8293
 1729TIP3   OH226677   1.925   4.624   4.621 -0.3901 -0.1009 -0.3750
 1729TIP3    H126678   1.891   4.568   4.551 -1.2940  0.4244 -0.3795
 1729TIP3    H226679   1.879   4.593   4.700 -0.1274 -0.0328 -0.1954
 1730TIP3   OH226680   1.808   5.866  16.926 -0.3198 -0.0657  0.1705
 1730TIP3    H126681   1.849   5.951  16.936  2.3404 -1.2708  0.2572
 1730TIP3    H226682   1.838   5.834  16.841 -0.7923 -1.1567  0.3948
 1731TIP3   OH226683   1.817   3.750   2.111 -0.4892  0.0368 -0.0761
 1731TIP3    H126684   1.894   3.765   2.056 -1.3682  2.3792 -0.8164
 1731TIP3    H226685   1.752   3.712   2.051 -0.6829  0.3418 -0.0597
 1732TIP3   OH226686   6.496   2.722  14.983 -0.1244 -0.6886 -0.3368
 1732TIP3    H126687   6.572   2.700  15.038  0.0215 -2.3586 -1.1306
 1732TIP3    H226688   6.529   2.785  14.920 -0.5119  2.0112  1.9544
 1733TIP3   OH226689   6.484   0.894   3.462  0.5336 -0.4532  0.0420
 1733TIP3    H126690   6.494   0.860   3.373  0.9035 -1.6124  0.5105
 1733TIP3    H226691   6.534   0.834   3.516 -0.1786 -0.1100  1.1146
 1734TIP3   OH226692   3.516   4.313   5.266  0.0078  0.2157 -0.1356
 1734TIP3    H126693   3.481   4.294   5.353  3.1722 -0.5634  1.1247
 1734TIP3    H226694   3.547   4.404   5.272 -0.6011  0.4721 -0.7823
 1735TIP3   OH226695   2.139   4.564   5.945 -0.0601  0.4186 -0.8015
 1735TIP3    H126696   2.058   4.519   5.969  0.6356 -0.8232 -0.7285
 1735TIP3    H226697   2.127   4.653   5.979 -0.7145 -0.2021  0.6947
 1736TIP3   OH226698   2.988   0.152   2.191  0.2035 -0.5455  0.1410
 1736TIP3    H126699   2.967   0.100   2.113 -0.0887 -2.0806  1.1875
 1736TIP3    H226700   2.909   0.146   2.246  1.0456 -1.0804  1.3558
 1737TIP3   OH226701   2.458   5.913   3.288 -0.2853 -0.4269  0.4116
 1737TIP3    H126702   2.443   5.932   3.381  0.2371  0.3279  0.3519
 1737TIP3    H226703   2.411   5.831   3.272  1.0331 -1.4912  1.7493
 1738TIP3   OH226704   6.676   0.477  16.030  0.2238 -0.2204 -0.3121
 1738TIP3    H126705   6.667   0.566  15.997  1.5280  0.8240  1.9521
 1738TIP3    H226706   6.618   0.474  16.107 -0.3267 -1.5650 -0.7418
 1739TIP3   OH226707   2.847   0.566   3.928  0.7061  0.3405  0.2305
 1739TIP3    H126708   2.778   0.620   3.968  1.8682  1.1173  1.2873
 1739TIP3    H226709   2.840   0.584   3.835 -0.8853 -0.0544  0.2419
 1740TIP3   OH226710   0.321   1.299   0.445  0.0105  0.3192 -0.5193
 1740TIP3    H126711   0.396   1.245   0.469 -2.9614 -2.4815  3.9164
 1740TIP3    H226712   0.330   1.377   0.500  1.0334  1.4709 -2.2205
 1741TIP3   OH226713   4.518   0.522   2.686 -0.3877  0.0776  0.2821
 1741TIP3    H126714   4.610   0.507   2.663 -0.3856 -0.4860  0.6477
 1741TIP3    H226715   4.485   0.578   2.616 -0.2096 -1.0901 -0.7567
 1742TIP3   OH226716   0.900   0.993  16.798  0.1846 -0.7820 -0.4014
 1742TIP3    H126717   0.927   1.028  16.883 -2.6804  2.0274 -0.4396
 1742TIP3    H226718   0.917   0.899  16.805  1.4754 -0.4687  2.6690
 1743TIP3   OH226719   0.846   2.631   5.081  0.1165  0.0543  0.0453
 1743TIP3    H126720   0.868   2.607   5.171  1.6251  1.2613  0.0316
 1743TIP3    H226721   0.832   2.548   5.036  0.4645 -0.5979  1.1213
 1744TIP3   OH226722   3.624   5.424  15.685 -0.1470 -0.1593  0.0698
 1744TIP3    H126723   3.682   5.436  15.610  1.5621 -0.2013  1.3389
 1744TIP3    H226724   3.652   5.489  15.749 -1.0462 -0.6427  0.9930
 1745TIP3   OH226725   4.618   1.155  16.769 -0.2110 -0.0103 -0.5938
 1745TIP3    H126726   4.646   1.155  16.860 -0.0970 -0.6730 -0.6274
 1745TIP3    H226727   4.692   1.192  16.721  0.0216 -0.3706 -0.5090
 1746TIP3   OH226728   5.315   4.485   5.369 -0.2185  0.5833  0.7097
 1746TIP3    H126729   5.320   4.433   5.449  0.9054  0.6964  0.7276
 1746TIP3    H226730   5.399   4.530   5.364 -0.0978  0.2551 -0.7521
 1747TIP3   OH226731   6.678   5.324  14.928 -0.4261 -0.0230  0.0252
 1747TIP3    H126732   6.682   5.252  14.991  2.2024  0.6777  0.7990
 1747TIP3    H226733   6.595   5.313  14.883 -0.0014 -3.7355 -0.1068
 1748TIP3   OH226734   2.119   4.975  14.308  0.2488 -0.2420 -0.2670
 1748TIP3    H126735   2.079   5.010  14.388 -0.7297  2.0652 -1.6435
 1748TIP3    H226736   2.212   4.973  14.326  0.1878  1.6604  0.4975
 1749TIP3   OH226737   6.533   0.691  15.944 -0.2735  0.1370 -0.2194
 1749TIP3    H126738   6.544   0.767  15.887  0.5621  1.4341  1.6034
 1749TIP3    H226739   6.463   0.715  16.004  0.3937 -0.2906  0.7515
 1750TIP3   OH226740   0.216   6.575   2.855  0.0913 -0.2070  0.3533
 1750TIP3    H126741   0.209   6.649   2.915  1.2809 -0.4845  0.8693
 1750TIP3    H226742   0.282   6.602   2.792  0.3863 -0.7436  0.4282
 1751TIP3   OH226743   1.038   2.390  14.950  0.0821 -0.0749 -0.1725
 1751TIP3    H126744   0.997   2.317  14.903 -0.7374  1.2810 -1.6546
 1751TIP3    H226745   0.966   2.429  15.001  0.1296  0.6697 -0.6586
 1752TIP3   OH226746   1.087   6.574  16.539  0.2314 -0.7260  0.9076
 1752TIP3    H126747   0.996   6.600  16.554  0.6782  1.6072 -0.0868
 1752TIP3    H226748   1.092   6.485  16.575 -2.7522 -1.4412 -0.1487
 1753TIP3   OH226749   3.207   4.379   5.248 -0.2912  0.0402 -0.1782
 1753TIP3    H126750   3.277   4.369   5.184 -0.8253 -1.9879 -0.5106
 1753TIP3    H226751   3.219   4.467   5.284  1.9399  0.0169 -0.7657
 1754TIP3   OH226752   0.955   2.451  12.586  0.0543  0.0450  0.5005
 1754TIP3    H126753   0.878   2.427  12.535 -0.8334  1.5957  1.0508
 1754TIP3    H226754   0.951   2.394  12.663 -1.4618  1.1438  1.2976
 1755TIP3   OH226755   5.647   0.681  10.929  0.8918  0.8384  0.2077
 1755TIP3    H126756   5.588   0.622  10.976  0.6013  0.9142 -0.0548
 1755TIP3    H226757   5.735   0.654  10.956  0.7115  1.5715  1.6104
 1756TIP3   OH226758   2.734   3.762   4.047  0.3704  0.1355 -0.1659
 1756TIP3    H126759   2.673   3.689   4.040  0.2269  0.3510 -1.4534
 1756TIP3    H226760   2.819   3.722   4.064 -0.1860 -0.1347  2.4116
 1757TIP3   OH226761   6.593   0.588   0.255  0.1753  0.5773 -0.2567
 1757TIP3    H126762   6.646   0.558   0.181 -0.8922 -2.2270  0.0005
 1757TIP3    H226763   6.579   0.681   0.237  2.5354  0.7175 -1.9164
 1758TIP3   OH226764   1.177   6.351  14.801  0.0195  0.3501 -0.6207
 1758TIP3    H126765   1.202   6.443  14.788 -2.2838  0.9284 -1.5185
 1758TIP3    H226766   1.116   6.333  14.730 -1.5511 -1.0993  1.0018
 1759TIP3   OH226767   1.336   0.990   1.362 -0.1100 -0.2079 -0.1530
 1759TIP3    H126768   1.389   1.061   1.398  1.1657  0.2725 -2.7531
 1759TIP3    H226769   1.397   0.938   1.310 -1.8623 -0.5426 -2.0056
 1760TIP3   OH226770   2.915   6.617   2.872  0.2668 -0.0407 -0.2820
 1760TIP3    H126771   2.871   6.532   2.863 -0.6830  0.2966  0.8419
 1760TIP3    H226772   3.001   6.604   2.833  0.7588 -2.0080  1.2860
 1761TIP3   OH226773   3.783   5.742   3.969 -0.8497 -0.2778 -0.3001
 1761TIP3    H126774   3.863   5.763   4.016 -0.1242 -0.5086 -1.4101
 1761TIP3    H226775   3.728   5.698   4.034 -0.9828  1.7984  1.0993
 1762TIP3   OH226776   6.143   0.644   4.482  0.3285 -0.2614  0.9571
 1762TIP3    H126777   6.209   0.696   4.528 -0.0217  0.5534  0.5632
 1762TIP3    H226778   6.061   0.691   4.498  0.4091  0.9602 -1.7814
 1763TIP3   OH226779   0.869   5.447  16.819  0.2178 -0.3234  0.7827
 1763TIP3    H126780   0.853   5.420  16.729  1.0297  0.9641  0.2286
 1763TIP3    H226781   0.950   5.498  16.815  0.0422  0.1099  2.1740
 1764TIP3   OH226782   3.688   5.421   1.029 -0.1457  0.3413  0.6064
 1764TIP3    H126783   3.779   5.415   1.058  0.2542  0.1929 -0.6037
 1764TIP3    H226784   3.665   5.513   1.041  0.5089  0.6009 -0.0162
 1765TIP3   OH226785   2.125   6.059   3.420  0.1674 -0.3724  0.1599
 1765TIP3    H126786   2.126   6.008   3.339 -0.5080  0.3955 -0.3502
 1765TIP3    H226787   2.034   6.056   3.449  0.6177 -1.6359  1.5637
 1766TIP3   OH226788   4.962   1.037  11.655  0.0898  0.3283 -0.6727
 1766TIP3    H126789   4.983   1.063  11.565 -2.9703 -0.1084 -1.6108
 1766TIP3    H226790   4.966   1.119  11.705  0.8011  0.7598 -1.4047
 1767TIP3   OH226791   3.645   1.873  17.157 -0.7685 -0.3149  0.2669
 1767TIP3    H126792   3.645   1.830  17.072 -0.5218  1.2706 -0.5647
 1767TIP3    H226793   3.715   1.938  17.152 -2.5244  1.7450  0.6249
 1768TIP3   OH226794   5.311   0.584   1.194 -0.1486  0.1577  0.3279
 1768TIP3    H126795   5.342   0.665   1.154  1.4954 -0.0154  1.1806
 1768TIP3    H226796   5.306   0.522   1.122 -0.2768  0.6887 -0.1296
 1769TIP3   OH226797   0.230   6.261  15.564  0.3655  0.1470  0.0061
 1769TIP3    H126798   0.316   6.221  15.576 -0.1415 -1.6077 -1.6905
 1769TIP3    H226799   0.222   6.272  15.469 -1.8399 -1.1650 -0.0341
 1770TIP3   OH226800   5.921   3.345   2.009  0.3584  0.2958  0.0541
 1770TIP3    H126801   5.952   3.377   1.925  0.1211 -1.3753 -0.7060
 1770TIP3    H226802   5.997   3.304   2.049  0.4144  0.8866  0.5648
 1771TIP3   OH226803   2.419   3.298   0.857  0.1506 -0.2423  0.5667
 1771TIP3    H126804   2.418   3.333   0.946  2.0737  1.5225 -0.0275
 1771TIP3    H226805   2.478   3.223   0.862  2.2292  1.2748  0.4006
 1772TIP3   OH226806   4.191   2.319   5.143  0.0226  0.6525 -0.4305
 1772TIP3    H126807   4.125   2.311   5.075 -1.3269  3.8768  0.3233
 1772TIP3    H226808   4.208   2.413   5.149  3.6212  0.0829  0.4729
 1773TIP3   OH226809   5.637   2.925   0.591 -0.2992 -0.7652 -0.2510
 1773TIP3    H126810   5.715   2.980   0.583 -1.0355  0.3395 -0.0009
 1773TIP3    H226811   5.627   2.910   0.685 -0.1748 -1.2273 -0.3092
 1774TIP3   OH226812   6.778   5.480   3.138  0.0002  0.0867  0.0690
 1774TIP3    H126813   6.840   5.531   3.191 -1.0087  1.4393  0.0054
 1774TIP3    H226814   6.771   5.529   3.056 -0.6308 -0.4413 -0.2019
 1775TIP3   OH226815   0.819   0.709  16.476  0.1473 -0.3796  0.4166
 1775TIP3    H126816   0.847   0.776  16.413  3.3469 -0.0138  2.0142
 1775TIP3    H226817   0.813   0.756  16.559 -4.6661 -0.6907  0.4905
 1776TIP3   OH226818   3.326   6.164   0.885  1.1659  0.3300 -0.0329
 1776TIP3    H126819   3.289   6.138   0.969 -0.1958  0.1828 -0.6607
 1776TIP3    H226820   3.378   6.089   0.858  0.9878  0.0799  0.3127
 1777TIP3   OH226821   1.554   2.298  12.338  0.1810 -0.2751 -0.1579
 1777TIP3    H126822   1.556   2.240  12.261  1.5514  0.8805 -1.0527
 1777TIP3    H226823   1.629   2.271  12.391  0.4302  0.2301 -0.2469
 1778TIP3   OH226824   1.619   5.137   4.550  0.1689 -0.6049 -0.0324
 1778TIP3    H126825   1.661   5.112   4.467  0.4818 -0.8302  0.1907
 1778TIP3    H226826   1.676   5.100   4.617  1.0640  1.3074  0.3420
 1779TIP3   OH226827   1.210   0.860   2.175  0.1988  0.2746 -0.6895
 1779TIP3    H126828   1.196   0.856   2.269  0.2463  1.3927 -0.6244
 1779TIP3    H226829   1.146   0.799   2.138  0.7983 -0.8678  0.1065
 1780TIP3   OH226830   5.526   6.039  17.000  0.4326  0.9345  0.1893
 1780TIP3    H126831   5.493   6.033  17.090  0.7700 -0.0141  0.2565
 1780TIP3    H226832   5.461   6.093  16.955 -0.4551  0.3012  0.6721
 1781TIP3   OH226833   3.749   1.211   3.666 -0.2232 -0.0931  0.1079
 1781TIP3    H126834   3.816   1.188   3.602 -0.3213  1.0019 -0.4004
 1781TIP3    H226835   3.671   1.162   3.638 -0.4015  0.7457 -0.8995
 1782TIP3   OH226836   4.105   4.707  13.579 -0.1842  0.4161  0.1129
 1782TIP3    H126837   4.032   4.715  13.518 -1.2467 -0.3333  1.2484
 1782TIP3    H226838   4.069   4.659  13.653  1.5024 -0.0711  0.6501
 1783TIP3   OH226839   5.067   5.265   5.304 -0.3426 -0.4220  0.2689
 1783TIP3    H126840   5.032   5.237   5.388 -0.9569 -0.2718  0.0695
 1783TIP3    H226841   5.140   5.323   5.326 -1.5067  0.9229  0.7315
 1784TIP3   OH226842   2.800   1.332   4.474  0.1656 -0.1996 -0.3838
 1784TIP3    H126843   2.880   1.377   4.501 -0.9990  0.8390  1.5278
 1784TIP3    H226844   2.797   1.253   4.527 -1.3951  1.1226  1.6324
 1785TIP3   OH226845   2.500   4.326  11.123 -0.4127  0.1604  0.2963
 1785TIP3    H126846   2.568   4.354  11.062  0.0240 -1.7768 -0.1471
 1785TIP3    H226847   2.441   4.272  11.072 -0.6132 -0.6544  1.3493
 1786TIP3   OH226848   4.622   2.256  16.016  0.3172 -0.3181 -0.2093
 1786TIP3    H126849   4.651   2.334  16.063 -0.2938 -0.8908  1.1671
 1786TIP3    H226850   4.703   2.210  15.994  0.6118 -0.3817  0.9188
 1787TIP3   OH226851   5.929   1.432   3.647  0.3009  0.0392  0.2819
 1787TIP3    H126852   5.988   1.451   3.574  1.1130 -1.6873  0.4398
 1787TIP3    H226853   5.981   1.448   3.725 -0.4079  1.3835  0.5071
 1788TIP3   OH226854   3.357   1.244  13.082  0.4491 -0.1615 -0.0526
 1788TIP3    H126855   3.452   1.244  13.085  0.4342  0.6726  1.3165
 1788TIP3    H226856   3.334   1.323  13.032  0.4910  0.6941  1.2224
 1789TIP3   OH226857   4.177   1.975  12.855 -0.4708  0.5158  0.2947
 1789TIP3    H126858   4.119   1.900  12.860  0.0823 -0.0632 -1.4662
 1789TIP3    H226859   4.265   1.938  12.865 -0.2236  0.9945 -0.0696
 1790TIP3   OH226860   4.442   5.097   5.299  0.6264 -0.2492  0.1331
 1790TIP3    H126861   4.536   5.090   5.284  1.0368  1.1914  1.7332
 1790TIP3    H226862   4.432   5.085   5.393 -1.0894 -2.7533 -0.2641
 1791TIP3   OH226863   0.419   0.123  11.218  0.4147  0.3540 -0.6145
 1791TIP3    H126864   0.446   0.033  11.200 -1.4091 -0.5816  0.9447
 1791TIP3    H226865   0.466   0.147  11.298  0.9071  0.8018 -1.0332
 1792TIP3   OH226866   6.369   3.925   2.813  0.7799  0.3512  0.3059
 1792TIP3    H126867   6.377   3.835   2.780 -0.1625  0.3738 -0.0141
 1792TIP3    H226868   6.309   3.918   2.887 -0.4013  0.9031 -0.5670
 1793TIP3   OH226869   6.024   5.334  16.565  0.2034  0.5307 -0.4885
 1793TIP3    H126870   6.082   5.403  16.600  0.4936 -0.0291  0.1526
 1793TIP3    H226871   5.940   5.349  16.608  0.2783  0.4681 -0.3168
 1794TIP3   OH226872   4.765   5.810   0.912 -0.0615  0.1590  0.0131
 1794TIP3    H126873   4.686   5.861   0.929 -0.6462 -0.5544 -0.4782
 1794TIP3    H226874   4.773   5.808   0.817  0.6022  0.2996  0.0608
 1795TIP3   OH226875   4.287   1.485  16.435 -0.3601 -0.7717  0.1877
 1795TIP3    H126876   4.373   1.471  16.474  0.5813 -1.0517 -1.8330
 1795TIP3    H226877   4.226   1.439  16.493  0.7046  0.1653  2.1399
 1796TIP3   OH226878   2.970   5.457  10.580  0.4339  0.1137 -0.2958
 1796TIP3    H126879   3.036   5.500  10.634  0.3344 -1.3438  1.0537
 1796TIP3    H226880   2.963   5.369  10.616 -1.8993  0.0681 -0.7124
 1797TIP3   OH226881   6.798   4.394   1.022  0.7053  0.1753  0.3395
 1797TIP3    H126882   6.742   4.414   1.097  0.8850  0.8434  0.3036
 1797TIP3    H226883   6.751   4.430   0.946 -0.1372 -1.6977 -0.0703
 1798TIP3   OH226884   3.122   4.446   1.420  0.1358 -0.5947  0.5637
 1798TIP3    H126885   3.171   4.417   1.343  1.5399 -0.1408  1.2728
 1798TIP3    H226886   3.160   4.398   1.493 -1.4255 -1.2961  0.9757
 1799TIP3   OH226887   3.781   1.863   3.190 -0.5159  0.2181  0.5903
 1799TIP3    H126888   3.788   1.801   3.263  0.3140 -2.5639 -1.6804
 1799TIP3    H226889   3.687   1.877   3.180 -0.8389 -1.7644  0.4024
 1800TIP3   OH226890   1.009   3.257   4.070  0.0778 -0.0876 -0.1573
 1800TIP3    H126891   0.986   3.166   4.088  1.2377 -0.6656 -1.4382
 1800TIP3    H226892   0.933   3.293   4.026 -1.2585  0.2424  2.2161
 1801TIP3   OH226893   0.647   5.517   4.702 -0.5287 -0.4437  0.0164
 1801TIP3    H126894   0.620   5.495   4.792 -2.3501  0.8336 -0.1653
 1801TIP3    H226895   0.735   5.554   4.712 -1.4195  1.4251  1.5625
 1802TIP3   OH226896   1.875   0.715   1.878  0.2270  0.4426  0.2210
 1802TIP3    H126897   1.824   0.695   1.956  0.1683  0.2297  0.1288
 1802TIP3    H226898   1.885   0.631   1.833 -0.0956  0.6267 -0.2097
 1803TIP3   OH226899   5.415   1.823  16.754  0.1227 -0.8423  0.6483
 1803TIP3    H126900   5.450   1.760  16.691 -1.6904 -1.0115 -0.2471
 1803TIP3    H226901   5.389   1.770  16.829  0.2806 -0.9134  0.6544
 1804TIP3   OH226902   4.608   6.764  12.734 -0.3602  0.1109 -0.2130
 1804TIP3    H126903   4.648   6.684  12.702  0.6500  0.6687 -0.3942
 1804TIP3    H226904   4.515   6.744  12.741 -0.2065 -0.8678 -0.8732
 1805TIP3   OH226905   3.038   6.016   5.220  0.1017  0.2186  0.1840
 1805TIP3    H126906   3.016   6.056   5.136 -0.9897  0.3230  0.5116
 1805TIP3    H226907   3.118   6.061   5.248 -0.9031  1.9580  0.3793
 1806TIP3   OH226908   0.402   2.036   3.037 -0.3139  0.3262  0.3251
 1806TIP3    H126909   0.454   2.093   2.980 -2.3801  1.3710 -0.5932
 1806TIP3    H226910   0.466   2.000   3.099  1.6168  0.9391 -1.2132
 1807TIP3   OH226911   3.114   0.137   5.695 -0.0060  0.4248  0.0531
 1807TIP3    H126912   3.145   0.221   5.662  0.4261 -0.0183 -0.6860
 1807TIP3    H226913   3.019   0.147   5.701  0.0837  1.1415  0.4965
 1808TIP3   OH226914   1.479   4.323   4.045 -0.1120 -0.0582 -0.1101
 1808TIP3    H126915   1.435   4.394   4.092 -2.1760 -0.6836 -0.9833
 1808TIP3    H226916   1.433   4.318   3.961  0.3072 -2.1114 -0.2576
 1809TIP3   OH226917   2.612   1.589   0.157  0.5354  0.1565  0.0084
 1809TIP3    H126918   2.651   1.621   0.238  2.1107  2.6954 -1.6208
 1809TIP3    H226919   2.664   1.511   0.134  2.9575  1.8507 -0.6390
 1810TIP3   OH226920   5.865   5.146   2.726  0.3529  0.1540  0.5643
 1810TIP3    H126921   5.954   5.139   2.692  0.7611 -2.0195  1.9060
 1810TIP3    H226922   5.847   5.240   2.727  2.5705  0.6319  0.1650
 1811TIP3   OH226923   0.633   3.866  13.675 -0.0115 -0.3263 -0.2249
 1811TIP3    H126924   0.596   3.799  13.732 -1.5796 -0.2775 -1.1476
 1811TIP3    H226925   0.679   3.817  13.607  0.7377 -0.4027  0.3200
 1812TIP3   OH226926   4.479   5.232   2.624 -1.1187  0.1454 -0.1462
 1812TIP3    H126927   4.387   5.261   2.627 -1.1310  0.0161  1.0220
 1812TIP3    H226928   4.519   5.269   2.702 -0.0924  0.4180 -0.7828
 1813TIP3   OH226929   4.107   3.281   4.954 -0.3182  0.5555 -0.1397
 1813TIP3    H126930   4.039   3.215   4.939 -0.0218 -0.2271  1.7207
 1813TIP3    H226931   4.059   3.360   4.980 -0.5475 -0.2264  1.9818
 1814TIP3   OH226932   5.411   3.299  16.657  0.2920 -0.2442  0.2716
 1814TIP3    H126933   5.343   3.250  16.611  0.5750 -1.0585  0.6821
 1814TIP3    H226934   5.463   3.231  16.700  1.8704  0.2995 -0.7144
 1815TIP3   OH226935   4.994   3.811   4.107 -0.0068 -0.2184  0.4141
 1815TIP3    H126936   5.088   3.805   4.127  0.5088  0.4325 -1.6359
 1815TIP3    H226937   4.967   3.893   4.147  1.0351  1.1267 -1.4727
 1816TIP3   OH226938   1.840   3.214  15.983  0.1398  0.2402  0.1319
 1816TIP3    H126939   1.879   3.182  16.064  2.2506 -1.4418 -1.4412
 1816TIP3    H226940   1.766   3.156  15.968 -0.9421  1.2270  1.3068
 1817TIP3   OH226941   2.266   5.303   4.328  0.1296  0.4502  0.0596
 1817TIP3    H126942   2.198   5.357   4.288  0.6206  1.2666  0.3160
 1817TIP3    H226943   2.222   5.220   4.346 -0.8417  1.0090  0.3446
 1818TIP3   OH226944   3.599   2.611  11.911  0.4014  0.3143 -0.7493
 1818TIP3    H126945   3.545   2.533  11.924 -0.1802  0.8918  0.5140
 1818TIP3    H226946   3.543   2.673  11.865 -0.9272  1.7273  2.4350
 1819TIP3   OH226947   6.601   6.092  11.921  0.2080  0.0561 -0.1481
 1819TIP3    H126948   6.609   6.115  11.828  0.3957  0.6452  0.0117
 1819TIP3    H226949   6.631   6.169  11.968 -0.2069 -0.1151  0.4126
 1820TIP3   OH226950   3.745   2.303   0.565  0.1462  0.0920  0.3153
 1820TIP3    H126951   3.839   2.320   0.552  0.2295 -0.4905  0.1211
 1820TIP3    H226952   3.705   2.325   0.481  0.4671 -2.1142 -0.4811
 1821TIP3   OH226953   3.924   6.419  11.017 -0.3414 -0.3705  0.5272
 1821TIP3    H126954   3.979   6.478  11.068 -1.9713  0.1239  1.7856
 1821TIP3    H226955   3.983   6.381  10.952  1.6071 -0.3503  2.2228
 1822TIP3   OH226956   2.388   2.342   1.710  0.4710  0.6981 -0.4270
 1822TIP3    H126957   2.372   2.405   1.639 -0.6355  0.5017 -0.3790
 1822TIP3    H226958   2.403   2.397   1.787 -1.1899  0.9607 -0.2355
 1823TIP3   OH226959   4.203   4.126   5.004 -0.5136 -0.6093  0.3111
 1823TIP3    H126960   4.222   4.039   5.040 -0.8291 -0.1076  1.7690
 1823TIP3    H226961   4.239   4.187   5.069 -0.5268  0.3590 -0.5652
 1824TIP3   OH226962   2.724   6.544  11.532  0.2028  0.5708  0.0167
 1824TIP3    H126963   2.703   6.451  11.524 -0.6409  0.7459  0.0268
 1824TIP3    H226964   2.639   6.588  11.525  0.3133  1.2136  2.0760
 1825TIP3   OH226965   5.154   0.452  10.947 -0.1986 -0.4047 -0.0270
 1825TIP3    H126966   5.064   0.482  10.934 -0.6775 -1.5279  0.5025
 1825TIP3    H226967   5.183   0.494  11.027 -0.0710  0.3382 -0.4561
 1826TIP3   OH226968   0.023   2.589  16.163  0.2961 -0.2908  0.3199
 1826TIP3    H126969   0.049   2.611  16.253  0.8079  2.4030 -0.4104
 1826TIP3    H226970  -0.072   2.579  16.167  0.3033 -0.1197  1.1424
 1827TIP3   OH226971   6.687   2.039  16.225 -0.1567 -0.1319 -0.2350
 1827TIP3    H126972   6.780   2.053  16.210 -0.4690 -0.4000 -2.7815
 1827TIP3    H226973   6.668   1.953  16.188 -2.0684  1.4719 -3.4587
 1828TIP3   OH226974   1.713   2.589   3.263 -0.3503  0.1124 -0.1420
 1828TIP3    H126975   1.749   2.677   3.273  1.0719 -0.2811 -1.4618
 1828TIP3    H226976   1.660   2.593   3.184 -2.0384  0.2952  0.9635
 1829TIP3   OH226977   0.237   6.071  15.882  0.2315  0.4272  0.3836
 1829TIP3    H126978   0.194   6.089  15.966 -0.9329  1.0328 -0.3141
 1829TIP3    H226979   0.241   5.975  15.877 -0.4156  0.3744  0.7803
 1830TIP3   OH226980   4.364   4.907  11.126  0.6570  0.0114 -0.6454
 1830TIP3    H126981   4.335   4.910  11.035 -0.3109 -0.5797 -0.3742
 1830TIP3    H226982   4.394   4.996  11.144  0.3137  0.2851 -1.3674
 1831TIP3   OH226983   4.965   6.386   2.521  0.4824 -0.0402  0.0147
 1831TIP3    H126984   5.028   6.436   2.573 -0.3494 -0.9881  2.0468
 1831TIP3    H226985   4.880   6.408   2.560 -0.2278 -0.4237 -1.2818
 1832TIP3   OH226986   4.518   6.180  11.790  0.4023  0.5256  0.2330
 1832TIP3    H126987   4.429   6.145  11.792  0.6031  0.0313  0.7869
 1832TIP3    H226988   4.522   6.230  11.708 -0.1908  0.0425 -0.0979
 1833TIP3   OH226989   4.314   4.480   5.962  0.1837  0.0980 -0.6599
 1833TIP3    H126990   4.387   4.437   6.006  0.5114  1.8491  0.6077
 1833TIP3    H226991   4.353   4.525   5.887 -0.1486 -1.6379 -1.9420
 1834TIP3   OH226992   3.703   3.384  13.613  0.0304  0.1402  0.4717
 1834TIP3    H126993   3.691   3.349  13.525  1.2548 -3.1651  1.4763
 1834TIP3    H226994   3.632   3.345  13.665  2.5682 -2.7675  2.0548
 1835TIP3   OH226995   1.490   2.569  13.518  0.2921 -0.1404 -0.2620
 1835TIP3    H126996   1.486   2.665  13.520 -0.0973 -0.0851 -1.9200
 1835TIP3    H226997   1.530   2.545  13.601 -0.1748  1.4265  0.4599
 1836TIP3   OH226998   1.107   1.968  11.355 -0.0907 -0.5267 -0.6482
 1836TIP3    H126999   1.070   1.993  11.270  1.6226  0.3013 -1.1861
 1836TIP3    H227000   1.202   1.970  11.342  0.2702  1.0619  1.6643
 1837TIP3   OH227001   2.827   3.910  11.512  0.0203 -0.3855 -0.1093
 1837TIP3    H127002   2.848   3.821  11.485 -1.0780 -0.4378 -0.8239
 1837TIP3    H227003   2.780   3.900  11.594 -0.9842 -0.5409 -0.6910
 1838TIP3   OH227004   0.682   0.480  13.578  0.5915 -0.1522 -0.0996
 1838TIP3    H127005   0.645   0.473  13.490 -0.6058 -1.8742  0.4746
 1838TIP3    H227006   0.608   0.507  13.633  0.7582 -1.2579  0.7010
 1839TIP3   OH227007   2.818   5.751   2.160  0.3098 -0.0224  0.0899
 1839TIP3    H127008   2.746   5.761   2.222  0.1892 -2.4444  0.4506
 1839TIP3    H227009   2.893   5.728   2.215  0.9994  0.9598 -0.4182
 1840TIP3   OH227010   0.563   2.667  10.878  0.0316 -0.4387  0.0495
 1840TIP3    H127011   0.511   2.590  10.899  0.7693 -0.7342  0.8749
 1840TIP3    H227012   0.651   2.645  10.908  0.1272  0.9655  0.9064
 1841TIP3   OH227013   2.430   4.709  13.794  0.3326  0.1891  0.6644
 1841TIP3    H127014   2.509   4.763  13.792  1.4621 -1.3899 -0.0282
 1841TIP3    H227015   2.420   4.678  13.704 -1.6326  1.0496  0.5259
 1842TIP3   OH227016   4.955   0.532  11.514 -0.3234 -0.6339  0.9782
 1842TIP3    H127017   4.882   0.483  11.474  0.3928  0.0555 -1.3161
 1842TIP3    H227018   4.927   0.623  11.512  1.2106 -0.1336 -1.5605
 1843TIP3   OH227019   4.231   3.557   1.455 -0.0808  0.1867  0.7437
 1843TIP3    H127020   4.159   3.583   1.398 -1.1530  0.0547  1.9856
 1843TIP3    H227021   4.279   3.491   1.406 -1.2344 -0.2470  0.1749
 1844TIP3   OH227022   3.183   3.459  12.030 -0.2169 -0.4348 -0.1235
 1844TIP3    H127023   3.234   3.488  12.106 -1.2407  0.1991  0.3400
 1844TIP3    H227024   3.238   3.483  11.955  0.1024  0.3961  0.3569
 1845TIP3   OH227025   5.975   1.044   0.156 -0.2014 -0.3459 -0.5336
 1845TIP3    H127026   6.034   0.974   0.130 -0.2138  0.2129 -2.1838
 1845TIP3    H227027   5.888   1.013   0.130 -0.3747 -0.2496 -0.0896
 1846TIP3   OH227028   3.397   4.138  12.253  0.7192 -0.2811 -0.3464
 1846TIP3    H127029   3.313   4.185  12.259  0.1575 -1.2878 -0.0706
 1846TIP3    H227030   3.462   4.207  12.236  0.1216  0.7713  1.3826
 1847TIP3   OH227031   5.753   5.435   4.690  0.6856 -0.5438 -0.0809
 1847TIP3    H127032   5.700   5.356   4.703 -0.5040  0.2875  0.2229
 1847TIP3    H227033   5.746   5.453   4.596 -0.3234  0.0635  0.0979
 1848TIP3   OH227034   4.231   1.594  16.179 -0.0210  0.8053 -0.1548
 1848TIP3    H127035   4.256   1.560  16.266  2.5440 -0.1486 -1.1457
 1848TIP3    H227036   4.164   1.534  16.148  0.8064 -0.3598  0.2192
 1849TIP3   OH227037   2.795   6.355  14.461 -0.1827  0.0376 -0.1713
 1849TIP3    H127038   2.794   6.260  14.473  0.7681 -0.0572 -0.6849
 1849TIP3    H227039   2.706   6.383  14.481 -0.3027 -0.8727  0.6581
 1850TIP3   OH227040   5.627   2.262  15.580  0.3038 -0.3441  0.4846
 1850TIP3    H127041   5.662   2.273  15.668  1.5408  0.4044 -0.0633
 1850TIP3    H227042   5.705   2.257  15.524 -0.4286 -1.7580 -0.4737
 1851TIP3   OH227043   0.898   5.203   4.859 -0.6879  0.0574 -0.0856
 1851TIP3    H127044   0.834   5.134   4.843 -0.5888 -0.1094  0.2386
 1851TIP3    H227045   0.916   5.239   4.772 -0.0255 -0.9680 -0.3969
 1852TIP3   OH227046   5.183   0.012  14.997  0.1709  0.7657  0.6428
 1852TIP3    H127047   5.171  -0.022  15.085  0.8972  1.0325  0.8548
 1852TIP3    H227048   5.119   0.083  14.990 -1.7984 -0.9845 -0.0313
 1853TIP3   OH227049   1.255   5.256  11.422 -0.5674  0.1392  0.2198
 1853TIP3    H127050   1.246   5.351  11.425  0.9762  0.2833  0.9469
 1853TIP3    H227051   1.236   5.233  11.331  0.3751  1.2995 -0.2988
 1854TIP3   OH227052   6.632   4.180  14.963  0.1775  0.4033 -0.5171
 1854TIP3    H127053   6.603   4.218  15.046  1.2534  0.0904  0.0281
 1854TIP3    H227054   6.686   4.105  14.989 -0.4984 -0.4600 -1.5344
 1855TIP3   OH227055   2.733   5.122   5.200 -0.3841 -0.0949 -0.0519
 1855TIP3    H127056   2.648   5.080   5.193 -0.6001  0.5468 -1.6144
 1855TIP3    H227057   2.714   5.216   5.196  0.4391  0.0388 -1.0823
 1856TIP3   OH227058   2.566   3.731   0.168  0.1669 -0.1054  0.0319
 1856TIP3    H127059   2.518   3.746   0.087 -0.0803 -0.4067  0.1237
 1856TIP3    H227060   2.501   3.696   0.229  0.0621  1.2180  0.7271
 1857TIP3   OH227061   2.792   5.716   3.477 -0.1789 -0.0217 -0.5644
 1857TIP3    H127062   2.794   5.798   3.427  0.3197 -0.3210 -1.0549
 1857TIP3    H227063   2.836   5.653   3.420  1.4149 -0.1155  0.7203
 1858TIP3   OH227064   3.180   2.721  14.299  0.1000 -0.1600 -0.0403
 1858TIP3    H127065   3.211   2.642  14.343  0.9703  1.0425  1.5878
 1858TIP3    H227066   3.108   2.752  14.352  0.5650  0.8160  0.0342
 1859TIP3   OH227067   1.584   4.416  13.217  0.7123 -0.0707  0.1350
 1859TIP3    H127068   1.497   4.406  13.178  0.3352 -0.8062  1.1118
 1859TIP3    H227069   1.620   4.327  13.218  1.3530  0.1841  0.0198
 1860TIP3   OH227070   1.089   6.600  12.366  0.1428 -0.5026 -0.4333
 1860TIP3    H127071   1.099   6.604  12.461  1.1904 -1.1414 -0.5075
 1860TIP3    H227072   1.175   6.624  12.331 -0.3789  0.2777 -1.2439
 1861TIP3   OH227073   5.008   0.825  16.248  0.2830  0.0455 -0.1345
 1861TIP3    H127074   5.009   0.918  16.273 -1.0770  0.0377  0.0037
 1861TIP3    H227075   4.921   0.811  16.212  0.6644 -1.0628 -0.6576
 1862TIP3   OH227076   5.371   3.454  12.473 -0.4830  0.0272  0.5051
 1862TIP3    H127077   5.307   3.444  12.544 -0.2659 -1.2817  0.5407
 1862TIP3    H227078   5.355   3.542  12.438 -0.9229  0.5082  1.8511
 1863TIP3   OH227079   2.286   4.799  16.392 -0.0205 -0.6080 -0.2544
 1863TIP3    H127080   2.350   4.799  16.463 -0.5271 -1.2718  0.2134
 1863TIP3    H227081   2.202   4.813  16.436 -0.1946  0.3733 -0.8717
 1864TIP3   OH227082   5.601   5.885  16.038  0.3364  0.4143 -0.6924
 1864TIP3    H127083   5.640   5.805  16.002  0.4362 -0.9473  2.1911
 1864TIP3    H227084   5.509   5.864  16.048 -0.1328  1.5963 -2.1358
 1865TIP3   OH227085   4.779   2.374  14.857 -0.2044 -0.2563 -0.1005
 1865TIP3    H127086   4.780   2.299  14.796 -0.6210  0.1090 -0.5613
 1865TIP3    H227087   4.870   2.382  14.885 -0.3451 -1.7019  0.9121
 1866TIP3   OH227088   5.024   4.860   1.820  0.0498  0.3366  0.3617
 1866TIP3    H127089   4.990   4.784   1.867  0.0062  0.5015  0.5975
 1866TIP3    H227090   4.965   4.932   1.845 -0.9115  0.1054 -1.1372
 1867TIP3   OH227091   2.307   0.621  15.361  0.1258  0.1002  0.4054
 1867TIP3    H127092   2.341   0.557  15.298  0.4816 -0.5196  1.2017
 1867TIP3    H227093   2.216   0.594  15.375 -0.8880  1.9166 -1.9283
 1868TIP3   OH227094   5.907   6.152   2.730  0.1608 -0.2283 -0.0246
 1868TIP3    H127095   5.929   6.200   2.810 -1.0492 -1.7658  1.3062
 1868TIP3    H227096   5.813   6.165   2.719 -0.0874 -1.7896  0.0506
 1869TIP3   OH227097   4.629   5.787  14.643 -0.3030  0.0439 -0.4317
 1869TIP3    H127098   4.697   5.837  14.599 -0.3792  0.0926 -0.4950
 1869TIP3    H227099   4.561   5.776  14.576 -0.2412 -0.2325 -0.4504
 1870TIP3   OH227100   0.146   1.315   6.130 -1.1384  0.2123  0.6967
 1870TIP3    H127101   0.091   1.318   6.052  0.8909  0.3996 -0.8143
 1870TIP3    H227102   0.165   1.223   6.143 -0.4340  0.2823  0.1842
 1871TIP3   OH227103   2.860   1.835   3.375  0.4668 -0.0568  0.2009
 1871TIP3    H127104   2.873   1.768   3.308 -0.1770  0.1974 -0.1813
 1871TIP3    H227105   2.936   1.893   3.365 -0.2298  0.6697 -1.1345
 1872TIP3   OH227106   0.266   4.337  11.017  0.2324 -0.7230  0.0725
 1872TIP3    H127107   0.279   4.377  10.931  2.2436 -1.2533  0.0822
 1872TIP3    H227108   0.334   4.376  11.072 -0.1398 -1.4255  1.0610
 1873TIP3   OH227109   3.277   6.445   1.812  0.0270 -0.3993 -0.4023
 1873TIP3    H127110   3.326   6.503   1.754 -0.0521 -0.3356 -0.4056
 1873TIP3    H227111   3.213   6.402   1.755 -1.7654  1.5162  0.0313
 1874TIP3   OH227112   2.733   1.500  11.855 -0.4214 -0.5726  0.4558
 1874TIP3    H127113   2.706   1.566  11.918  1.0615  0.5564 -0.0465
 1874TIP3    H227114   2.790   1.441  11.904  1.0435  0.5240  0.1243
 1875TIP3   OH227115   2.048   1.059   4.581  0.5616  0.0139 -0.1145
 1875TIP3    H127116   2.051   0.966   4.561  0.0853 -0.1050  0.3480
 1875TIP3    H227117   1.972   1.069   4.639  2.1556  0.2593  2.0728
 1876TIP3   OH227118   0.885   3.198  13.081  0.2505 -0.2689 -0.1010
 1876TIP3    H127119   0.833   3.121  13.057 -1.2107  1.2547 -2.2063
 1876TIP3    H227120   0.877   3.257  13.006  1.6788  1.7620  1.2316
 1877TIP3   OH227121   0.469   2.563  16.148  0.8223 -0.1437 -0.2278
 1877TIP3    H127122   0.514   2.555  16.064  1.1605  2.0098 -0.3027
 1877TIP3    H227123   0.533   2.533  16.213  0.9340 -0.8235 -0.6512
 1878TIP3   OH227124   0.358   0.919  14.773  1.0282 -0.2820  0.4827
 1878TIP3    H127125   0.433   0.972  14.747  0.5563 -0.8600 -2.3566
 1878TIP3    H227126   0.320   0.966  14.847  2.7430  1.3360  0.4171
 1879TIP3   OH227127   6.816   3.637   4.078  0.4067 -0.0777  0.1699
 1879TIP3    H127128   6.795   3.694   4.003 -1.2648 -0.7881  0.0421
 1879TIP3    H227129   6.748   3.657   4.142  2.7722  1.7400  2.2676
 1880TIP3   OH227130   4.635   0.020  13.569 -0.0350  0.0656  0.2725
 1880TIP3    H127131   4.555   0.042  13.522 -0.4850  1.5300  1.6306
 1880TIP3    H227132   4.671   0.104  13.597  3.7407 -0.2250 -2.8954
 1881TIP3   OH227133   1.103   5.971  16.803  0.1168 -0.7195 -0.1971
 1881TIP3    H127134   1.096   6.066  16.794 -0.6406 -0.7610 -0.1437
 1881TIP3    H227135   1.013   5.940  16.796  0.1349 -1.2804  1.4971
 1882TIP3   OH227136   6.191   0.396  12.132  0.2875 -0.1971 -0.2530
 1882TIP3    H127137   6.096   0.404  12.142  0.2928 -1.1250  0.7260
 1882TIP3    H227138   6.204   0.306  12.102  0.8359  0.1179 -1.0129
 1883TIP3   OH227139   4.457   0.499  12.091  0.0775  0.1114  0.0759
 1883TIP3    H127140   4.464   0.586  12.131 -1.0525 -0.0732  0.7166
 1883TIP3    H227141   4.530   0.449  12.128 -0.4462  0.1971  1.2669
 1884TIP3   OH227142   6.386   6.781   5.053 -0.0468 -0.2042 -0.7445
 1884TIP3    H127143   6.438   6.776   4.973 -0.3402  0.1062 -0.9603
 1884TIP3    H227144   6.300   6.746   5.028 -1.4793  3.5392 -1.7403
 1885TIP3   OH227145   3.705   4.028   1.250  0.2898  0.0325 -0.0383
 1885TIP3    H127146   3.788   4.058   1.213  0.7967 -0.3800  0.7528
 1885TIP3    H227147   3.708   3.933   1.242 -0.0144  0.0018  0.1859
 1886TIP3   OH227148   5.346   5.857   1.110 -0.3911 -0.0269  0.5270
 1886TIP3    H127149   5.320   5.814   1.029 -0.4501  2.4356 -0.8566
 1886TIP3    H227150   5.330   5.950   1.094  0.7964  0.6719  2.9193
 1887TIP3   OH227151   3.256   5.294   2.847  0.2354  0.4781 -0.6435
 1887TIP3    H127152   3.335   5.255   2.885  0.3552  0.2504 -1.1214
 1887TIP3    H227153   3.286   5.378   2.811  0.2222  0.4688 -0.6758
 1888TIP3   OH227154   2.574   6.815  17.126 -0.7002 -0.1638  0.0955
 1888TIP3    H127155   2.618   6.739  17.090 -1.7436 -1.7821  2.0379
 1888TIP3    H227156   2.631   6.889  17.103  0.9082 -1.6478 -0.9057
 1889TIP3   OH227157   1.555   6.340  15.904 -0.4426 -1.1339  1.2361
 1889TIP3    H127158   1.582   6.345  15.996  2.2906 -3.1061  0.6731
 1889TIP3    H227159   1.592   6.257  15.872  1.7914  0.9937 -2.4978
 1890TIP3   OH227160   2.196   2.693   5.992  0.9152  0.3616  0.3867
 1890TIP3    H127161   2.268   2.651   6.038  0.7137  1.2600  1.5886
 1890TIP3    H227162   2.118   2.647   6.022  0.9225 -0.2138 -0.4481
 1891TIP3   OH227163   6.084   2.590   2.453  0.6045 -0.5447 -0.4064
 1891TIP3    H127164   6.165   2.573   2.406  0.8606 -1.2650  0.2615
 1891TIP3    H227165   6.042   2.504   2.461  0.0474 -0.2661 -0.2712
 1892TIP3   OH227166   3.409   1.934   5.461 -0.5837 -0.2592 -1.2031
 1892TIP3    H127167   3.359   2.015   5.447 -3.0053 -1.2333  0.9111
 1892TIP3    H227168   3.481   1.960   5.519 -1.3363  0.4208 -0.5390
 1893TIP3   OH227169   5.969   2.214  10.446  0.1485 -0.2768  0.2766
 1893TIP3    H127170   5.935   2.278  10.384  0.7088 -0.0076  0.2442
 1893TIP3    H227171   5.948   2.129  10.406 -0.1816 -0.1125  0.0975
 1894TIP3   OH227172   4.949   0.067   3.672  0.1972  0.3624 -0.4453
 1894TIP3    H127173   5.010   0.139   3.655 -0.0197  0.2728 -1.7379
 1894TIP3    H227174   4.939   0.024   3.587  1.8374 -2.4308  0.6293
 1895TIP3   OH227175   2.502   3.977  14.180 -0.0034  0.2151  0.1188
 1895TIP3    H127176   2.563   3.994  14.252  0.5604 -0.6273 -0.1528
 1895TIP3    H227177   2.419   3.955  14.223  0.2936 -0.1514  0.4995
 1896TIP3   OH227178   6.458   4.873   0.104  0.1249 -0.0860  0.0280
 1896TIP3    H127179   6.371   4.910   0.090  0.2528  0.0770 -0.3393
 1896TIP3    H227180   6.505   4.942   0.152  0.2598  0.0958 -0.3647
 1897TIP3   OH227181   1.121   5.738   2.735 -0.4662 -0.0011  0.0495
 1897TIP3    H127182   1.039   5.689   2.735 -1.5765  1.7899  1.1374
 1897TIP3    H227183   1.106   5.811   2.675  0.2223  0.5100  0.4806
 1898TIP3   OH227184   2.131   5.488  14.669  0.2533 -0.5728  0.0787
 1898TIP3    H127185   2.079   5.410  14.685 -2.3658  1.2991  1.5033
 1898TIP3    H227186   2.120   5.540  14.749  0.8577  1.7864 -1.2963
 1899TIP3   OH227187   2.473   2.762   0.686  0.3426  0.1051  0.8299
 1899TIP3    H127188   2.514   2.848   0.695  1.0590 -0.0596 -0.5800
 1899TIP3    H227189   2.420   2.752   0.765 -0.5018  2.2303  0.5717
 1900TIP3   OH227190   6.548   4.935  15.932 -0.1848  0.3664  0.4496
 1900TIP3    H127191   6.493   4.857  15.935  0.7633 -0.4303 -1.1759
 1900TIP3    H227192   6.497   5.003  15.977 -0.9811 -1.1967  2.0070
 1901TIP3   OH227193   3.201   0.711   2.557  0.1506 -0.0613 -0.1546
 1901TIP3    H127194   3.163   0.771   2.492  0.5391  0.4129  0.0545
 1901TIP3    H227195   3.159   0.735   2.639  1.7087  1.2324  0.2989
 1902TIP3   OH227196   0.040   1.568   0.040 -0.6256  0.0549  0.1381
 1902TIP3    H127197   0.095   1.646   0.048 -1.5259  0.6978  0.2333
 1902TIP3    H227198   0.084   1.502   0.093  1.0324 -0.0262 -1.2284
 1903TIP3   OH227199   3.547   1.133  14.814 -0.0230 -0.2106 -0.3154
 1903TIP3    H127200   3.629   1.127  14.863 -1.1860 -0.9514  1.6061
 1903TIP3    H227201   3.509   1.217  14.841 -1.9486 -1.8002  2.2294
 1904TIP3   OH227202   3.250   0.374   1.498  0.5170 -0.2147  0.2809
 1904TIP3    H127203   3.328   0.366   1.554  0.9581  0.8791 -0.1506
 1904TIP3    H227204   3.285   0.384   1.410 -0.1656 -1.2528 -0.1199
 1905TIP3   OH227205   3.274   3.433  14.225 -0.0721 -0.0146  0.0614
 1905TIP3    H127206   3.184   3.462  14.242 -0.4282 -2.2430  2.7212
 1905TIP3    H227207   3.328   3.505  14.257 -0.8767  0.8307 -0.4094
 1906TIP3   OH227208   6.757   6.110  11.330 -0.4254 -0.2995 -0.1807
 1906TIP3    H127209   6.661   6.112  11.336 -0.4470 -0.7267 -0.3006
 1906TIP3    H227210   6.786   6.185  11.380 -0.9157  1.2558 -2.0829
 1907TIP3   OH227211   0.662   6.482  13.224  1.3721  0.3182  0.4654
 1907TIP3    H127212   0.756   6.464  13.226  1.4578  0.7838  1.3740
 1907TIP3    H227213   0.626   6.429  13.296  0.8739 -0.1535 -0.1167
 1908TIP3   OH227214   6.619   6.193  11.647 -0.2235 -0.3014 -0.1349
 1908TIP3    H127215   6.699   6.218  11.601 -0.0310  0.2146  0.4595
 1908TIP3    H227216   6.557   6.262  11.628 -0.0718  0.0342  0.5386
 1909TIP3   OH227217   5.748   3.184   2.327 -0.1440  0.4049 -0.3327
 1909TIP3    H127218   5.678   3.211   2.386  0.9165  0.3169  1.0181
 1909TIP3    H227219   5.749   3.251   2.258 -1.0033  0.8425  0.0696
 1910TIP3   OH227220   2.492   4.023  10.571 -0.1130  0.1738 -0.0596
 1910TIP3    H127221   2.402   3.999  10.595 -0.2186  1.8321  1.3993
 1910TIP3    H227222   2.511   4.099  10.624  1.9232  0.3134 -0.9111
 1911TIP3   OH227223   3.888   3.354   3.282  0.1453  0.6902 -0.0811
 1911TIP3    H127224   3.884   3.388   3.193 -1.1322 -1.9513 -1.1237
 1911TIP3    H227225   3.976   3.318   3.290  0.0863  0.4542 -0.4759
 1912TIP3   OH227226   0.463   2.857   6.102  0.0218  0.0926  0.4048
 1912TIP3    H127227   0.517   2.933   6.122 -0.6708  1.2016 -1.6647
 1912TIP3    H227228   0.378   2.877   6.141  0.0635 -0.0008  0.5455
 1913TIP3   OH227229   6.354   6.036   4.193  0.3191 -0.2323  0.2239
 1913TIP3    H127230   6.368   5.959   4.138  1.2474 -0.1620  0.3485
 1913TIP3    H227231   6.259   6.039   4.206  0.2725 -1.3462  0.2147
 1914TIP3   OH227232   3.823   4.944   1.831 -0.9751 -0.4029  0.3723
 1914TIP3    H127233   3.869   4.861   1.848  0.0372  0.1076  0.2183
 1914TIP3    H227234   3.893   5.006   1.813 -1.7604  0.3461 -0.1551
 1915TIP3   OH227235   4.076   0.291   1.223 -0.3012 -0.1455 -0.2886
 1915TIP3    H127236   4.167   0.316   1.242  0.1145 -0.2546 -1.9881
 1915TIP3    H227237   4.055   0.226   1.289  0.5177  0.5750  0.7253
 1916TIP3   OH227238   3.514   0.193   3.448  0.2720  0.7140 -0.2328
 1916TIP3    H127239   3.603   0.167   3.422 -0.3881 -0.9575 -0.9398
 1916TIP3    H227240   3.457   0.126   3.409 -1.2246  1.2232  1.0008
 1917TIP3   OH227241   3.010   2.594   0.225  0.3004 -0.0254  0.4704
 1917TIP3    H127242   2.937   2.618   0.281 -1.2740 -1.6818 -0.7434
 1917TIP3    H227243   3.044   2.677   0.193 -0.2416  0.8294  2.0569
 1918TIP3   OH227244   1.037   0.668  17.135  0.6045 -0.2085  0.5685
 1918TIP3    H127245   0.970   0.735  17.147 -1.5910 -1.9651 -0.8083
 1918TIP3    H227246   1.008   0.595  17.190  1.5138 -0.9401  0.1141
 1919TIP3   OH227247   6.140   1.810   1.503  0.1887  0.3244 -0.0217
 1919TIP3    H127248   6.093   1.769   1.576 -0.1451  0.3262 -0.2313
 1919TIP3    H227249   6.221   1.842   1.541  0.7579 -1.0852  0.0239
 1920TIP3   OH227250   5.671   0.303   1.481 -0.1637 -0.3813 -0.8370
 1920TIP3    H127251   5.767   0.308   1.485 -0.2081 -0.3349  0.7788
 1920TIP3    H227252   5.647   0.367   1.413  0.9347 -0.3783 -1.2456
 1921TIP3   OH227253   0.384   1.522   1.011  0.2951 -0.2674  0.4184
 1921TIP3    H127254   0.458   1.462   1.000  1.8676  1.5744  0.4132
 1921TIP3    H227255   0.424   1.605   1.037 -1.7100  1.0293 -0.4037
 1922TIP3   OH227256   0.410   1.340  15.439  0.7431 -0.0449  0.2624
 1922TIP3    H127257   0.368   1.426  15.434 -0.2635 -0.6109 -2.3917
 1922TIP3    H227258   0.385   1.306  15.525 -0.1814  1.6361  0.7023
 1923TIP3   OH227259   0.848   2.160   3.002 -0.1461  0.0849  0.1976
 1923TIP3    H127260   0.923   2.154   2.943 -1.4755  0.4845 -1.6021
 1923TIP3    H227261   0.772   2.154   2.945 -1.5082  1.8436  1.7308
 1924TIP3   OH227262   3.120   6.229  16.789 -0.1012  0.5922  0.3492
 1924TIP3    H127263   3.167   6.214  16.707 -2.9923  0.0299 -1.3537
 1924TIP3    H227264   3.189   6.240  16.854  2.3395  0.5496 -2.0324
 1925TIP3   OH227265   6.096   0.563  15.148 -0.0281 -0.2302 -0.3740
 1925TIP3    H127266   6.037   0.613  15.091  2.6357  1.9478 -1.4452
 1925TIP3    H227267   6.150   0.512  15.087 -0.2434 -1.6137  0.5498
 1926TIP3   OH227268   5.189   5.301   4.267 -0.3597 -0.6358  0.5945
 1926TIP3    H127269   5.106   5.325   4.227 -0.5285 -1.3660  0.4945
 1926TIP3    H227270   5.225   5.383   4.300 -0.3905 -0.0680 -0.7365
 1927TIP3   OH227271   1.885   3.988  17.098 -0.0306  0.1277  0.1972
 1927TIP3    H127272   1.824   3.915  17.087 -2.6952  2.3791 -1.1217
 1927TIP3    H227273   1.856   4.031  17.179  0.5839  0.5597  0.1908
 1928TIP3   OH227274   5.759   2.341  12.835  0.5257  0.6980 -0.2063
 1928TIP3    H127275   5.706   2.291  12.898  0.8830  2.2255  1.3912
 1928TIP3    H227276   5.773   2.280  12.762 -0.9510 -0.7282  0.6242
 1929TIP3   OH227277   6.582   2.626   5.449 -0.3975  0.5388  0.5872
 1929TIP3    H127278   6.619   2.545   5.414  1.1155  1.6039 -0.4237
 1929TIP3    H227279   6.658   2.685   5.457 -0.9142  0.9685  4.0381
 1930TIP3   OH227280   5.824   1.154   1.001 -0.3229 -0.7139 -0.0306
 1930TIP3    H127281   5.912   1.192   0.991 -0.4409 -0.4975 -0.2621
 1930TIP3    H227282   5.765   1.228   0.987 -0.5269 -0.3689  2.2945
 1931TIP3   OH227283   0.468   4.557   0.649  0.4949 -0.1856 -0.4855
 1931TIP3    H127284   0.396   4.620   0.641  0.9731  0.1792 -2.8278
 1931TIP3    H227285   0.547   4.611   0.653  0.7855 -0.6115 -0.4652
 1932TIP3   OH227286   5.397   4.399  17.076  0.2881 -0.2032 -0.2704
 1932TIP3    H127287   5.447   4.439  17.004 -0.1542  0.0683 -0.4338
 1932TIP3    H227288   5.439   4.432  17.155 -0.3463  0.9712 -0.3982
 1933TIP3   OH227289   6.023   2.677   0.864  0.0007 -0.0035  0.3134
 1933TIP3    H127290   5.940   2.637   0.889 -0.6225  0.7135 -0.5612
 1933TIP3    H227291   6.076   2.603   0.831 -1.7497 -0.0131 -2.9237
 1934TIP3   OH227292   6.672   5.984   3.702  0.4058  1.0995 -1.1113
 1934TIP3    H127293   6.597   5.931   3.678  0.5341  0.5595 -0.3667
 1934TIP3    H227294   6.740   5.921   3.724 -0.0520  1.4519  1.7668
 1935TIP3   OH227295   3.611   4.624  11.538 -0.1553  0.5368 -0.6167
 1935TIP3    H127296   3.563   4.547  11.507  0.4307 -1.4151  2.7280
 1935TIP3    H227297   3.547   4.672  11.591  0.4479  0.1692  0.4838
 1936TIP3   OH227298   1.467   0.719   4.982 -0.8178 -0.0159  0.4375
 1936TIP3    H127299   1.464   0.623   4.983 -1.1394 -0.0154 -0.1222
 1936TIP3    H227300   1.473   0.742   4.889 -0.3609  0.4980  0.5851
 1937TIP3   OH227301   0.918   5.626   4.720 -0.0998 -0.5749  0.4594
 1937TIP3    H127302   0.969   5.549   4.697  0.5197  0.3005 -1.3318
 1937TIP3    H227303   0.970   5.700   4.687 -0.6719  0.6269  2.1029
 1938TIP3   OH227304   0.907   1.350   0.984  0.0983  0.3628 -0.1389
 1938TIP3    H127305   0.917   1.262   0.947  0.6792  0.0760  0.6943
 1938TIP3    H227306   0.943   1.408   0.917  1.0126 -0.1406 -0.0898
 1939TIP3   OH227307   3.387   0.191  12.371  0.2581 -0.0583  0.0816
 1939TIP3    H127308   3.317   0.175  12.435  1.6503  0.7243  1.8994
 1939TIP3    H227309   3.370   0.280  12.340  1.0290  0.5726  1.3770
 1940TIP3   OH227310   3.022   3.541  13.153  0.2711  0.1100 -0.6064
 1940TIP3    H127311   2.930   3.523  13.172  0.7606 -2.7280 -0.3757
 1940TIP3    H227312   3.032   3.635  13.164 -2.1515  0.2294  1.4524
 1941TIP3   OH227313   0.814   4.281  13.030  0.5568  0.1582 -0.1156
 1941TIP3    H127314   0.721   4.303  13.032  0.4285  0.3455 -3.1802
 1941TIP3    H227315   0.817   4.192  12.997  1.4720  0.7379 -1.6975
 1942TIP3   OH227316   1.931   1.463   5.057  0.0360 -0.3239  0.7183
 1942TIP3    H127317   1.941   1.385   5.112  1.3110  0.2022  1.2505
 1942TIP3    H227318   1.905   1.532   5.118 -1.4503 -0.3725  0.1944
 1943TIP3   OH227319   6.394   3.556  10.843 -0.5845 -0.0375 -0.1328
 1943TIP3    H127320   6.354   3.631  10.800 -0.5387 -0.2559 -0.5535
 1943TIP3    H227321   6.324   3.520  10.897 -0.0604  1.5508  1.7522
 1944TIP3   OH227322   6.065   5.686   2.486  0.4026 -0.0643 -0.4096
 1944TIP3    H127323   6.017   5.709   2.565 -0.3617 -0.7520 -0.6593
 1944TIP3    H227324   6.060   5.764   2.430 -1.3812 -0.4763 -0.8846
 1945TIP3   OH227325   1.373   5.815  12.953  0.2610  0.2049 -0.4796
 1945TIP3    H127326   1.420   5.832  12.871  0.5346  1.9398 -0.0016
 1945TIP3    H227327   1.440   5.780  13.012  0.1068 -0.8589 -0.9122
 1946TIP3   OH227328   4.198   5.582   0.559 -0.5554 -0.0200  0.0195
 1946TIP3    H127329   4.124   5.631   0.525 -0.0188  0.5440 -0.3481
 1946TIP3    H227330   4.212   5.512   0.496 -0.9723 -0.3219  0.2570
 1947TIP3   OH227331   1.887   6.367  11.267 -0.4912 -0.0485  0.7734
 1947TIP3    H127332   1.938   6.363  11.348  3.3685  0.5134 -1.3902
 1947TIP3    H227333   1.849   6.455  11.267 -0.0457  0.1616  1.7111
 1948TIP3   OH227334   6.055   6.124  12.774  0.1480 -0.1906  0.1241
 1948TIP3    H127335   5.968   6.110  12.736  0.2012 -1.4777  0.4216
 1948TIP3    H227336   6.048   6.088  12.863  0.9723 -0.2938  0.1567
 1949TIP3   OH227337   3.700   3.236  12.358  0.1358 -0.7111 -0.3157
 1949TIP3    H127338   3.615   3.251  12.315 -1.0273 -0.0986  2.0515
 1949TIP3    H227339   3.681   3.175  12.429  1.6590 -0.4325  0.3669
 1950TIP3   OH227340   0.466   0.527  11.424 -0.0373 -0.0243 -0.1005
 1950TIP3    H127341   0.520   0.585  11.370  0.6256 -0.5526 -0.0239
 1950TIP3    H227342   0.510   0.527  11.509 -0.1789 -0.4282 -0.0264
 1951TIP3   OH227343   3.119   5.859   2.104  0.3568  0.4760  0.7783
 1951TIP3    H127344   3.111   5.764   2.115  2.0987 -0.0070 -1.4118
 1951TIP3    H227345   3.109   5.873   2.010 -0.0999  2.5051  1.0971
 1952TIP3   OH227346   4.649   4.666  13.422 -0.5409  0.2643  0.5338
 1952TIP3    H127347   4.607   4.592  13.379 -0.1281 -0.4271  1.3049
 1952TIP3    H227348   4.612   4.743  13.378 -0.7752 -0.3947 -0.4527
 1953TIP3   OH227349   4.779   4.275  12.882 -0.0789 -0.2978 -0.7821
 1953TIP3    H127350   4.774   4.210  12.952 -0.1793  0.3091 -0.2128
 1953TIP3    H227351   4.854   4.329  12.907  0.0417 -0.2333 -1.2852
 1954TIP3   OH227352   3.807   4.154  10.801  0.3479 -0.0327 -0.3475
 1954TIP3    H127353   3.855   4.095  10.743  0.9541  0.3133 -0.1974
 1954TIP3    H227354   3.867   4.227  10.817 -0.4929  0.7682 -0.7520
 1955TIP3   OH227355   6.556   5.372  11.342 -0.1488  0.2745  0.2978
 1955TIP3    H127356   6.484   5.398  11.400 -1.3224  0.7864 -1.3334
 1955TIP3    H227357   6.581   5.452  11.296  0.9521 -0.0627  0.2625
 1956TIP3   OH227358   1.015   3.288  15.738  0.8204 -0.2723 -0.1280
 1956TIP3    H127359   0.936   3.253  15.779  0.0814 -0.7937 -1.9185
 1956TIP3    H227360   0.999   3.281  15.644  3.4255 -1.4180 -0.5827
 1957TIP3   OH227361   3.455   5.269   2.390  0.3949 -0.3002  0.1621
 1957TIP3    H127362   3.410   5.310   2.317  1.0055 -1.5201 -0.9330
 1957TIP3    H227363   3.411   5.184   2.402 -1.0592  0.6758  2.5952
 1958TIP3   OH227364   1.498   6.773  14.241 -0.1402  0.2067 -0.1850
 1958TIP3    H127365   1.577   6.723  14.264  0.2504  0.0254 -1.7741
 1958TIP3    H227366   1.431   6.740  14.300  0.3994 -1.3815 -0.3987
 1959TIP3   OH227367   6.186   5.206   1.963 -0.5522  0.2722 -0.1231
 1959TIP3    H127368   6.148   5.139   2.020  0.2602 -1.4729 -1.5696
 1959TIP3    H227369   6.249   5.252   2.019 -0.1545 -1.0417  0.5391
 1960TIP3   OH227370   4.974   2.878  15.152  0.0229  0.0170  0.4622
 1960TIP3    H127371   4.985   2.930  15.232  2.5111 -0.3055  0.3824
 1960TIP3    H227372   5.050   2.820  15.150 -2.0996 -2.9711 -0.0122
 1961TIP3   OH227373   1.917   1.982  11.316  0.5534 -0.0288 -0.1820
 1961TIP3    H127374   1.909   1.905  11.372  1.2246  0.1119  0.1055
 1961TIP3    H227375   1.890   2.055  11.371  2.0275  0.2219  0.2439
 1962TIP3   OH227376   5.857   3.674  15.104  0.1804 -0.7164 -0.3404
 1962TIP3    H127377   5.808   3.593  15.089  0.1931 -0.8042  0.0666
 1962TIP3    H227378   5.897   3.694  15.020  0.0040 -1.0182 -0.4989
 1963TIP3   OH227379   4.704   2.794   2.957  0.6655  0.2974  0.0111
 1963TIP3    H127380   4.771   2.740   2.914  0.6183  0.6169 -0.4732
 1963TIP3    H227381   4.622   2.749   2.937  0.6065  0.6452 -0.5594
 1964TIP3   OH227382   6.783   4.506  16.596 -0.2779 -0.0265 -0.4812
 1964TIP3    H127383   6.717   4.526  16.662  0.7571 -0.9206  0.8730
 1964TIP3    H227384   6.826   4.427  16.628  0.1505 -0.5910 -2.3281
 1965TIP3   OH227385   0.453   4.695   5.334 -0.0857 -0.2165 -0.0940
 1965TIP3    H127386   0.416   4.772   5.290  1.6953  0.7827  0.0652
 1965TIP3    H227387   0.473   4.725   5.422 -2.0858 -1.7474  0.9658
 1966TIP3   OH227388   3.220   5.383  15.314 -0.4216  0.5137 -0.0902
 1966TIP3    H127389   3.213   5.384  15.409 -1.3317  0.0038 -0.1470
 1966TIP3    H227390   3.130   5.382  15.283 -0.1861  2.4061 -0.9990
 1967TIP3   OH227391   0.326   5.486   4.391  1.0305  0.2255 -0.2474
 1967TIP3    H127392   0.378   5.555   4.349  0.6819  0.8749  0.3688
 1967TIP3    H227393   0.265   5.533   4.448  1.1306 -0.6218  0.5716
 1968TIP3   OH227394   4.341   5.587  13.628  0.3448  0.6970  0.1451
 1968TIP3    H127395   4.417   5.608  13.682  1.9434 -1.2172 -1.2210
 1968TIP3    H227396   4.298   5.672  13.615  2.4024  1.9116  0.7369
 1969TIP3   OH227397   5.406   0.501  14.567 -0.1247  0.0788  0.0279
 1969TIP3    H127398   5.441   0.527  14.652  0.1149  0.3103 -0.1397
 1969TIP3    H227399   5.357   0.577  14.536  1.6803  0.8640 -1.0592
 1970TIP3   OH227400   0.197   5.296   5.383 -0.1072 -0.2247 -0.1043
 1970TIP3    H127401   0.177   5.214   5.339  0.2721 -0.6831  0.5609
 1970TIP3    H227402   0.113   5.341   5.392 -0.3788 -0.7341 -0.0924
 1971TIP3   OH227403   3.753   0.348   3.176  0.2033 -0.2563  0.3716
 1971TIP3    H127404   3.688   0.378   3.239 -0.2996 -0.7690  0.1081
 1971TIP3    H227405   3.740   0.253   3.171  0.1601 -0.2146 -0.5789
 1972TIP3   OH227406   3.896   3.959  15.591 -0.2195 -0.5995 -0.5331
 1972TIP3    H127407   3.839   4.012  15.646 -0.0437  0.0932 -1.0185
 1972TIP3    H227408   3.877   3.985  15.502  1.2131  0.0249 -0.6915
 1973TIP3   OH227409   6.591   2.609  10.986 -0.0277  0.0126  0.2585
 1973TIP3    H127410   6.641   2.688  11.006 -1.4362  1.8305 -2.6911
 1973TIP3    H227411   6.656   2.548  10.952  0.8128  0.7072  0.5918
 1974TIP3   OH227412   5.332   3.603  11.203  0.4642  0.4558  0.0599
 1974TIP3    H127413   5.340   3.522  11.255 -2.9796  0.3873  0.7189
 1974TIP3    H227414   5.250   3.592  11.154 -0.7691  3.9808  1.0397
 1975TIP3   OH227415   2.553   2.765   6.087  0.0271  0.2181  0.1617
 1975TIP3    H127416   2.519   2.770   6.176 -0.2082 -0.3362  0.1076
 1975TIP3    H227417   2.568   2.671   6.072  0.0526  0.3046 -0.3883
 1976TIP3   OH227418   4.137   3.273  11.574  0.3126 -0.0745  0.1522
 1976TIP3    H127419   4.045   3.246  11.579  0.2669  0.2502  1.9322
 1976TIP3    H227420   4.173   3.223  11.501 -0.7990 -1.7732  0.6957
 1977TIP3   OH227421   3.502   0.528   5.372  0.4887  0.3089 -0.3902
 1977TIP3    H127422   3.452   0.607   5.352 -0.1715  0.3259  1.1652
 1977TIP3    H227423   3.457   0.459   5.324  0.1978  0.6501 -0.6183
 1978TIP3   OH227424   6.688   4.443  16.337 -0.1254 -0.0947 -0.4674
 1978TIP3    H127425   6.742   4.375  16.298 -1.3835 -1.3075 -0.1861
 1978TIP3    H227426   6.723   4.453  16.426 -0.4564 -1.0088 -0.2214
 1979TIP3   OH227427   0.981   3.539  10.639 -0.0905 -0.3222  0.0442
 1979TIP3    H127428   0.942   3.625  10.625 -0.5101 -0.6656 -1.0522
 1979TIP3    H227429   0.974   3.524  10.733 -2.3621 -0.2333 -0.0446
 1980TIP3   OH227430   4.206   5.371  16.630 -0.7023  0.8402 -0.2213
 1980TIP3    H127431   4.130   5.316  16.612 -2.0828  2.3473  0.6352
 1980TIP3    H227432   4.281   5.316  16.612 -1.9994 -0.7040 -1.1617
 1981TIP3   OH227433   3.220   0.622  11.336 -0.2315  0.4939 -0.1207
 1981TIP3    H127434   3.286   0.555  11.356 -0.1355  0.6475  0.0810
 1981TIP3    H227435   3.137   0.576  11.340 -0.0669  0.0238 -1.5224
 1982TIP3   OH227436   4.976   6.572   1.847 -0.1197 -0.5432 -0.4836
 1982TIP3    H127437   5.019   6.619   1.776 -0.9967 -1.6167 -1.7572
 1982TIP3    H227438   5.049   6.544   1.903  0.4319  2.3101  0.3878
 1983TIP3   OH227439   1.021   4.496  15.125 -0.4398  0.4396 -0.3569
 1983TIP3    H127440   0.959   4.505  15.197  0.4049 -1.2141  0.6415
 1983TIP3    H227441   1.105   4.523  15.162  0.4315 -2.4469  0.0559
 1984TIP3   OH227442   4.848   2.717   6.455 -0.0980  0.0638 -0.1534
 1984TIP3    H127443   4.774   2.720   6.515 -1.8602 -0.0647 -2.1855
 1984TIP3    H227444   4.858   2.624   6.434 -1.1430  0.2756 -1.8469
 1985TIP3   OH227445   3.586   1.441   1.708  0.3457  0.2028 -0.5001
 1985TIP3    H127446   3.632   1.518   1.742 -0.6738  0.7649 -0.3744
 1985TIP3    H227447   3.620   1.368   1.761  0.8239  0.6581 -0.1737
 1986TIP3   OH227448   6.046   5.951   2.578 -0.1978  0.3442  0.7656
 1986TIP3    H127449   6.133   5.967   2.615  0.3792 -0.7950 -0.0274
 1986TIP3    H227450   5.989   6.012   2.625  0.9031  0.6482  1.7823
 1987TIP3   OH227451   2.197   1.410   0.131 -0.3899  0.0500 -0.1253
 1987TIP3    H127452   2.279   1.365   0.148 -0.4740 -0.0203  0.0983
 1987TIP3    H227453   2.222   1.498   0.106 -0.2155 -0.1852 -0.7775
 1988TIP3   OH227454   1.914   6.322   0.222 -0.1922 -0.1968  0.3962
 1988TIP3    H127455   1.954   6.355   0.302 -0.8857  1.2659  0.1749
 1988TIP3    H227456   1.856   6.393   0.193  1.4139  0.1033 -2.4103
 1989TIP3   OH227457   2.154   5.739  16.724 -0.6311 -0.3099 -0.1227
 1989TIP3    H127458   2.230   5.789  16.753 -1.3409  0.7113  0.0319
 1989TIP3    H227459   2.189   5.676  16.661  0.5077 -0.6761  0.8626
 1990TIP3   OH227460   0.833   5.961  11.556 -0.5392 -0.7083  0.0259
 1990TIP3    H127461   0.844   5.910  11.476  1.3165 -0.0058 -0.2199
 1990TIP3    H227462   0.875   5.909  11.625 -1.3123 -0.8859  0.3753
 1991TIP3   OH227463   4.041   6.228   5.549 -0.2739  0.2472  0.0732
 1991TIP3    H127464   4.084   6.272   5.621  0.1796  0.2192 -0.1772
 1991TIP3    H227465   3.974   6.173   5.590  0.6864 -0.5930  0.5561
 1992TIP3   OH227466   5.574   4.859   6.000 -0.4844  0.6694  0.4567
 1992TIP3    H127467   5.561   4.953   5.993  0.5670  0.7309 -0.9316
 1992TIP3    H227468   5.587   4.829   5.910  0.7670 -0.5645  1.0028
 1993TIP3   OH227469   4.394   1.655  15.446  0.6728 -0.2268 -0.5309
 1993TIP3    H127470   4.470   1.627  15.497  0.4802 -0.3368 -0.3034
 1993TIP3    H227471   4.426   1.659  15.356  1.5779  2.0030 -0.1605
 1994TIP3   OH227472   1.750   4.430   1.182 -0.0085 -0.5693  0.3156
 1994TIP3    H127473   1.725   4.475   1.102 -2.4741 -0.9424  0.8019
 1994TIP3    H227474   1.769   4.340   1.155 -0.2156 -0.5376  0.0660
 1995TIP3   OH227475   3.319   4.758  15.267  0.2625  0.2303  0.4700
 1995TIP3    H127476   3.307   4.681  15.322  1.3719 -0.7972 -0.6833
 1995TIP3    H227477   3.401   4.797  15.298 -0.8188  1.5961  1.7549
 1996TIP3   OH227478   2.008   6.153   2.752 -0.3703  0.0491  1.0384
 1996TIP3    H127479   2.041   6.097   2.683 -2.4996 -1.7735  1.3751
 1996TIP3    H227480   2.019   6.242   2.719 -0.9432 -0.7444 -1.4782
 1997TIP3   OH227481   2.176   5.936  12.441 -0.7873 -0.3310 -0.1315
 1997TIP3    H127482   2.103   5.877  12.461 -1.1442  0.4489  1.0021
 1997TIP3    H227483   2.134   6.013  12.404 -0.2302 -1.2041 -2.7434
 1998TIP3   OH227484   1.328   5.554  14.342 -0.4965 -0.3651 -0.0336
 1998TIP3    H127485   1.419   5.582  14.351 -0.5993  0.1038 -0.4069
 1998TIP3    H227486   1.277   5.632  14.364 -0.8395 -0.9314  1.3112
 1999TIP3   OH227487   3.000   5.102   1.842 -0.3699 -0.0479 -0.3378
 1999TIP3    H127488   2.940   5.074   1.773  0.9024 -0.9011 -1.1340
 1999TIP3    H227489   2.949   5.095   1.922 -1.0455 -1.7985 -0.8624
 2000TIP3   OH227490   4.066   1.569  11.777 -1.1630 -0.0695  0.3292
 2000TIP3    H127491   4.009   1.554  11.702  0.2595  0.8050 -0.9909
 2000TIP3    H227492   4.018   1.632  11.831 -2.2786 -0.8385  0.2809
 2001TIP3   OH227493   3.586   0.857   0.296 -1.2457  0.4684 -0.0735
 2001TIP3    H127494   3.647   0.798   0.251  0.2731  1.9590 -0.0821
 2001TIP3    H227495   3.551   0.805   0.368  0.7693 -0.2096  0.4860
 2002TIP3   OH227496   1.891   1.759   0.633 -0.5558 -0.2193  0.4102
 2002TIP3    H127497   1.928   1.739   0.719  0.6494  1.8603  0.4359
 2002TIP3    H227498   1.953   1.722   0.570 -0.5843 -0.3248  0.4447
 2003TIP3   OH227499   0.544   4.622  11.822  0.3097  0.3371 -0.2279
 2003TIP3    H127500   0.634   4.629  11.854 -0.1964  0.6472  1.1729
 2003TIP3    H227501   0.520   4.531  11.838  0.5311  0.1250 -1.0627
 2004TIP3   OH227502   0.948   6.048  12.487  0.1759 -0.3842  0.1958
 2004TIP3    H127503   0.924   6.035  12.578  1.1223  0.8056  0.6410
 2004TIP3    H227504   0.899   6.126  12.460 -0.3500 -0.9110 -0.4315
 2005TIP3   OH227505   3.893   1.595  13.774  0.0067 -0.1455  0.4513
 2005TIP3    H127506   3.976   1.595  13.727 -0.4705 -0.3891 -0.4018
 2005TIP3    H227507   3.916   1.565  13.862  1.0229  0.9885  0.6024
 2006TIP3   OH227508   2.363   4.604  16.911  0.3678  0.2660 -0.2836
 2006TIP3    H127509   2.314   4.585  16.832 -0.2499  1.5428 -0.2268
 2006TIP3    H227510   2.453   4.618  16.881 -0.0425  1.7067 -0.9063
 2007TIP3   OH227511   3.399   4.925   0.171  0.7848 -0.4870 -0.2185
 2007TIP3    H127512   3.479   4.893   0.214  0.4372 -1.3473 -0.1814
 2007TIP3    H227513   3.425   5.007   0.129  1.6082 -0.6000  0.0543
 2008TIP3   OH227514   1.906   1.929   5.808  0.2559 -0.7923  0.0435
 2008TIP3    H127515   1.938   1.978   5.732 -0.7109 -0.8916 -0.4394
 2008TIP3    H227516   1.984   1.885   5.843  1.4663  2.0972  1.2999
 2009TIP3   OH227517   3.977   4.042  11.884  0.5457  0.0427 -0.1355
 2009TIP3    H127518   3.995   4.129  11.920 -1.4159  0.8439 -0.9300
 2009TIP3    H227519   4.063   4.002  11.874  1.3814  0.7342  2.9504
 2010TIP3   OH227520   5.307   2.696   2.764 -0.6257  0.2928 -0.3861
 2010TIP3    H127521   5.373   2.661   2.704 -0.1475  0.4122  0.0638
 2010TIP3    H227522   5.342   2.779   2.793 -0.9276  0.3055 -0.0519
 2011TIP3   OH227523   3.403   2.958   0.479  0.7247 -0.1223 -0.4137
 2011TIP3    H127524   3.392   2.981   0.387  1.4065  1.4228 -0.1343
 2011TIP3    H227525   3.368   3.033   0.527  0.7724 -0.7234  0.5913
 2012TIP3   OH227526   2.256   5.608  14.902 -0.3820 -0.4628 -0.1599
 2012TIP3    H127527   2.234   5.686  14.953  1.3087 -0.7660  1.1238
 2012TIP3    H227528   2.238   5.535  14.960 -0.7220 -0.9613 -0.8812
 2013TIP3   OH227529   2.319   0.825   1.115 -0.9421 -0.2930 -0.2407
 2013TIP3    H127530   2.384   0.881   1.158 -0.5192 -0.5854 -0.4961
 2013TIP3    H227531   2.264   0.886   1.066 -1.3682  0.0372  0.6258
 2014TIP3   OH227532   1.658   2.007  16.094 -0.3263  0.4545  0.1895
 2014TIP3    H127533   1.606   1.987  16.172 -0.7364  0.8089  0.0159
 2014TIP3    H227534   1.700   2.091  16.115 -1.1692  1.0275 -0.3070
 2015TIP3   OH227535   3.123   3.227  14.003  0.0036 -0.3540  0.6601
 2015TIP3    H127536   3.088   3.310  13.971  1.3633  0.7397  1.8563
 2015TIP3    H227537   3.052   3.187  14.052 -0.9804 -0.3940 -0.7557
 2016TIP3   OH227538   4.278   6.317  16.875 -0.1036 -0.5672  0.3354
 2016TIP3    H127539   4.359   6.314  16.926  1.0039 -0.8912 -1.3335
 2016TIP3    H227540   4.270   6.409  16.849 -0.9372 -0.3066  1.4840
 2017TIP3   OH227541   4.366   5.305  13.092 -0.4528 -0.2610  0.1581
 2017TIP3    H127542   4.437   5.287  13.152 -0.5390  1.1167  0.7009
 2017TIP3    H227543   4.408   5.316  13.007 -0.1226 -0.3075  0.3179
 2018TIP3   OH227544   5.329   1.478   2.502  0.1122 -0.5775  0.2423
 2018TIP3    H127545   5.362   1.390   2.518 -0.5271 -0.7089  0.8761
 2018TIP3    H227546   5.259   1.490   2.566 -0.5695 -0.0200 -0.5872
 2019TIP3   OH227547   6.048   1.470  15.774 -0.3623 -0.3646 -0.0881
 2019TIP3    H127548   6.095   1.471  15.690  2.2391 -0.4687  1.2530
 2019TIP3    H227549   6.057   1.381  15.806  0.0039  0.0270  0.9558
 2020TIP3   OH227550   0.316   4.394   3.573  0.3663 -0.0571  0.1063
 2020TIP3    H127551   0.341   4.310   3.534  0.4237  1.0256 -2.3664
 2020TIP3    H227552   0.299   4.373   3.665  2.2763 -2.3898  0.0359
 2021TIP3   OH227553   5.256   4.284   4.833 -0.3670  1.1691 -0.6720
 2021TIP3    H127554   5.201   4.239   4.897  1.8040 -0.7375 -0.0378
 2021TIP3    H227555   5.199   4.352   4.797 -2.2204  1.2082  2.0060
 2022TIP3   OH227556   2.843   3.313   3.132  0.5310  0.7195 -0.1603
 2022TIP3    H127557   2.909   3.338   3.198  1.1963  2.0042 -1.2707
 2022TIP3    H227558   2.892   3.261   3.068 -0.2382 -1.0544  0.5913
 2023TIP3   OH227559   2.015   0.480   2.088  0.0711 -0.0270  0.0883
 2023TIP3    H127560   1.957   0.551   2.115 -0.1822 -0.2359  0.0968
 2023TIP3    H227561   1.981   0.453   2.003 -0.0751 -0.3989  0.2609
 2024TIP3   OH227562   4.852   3.405  16.667  0.3397 -0.3766 -0.6235
 2024TIP3    H127563   4.761   3.433  16.665  0.5110  0.2094 -0.4993
 2024TIP3    H227564   4.853   3.322  16.619 -0.6722 -1.6310  1.3610
 2025TIP3   OH227565   5.308   5.566   0.369  0.5046  0.4199  0.1281
 2025TIP3    H127566   5.282   5.640   0.314  1.4992  0.0240 -0.9037
 2025TIP3    H227567   5.351   5.506   0.310 -0.8618 -1.3350  0.8135
 2026TIP3   OH227568   6.681   2.623   4.870 -0.1748  0.4943 -0.4681
 2026TIP3    H127569   6.655   2.715   4.877 -1.4463  0.0472  1.2688
 2026TIP3    H227570   6.740   2.609   4.944  0.2761 -0.0365 -0.9126
 2027TIP3   OH227571   5.439   5.436  15.896  0.0187  0.0278  0.1415
 2027TIP3    H127572   5.462   5.440  15.988 -0.9209  2.8111  0.3464
 2027TIP3    H227573   5.506   5.381  15.857  0.6569 -0.9042  2.4054
 2028TIP3   OH227574   6.136   2.835   0.558  0.3566  0.5670  0.0788
 2028TIP3    H127575   6.044   2.818   0.577  0.5391 -0.6709 -0.0984
 2028TIP3    H227576   6.179   2.751   0.571  1.4369  1.0906 -0.0289
 2029TIP3   OH227577   6.597   1.975   0.142  0.3029 -0.3848 -0.1168
 2029TIP3    H127578   6.585   1.992   0.048  0.3851 -0.6545 -0.1767
 2029TIP3    H227579   6.603   1.880   0.149  1.0764 -0.3335  0.0659
 2030TIP3   OH227580   6.480   4.303  13.522  0.4861  0.3826 -0.0021
 2030TIP3    H127581   6.573   4.303  13.546  0.2109  0.9079  1.1354
 2030TIP3    H227582   6.446   4.221  13.559  0.0740  1.1626  1.4124
 2031TIP3   OH227583   1.373   3.667   3.250  0.0887  0.7235 -0.4876
 2031TIP3    H127584   1.372   3.762   3.255 -1.5679  0.7764 -1.2571
 2031TIP3    H227585   1.281   3.642   3.253  0.4233 -0.7766 -1.7057
 2032TIP3   OH227586   0.449   4.692   3.840 -0.3368 -0.3979 -0.8919
 2032TIP3    H127587   0.486   4.697   3.752  2.7869 -0.5815  0.2805
 2032TIP3    H227588   0.367   4.740   3.834 -0.1042 -0.1720 -3.8145
 2033TIP3   OH227589   5.110   6.445  16.882  0.2464  0.2650  0.5598
 2033TIP3    H127590   5.098   6.427  16.789  2.3871  2.3851 -0.2189
 2033TIP3    H227591   5.185   6.391  16.908  0.0324  0.1353  0.9246
 2034TIP3   OH227592   6.345   4.743   5.511 -0.5785 -0.3637  0.2510
 2034TIP3    H127593   6.374   4.697   5.591 -1.0641  0.3184  0.8330
 2034TIP3    H227594   6.426   4.763   5.464 -0.2495 -0.3519  0.8095
 2035TIP3   OH227595   3.806   5.577  11.929 -0.3763 -0.6461  0.5715
 2035TIP3    H127596   3.751   5.506  11.964 -2.0944  1.1129  1.6862
 2035TIP3    H227597   3.861   5.603  12.003  0.2763 -0.8297  0.1556
 2036TIP3   OH227598   4.918   1.591  14.762 -0.1174  0.1093  0.4686
 2036TIP3    H127599   4.951   1.503  14.745  3.1172  1.0150  1.2552
 2036TIP3    H227600   4.953   1.643  14.689  0.9670  1.2715  1.7486
 2037TIP3   OH227601   4.578   0.561  11.578 -0.0245 -0.8890 -0.0525
 2037TIP3    H127602   4.547   0.643  11.616 -2.7036 -1.4005 -0.8909
 2037TIP3    H227603   4.609   0.585  11.491 -1.9130 -0.8477 -0.7646
 2038TIP3   OH227604   3.399   4.447   0.310  0.3127 -0.2983  0.5503
 2038TIP3    H127605   3.432   4.500   0.237 -0.5702 -0.2906  0.1438
 2038TIP3    H227606   3.375   4.511   0.377  0.4563 -0.2629  0.5684
 2039TIP3   OH227607   2.298   1.426   5.561  0.0258 -0.0592  0.2782
 2039TIP3    H127608   2.292   1.520   5.581  0.4787 -0.2383  1.3571
 2039TIP3    H227609   2.390   1.405   5.574 -0.2104 -0.8125  0.8092
 2040TIP3   OH227610   6.607   3.951  13.171 -0.4441 -0.4436  0.2864
 2040TIP3    H127611   6.687   3.957  13.223  1.0922 -4.1137 -1.3350
 2040TIP3    H227612   6.627   4.001  13.092  0.2848 -1.2684 -0.0737
 2041TIP3   OH227613   4.971   2.729  11.790  0.2824  0.2773 -0.4328
 2041TIP3    H127614   4.965   2.710  11.696  3.1268  1.3089 -0.9210
 2041TIP3    H227615   5.060   2.702  11.814 -0.0786  0.8733  1.7858
 2042TIP3   OH227616   1.318   2.945  15.234 -0.2037  0.0438  0.4613
 2042TIP3    H127617   1.343   2.906  15.318 -0.0258  1.6899  1.1968
 2042TIP3    H227618   1.226   2.970  15.245 -0.7253 -1.3091 -0.4689
 2043TIP3   OH227619   5.294   6.401   2.853  0.1541  0.2349 -0.0949
 2043TIP3    H127620   5.323   6.317   2.815 -2.0756  0.1045 -1.7055
 2043TIP3    H227621   5.263   6.379   2.940  1.4297 -0.2427  0.2547
 2044TIP3   OH227622   1.853   0.687   3.283  0.0106 -0.0547  0.3915
 2044TIP3    H127623   1.932   0.737   3.264 -1.2793  1.7872 -0.4277
 2044TIP3    H227624   1.788   0.753   3.306 -1.5381 -1.4450  0.1768
 2045TIP3   OH227625   4.849   5.796  11.002  0.3281  0.2777  0.4817
 2045TIP3    H127626   4.873   5.888  10.998  1.6831 -0.0851 -0.5625
 2045TIP3    H227627   4.931   5.749  10.984 -0.7183 -1.0788 -1.0923
 2046TIP3   OH227628   6.462   4.473   2.852 -0.2896  0.0236 -0.1056
 2046TIP3    H127629   6.552   4.440   2.854 -0.1217  0.3603 -1.3110
 2046TIP3    H227630   6.408   4.396   2.873  0.2567 -0.2479  0.3302
 2047TIP3   OH227631   0.898   2.532  10.643  0.0435  0.1280  0.4085
 2047TIP3    H127632   0.981   2.484  10.647 -0.1474 -0.2423  0.0130
 2047TIP3    H227633   0.875   2.532  10.550 -0.9337 -0.7048  0.6272
 2048TIP3   OH227634   3.444   1.182  12.790  0.0954  0.1963  0.6594
 2048TIP3    H127635   3.458   1.170  12.884  1.8228 -0.0293  0.3918
 2048TIP3    H227636   3.531   1.182  12.752 -0.6311 -1.1744 -1.1373
 2049TIP3   OH227637   2.544   5.062  12.181  0.4081  0.3942 -0.0411
 2049TIP3    H127638   2.608   5.100  12.242  2.0043 -0.1364 -1.3284
 2049TIP3    H227639   2.532   4.972  12.211  1.0631  0.1849 -0.3903
 2050TIP3   OH227640   4.569   1.502   6.327 -0.3004 -0.2661  0.4202
 2050TIP3    H127641   4.586   1.574   6.387 -1.1687 -0.9230  1.4899
 2050TIP3    H227642   4.504   1.536   6.265  1.4685  0.8007 -0.9394
 2051TIP3   OH227643   6.037   0.312  15.247 -0.1168 -0.1698  0.0251
 2051TIP3    H127644   6.080   0.397  15.262 -0.2145 -0.3910  1.7853
 2051TIP3    H227645   5.970   0.307  15.315  0.3634 -1.9643  0.4015
 2052TIP3   OH227646   4.347   2.443  10.118 -0.2580  0.3302  0.0222
 2052TIP3    H127647   4.270   2.461  10.172 -0.3895 -1.5853  0.5386
 2052TIP3    H227648   4.328   2.360  10.075  0.9046  0.5813 -1.0224
 2053TIP3   OH227649   0.650   4.502  13.423 -0.3608  0.4822  0.0068
 2053TIP3    H127650   0.682   4.496  13.513  0.6935  1.3544 -0.2928
 2053TIP3    H227651   0.698   4.433  13.376 -1.4875 -0.5092  0.2377
 2054TIP3   OH227652   4.283   2.024   5.731 -0.3533  0.1832  0.6858
 2054TIP3    H127653   4.235   2.104   5.752  0.1523  0.7610 -0.2994
 2054TIP3    H227654   4.270   2.011   5.637  0.6849 -0.1420  0.5729
 2055TIP3   OH227655   0.067   3.160   4.197 -0.3666 -0.7606  0.1457
 2055TIP3    H127656   0.116   3.159   4.278  1.4051 -0.7532 -0.8764
 2055TIP3    H227657   0.098   3.238   4.151 -0.7900 -1.1613 -0.8539
 2056TIP3   OH227658   0.213   0.807   5.629  0.6833  0.0308 -0.0404
 2056TIP3    H127659   0.192   0.875   5.565  0.3559  0.2590  0.3029
 2056TIP3    H227660   0.196   0.725   5.583 -3.2963  0.1265  0.8322
 2057TIP3   OH227661   1.393   5.250  16.832 -0.0705 -0.1860  0.1768
 2057TIP3    H127662   1.424   5.174  16.881  0.5043  0.1512  0.3460
 2057TIP3    H227663   1.327   5.289  16.888 -1.9779 -1.7755 -0.8406
 2058TIP3   OH227664   1.601   5.218  11.789  0.0108 -0.2219 -0.2939
 2058TIP3    H127665   1.531   5.268  11.747 -0.5978 -0.2911  0.5990
 2058TIP3    H227666   1.556   5.145  11.832  0.3412  0.7843  1.9201
 2059TIP3   OH227667   3.711   4.831   4.036 -0.2399  0.8345  0.1044
 2059TIP3    H127668   3.767   4.908   4.046  0.6226  0.2605 -0.3157
 2059TIP3    H227669   3.633   4.853   4.088 -0.1906  2.1598 -0.3336
 2060TIP3   OH227670   2.158   2.407  12.951 -0.1801 -0.1472  0.3016
 2060TIP3    H127671   2.128   2.495  12.927  0.5997  0.1761  0.4991
 2060TIP3    H227672   2.079   2.353  12.945 -1.0600  0.8845  1.8586
 2061TIP3   OH227673   6.580   1.158   3.482  0.0773  0.5291  0.6492
 2061TIP3    H127674   6.584   1.186   3.390 -0.6786  0.1762  0.5000
 2061TIP3    H227675   6.547   1.068   3.478  0.3367  0.4069  1.2507
 2062TIP3   OH227676   4.793   5.921  16.402 -0.4276 -0.6554 -0.0404
 2062TIP3    H127677   4.728   5.855  16.429 -0.6471 -0.5906 -0.4035
 2062TIP3    H227678   4.877   5.884  16.429 -0.7858  0.6318  3.3230
 2063TIP3   OH227679   6.044   0.613   0.416  0.0243 -0.4483  0.1944
 2063TIP3    H127680   5.973   0.644   0.360 -0.6877 -1.7043  0.3725
 2063TIP3    H227681   6.068   0.527   0.380  1.5521 -0.0068  0.0605
 2064TIP3   OH227682   1.114   2.174   1.551  0.1980 -0.2175  0.5733
 2064TIP3    H127683   1.210   2.169   1.549  0.1594 -1.0208 -0.9573
 2064TIP3    H227684   1.094   2.263   1.521  0.4664 -0.2898  0.1683
 2065TIP3   OH227685   1.722   4.845  10.760  0.0330 -0.2470 -0.2119
 2065TIP3    H127686   1.640   4.860  10.712 -0.9874  0.2053  1.5744
 2065TIP3    H227687   1.778   4.919  10.736 -0.8906  0.5836  0.1319
 2066TIP3   OH227688   2.821   1.460  10.711 -0.4005 -1.0630  0.1956
 2066TIP3    H127689   2.889   1.517  10.675  2.6072 -4.2594  0.3811
 2066TIP3    H227690   2.742   1.483  10.661  1.1737  1.5729 -1.2991
 2067TIP3   OH227691   3.196   1.194   4.241  0.0561 -0.5772  0.9267
 2067TIP3    H127692   3.131   1.261   4.258 -1.5312 -1.5168 -1.0321
 2067TIP3    H227693   3.146   1.113   4.229  1.1925 -0.9329 -2.9488
 2068TIP3   OH227694   2.537   4.945  17.184 -0.3404  0.7376 -0.4612
 2068TIP3    H127695   2.628   4.973  17.198  0.1748 -0.5224 -1.1195
 2068TIP3    H227696   2.540   4.892  17.105 -1.1864 -1.4179  0.8554
 2069TIP3   OH227697   3.586   6.582   0.297  0.6504 -0.2539  0.5624
 2069TIP3    H127698   3.536   6.500   0.294  0.4096 -0.0820 -1.1572
 2069TIP3    H227699   3.669   6.558   0.338  0.6332 -1.4172 -0.0333
 2070TIP3   OH227700   6.603   1.479  12.859 -0.3528  0.0320  0.2294
 2070TIP3    H127701   6.608   1.386  12.883  1.0122  0.2105  0.7097
 2070TIP3    H227702   6.663   1.488  12.785  0.4795  0.7576  0.9741
 2071TIP3   OH227703   6.284   6.649   2.472  0.0415 -0.0301  1.0156
 2071TIP3    H127704   6.245   6.598   2.543 -3.7407  0.0577 -0.7419
 2071TIP3    H227705   6.332   6.585   2.420 -0.0034 -0.7128  1.7865
 2072TIP3   OH227706   1.512   6.143   0.129 -0.3908  0.4039 -0.0987
 2072TIP3    H127707   1.428   6.116   0.090  0.3287 -1.4673 -0.4886
 2072TIP3    H227708   1.488   6.206   0.196 -2.2511 -0.8724  0.5449
 2073TIP3   OH227709   5.867   5.412  12.810 -0.1396  0.1448  0.2174
 2073TIP3    H127710   5.862   5.409  12.905  0.2679 -2.4197  0.2304
 2073TIP3    H227711   5.777   5.426  12.781 -0.2309  1.1648  0.9572
 2074TIP3   OH227712   5.540   6.343   3.928  0.4255  0.5334  0.2592
 2074TIP3    H127713   5.503   6.311   4.011 -0.0257  0.7801  0.1555
 2074TIP3    H227714   5.525   6.271   3.867 -2.5608  1.6962 -0.5328
 2075TIP3   OH227715   1.264   3.306  12.486 -0.3590 -0.0160 -0.7528
 2075TIP3    H127716   1.272   3.225  12.435  2.4691 -0.4766  0.2273
 2075TIP3    H227717   1.343   3.356  12.464 -1.3467  1.8357 -0.2375
 2076TIP3   OH227718   0.635   1.311  13.818  0.0987 -0.2170 -0.4211
 2076TIP3    H127719   0.551   1.298  13.775  0.8669 -2.0720 -1.5033
 2076TIP3    H227720   0.668   1.222  13.834  0.1964  0.3461  3.4726
 2077TIP3   OH227721   0.081   0.180  13.674 -0.2080 -0.0300 -0.0377
 2077TIP3    H127722   0.086   0.098  13.723  2.8995 -0.1126 -0.3291
 2077TIP3    H227723   0.059   0.246  13.739 -1.5055 -0.8610  0.4198
 2078TIP3   OH227724   2.305   3.394  11.762  0.1111 -0.6093  0.2470
 2078TIP3    H127725   2.379   3.413  11.819  0.1986  0.2476 -0.1453
 2078TIP3    H227726   2.239   3.459  11.785  1.8522  3.1135 -3.8497
 2079TIP3   OH227727   3.873   3.943   4.482 -0.3610  0.1618 -0.0425
 2079TIP3    H127728   3.891   3.919   4.573 -1.8847  2.2158  0.8660
 2079TIP3    H227729   3.954   3.983   4.451 -0.4348  1.2513  1.0919
 2080TIP3   OH227730   1.021   6.659   4.182  0.1422 -0.0112 -0.1339
 2080TIP3    H127731   1.064   6.736   4.145  0.0627  0.3588  0.5373
 2080TIP3    H227732   1.045   6.587   4.123 -0.7952  0.7386 -1.4908
 2081TIP3   OH227733   1.082   3.803  10.767  0.2920  0.1648  0.8726
 2081TIP3    H127734   1.173   3.832  10.770  0.2295  0.2788  2.0043
 2081TIP3    H227735   1.069   3.774  10.677  1.1494  1.0897  0.4316
 2082TIP3   OH227736   0.524   6.365   1.151 -0.6828  0.9511  0.2077
 2082TIP3    H127737   0.555   6.311   1.224 -0.4768  0.4876 -0.2152
 2082TIP3    H227738   0.512   6.303   1.079 -2.2655  1.1574  0.2513
 2083TIP3   OH227739   3.109   1.014  14.381  0.1744  0.6036 -0.3830
 2083TIP3    H127740   3.034   1.050  14.334  0.7498  3.2052  0.5427
 2083TIP3    H227741   3.094   1.040  14.472  2.0883  1.0281 -0.1611
 2084TIP3   OH227742   2.553   0.258   5.592 -0.5019  0.1798 -0.4266
 2084TIP3    H127743   2.529   0.238   5.683  0.3431  0.9102 -0.0237
 2084TIP3    H227744   2.627   0.201   5.573 -0.3553  0.3919 -0.4899
 2085TIP3   OH227745   0.999   1.580   0.793 -0.4345 -0.2739 -0.5746
 2085TIP3    H127746   1.025   1.663   0.753  2.3087 -0.8307 -0.1738
 2085TIP3    H227747   1.004   1.596   0.887  0.9726 -1.0671 -0.4816
 2086TIP3   OH227748   1.587   3.923   6.281 -0.1065 -0.7471  0.1549
 2086TIP3    H127749   1.617   3.996   6.336 -0.7938  1.8375 -2.6527
 2086TIP3    H227750   1.500   3.903   6.315 -0.1878  0.2072  0.5646
 2087TIP3   OH227751   2.451   3.049   6.047 -0.0437 -0.2358  0.2380
 2087TIP3    H127752   2.493   2.965   6.065 -1.7883 -1.1015  0.4972
 2087TIP3    H227753   2.397   3.066   6.124 -2.1256 -0.4624 -1.0999
 2088TIP3   OH227754   3.669   5.055  11.155 -0.1077  0.3054  0.0825
 2088TIP3    H127755   3.758   5.086  11.141 -0.2377  0.7148  0.1650
 2088TIP3    H227756   3.657   5.057  11.250 -1.0945  2.8017 -0.0143
 2089TIP3   OH227757   3.894   2.437   2.956  0.1106 -0.2679  0.0106
 2089TIP3    H127758   3.830   2.434   3.027  0.5067 -1.2163  0.3434
 2089TIP3    H227759   3.895   2.529   2.928 -0.9822 -0.1315  0.3694
 2090TIP3   OH227760   5.481   4.151  12.190  0.2674  0.1640  0.1974
 2090TIP3    H127761   5.410   4.215  12.202  0.9541  1.0984 -0.5663
 2090TIP3    H227762   5.545   4.197  12.136  0.1621 -1.6207 -1.5732
 2091TIP3   OH227763   6.509   0.369  10.982 -0.3430  0.0418  0.8073
 2091TIP3    H127764   6.460   0.312  10.922  0.9064  0.1391 -0.3552
 2091TIP3    H227765   6.554   0.309  11.041  0.7959 -0.2151 -0.2760
 2092TIP3   OH227766   5.861   3.012   3.919  0.4317 -0.2867  0.4359
 2092TIP3    H127767   5.856   2.996   3.825  0.2244  1.1022  0.1983
 2092TIP3    H227768   5.800   2.949   3.957 -0.3087 -0.1177 -0.4437
 2093TIP3   OH227769   0.899   4.319   2.576 -0.3081 -0.6773 -0.2525
 2093TIP3    H127770   0.860   4.233   2.593 -0.3854 -0.5076  0.4478
 2093TIP3    H227771   0.825   4.379   2.579 -0.1546 -0.4971 -0.0350
 2094TIP3   OH227772   2.338   1.573   5.051  0.4119  0.0194 -0.4777
 2094TIP3    H127773   2.327   1.486   5.014 -0.2514 -0.6793  1.2461
 2094TIP3    H227774   2.289   1.570   5.133 -1.3096  2.6227 -1.2703
 2095TIP3   OH227775   2.126   0.814   3.863 -0.5214 -0.2512  0.3740
 2095TIP3    H127776   2.140   0.749   3.793 -1.2929  0.1635 -0.1807
 2095TIP3    H227777   2.095   0.892   3.817  0.5466  0.5805  1.0124
 2096TIP3   OH227778   0.986   3.418   4.596 -0.5423  0.8867 -0.0323
 2096TIP3    H127779   0.964   3.422   4.503  0.7925 -0.0459 -0.4169
 2096TIP3    H227780   1.082   3.413   4.598 -0.6218 -2.1711  1.2463
 2097TIP3   OH227781   5.673   6.747   4.696  0.4735  0.0064 -0.1670
 2097TIP3    H127782   5.597   6.759   4.752  0.7966  0.2353  0.2252
 2097TIP3    H227783   5.697   6.836   4.668  1.8814  0.1875  1.4335
 2098TIP3   OH227784   1.495   5.891   4.473 -0.2245  1.2703  0.4400
 2098TIP3    H127785   1.535   5.888   4.560  0.6416  0.9622  0.0416
 2098TIP3    H227786   1.420   5.832   4.478  0.8585 -0.1590  0.4794
 2099TIP3   OH227787   2.623   2.000  14.852 -0.3159  0.2691 -0.0846
 2099TIP3    H127788   2.573   2.079  14.875 -4.5092 -1.8468 -0.9172
 2099TIP3    H227789   2.612   1.942  14.927  0.1032 -0.5806 -0.6589
 2100TIP3   OH227790   2.197   4.580  16.239 -0.6388  0.7301  0.0057
 2100TIP3    H127791   2.269   4.621  16.288  2.5695 -3.6641 -0.5116
 2100TIP3    H227792   2.231   4.567  16.151 -2.5193 -0.4876 -0.6090
 2101TIP3   OH227793   4.779   1.850   2.900 -0.1174 -0.2528 -0.2003
 2101TIP3    H127794   4.809   1.929   2.856  0.3728 -0.2895  0.0646
 2101TIP3    H227795   4.749   1.881   2.986  0.3931 -0.4026  0.0323
 2102TIP3   OH227796   3.741   2.250  11.438 -0.6683 -0.3363 -0.2809
 2102TIP3    H127797   3.713   2.166  11.475 -1.9798 -0.0649 -0.5957
 2102TIP3    H227798   3.742   2.310  11.512  2.3996 -1.0562  0.3830
 2103TIP3   OH227799   3.295   0.396   5.242 -0.0577  0.1108  0.4672
 2103TIP3    H127800   3.295   0.357   5.155  0.0243 -1.8537  1.2914
 2103TIP3    H227801   3.224   0.460   5.240 -0.8098 -0.7249 -0.7040
 2104TIP3   OH227802   2.856   5.197  14.461 -0.3927  0.1767 -0.2925
 2104TIP3    H127803   2.772   5.158  14.440 -1.5923  0.7661  2.8357
 2104TIP3    H227804   2.866   5.269  14.399 -1.4896 -0.7387 -1.5866
 2105TIP3   OH227805   0.232   0.078   5.235  0.5367 -0.5049 -0.2786
 2105TIP3    H127806   0.166   0.012   5.217  0.1719  0.6240 -3.7302
 2105TIP3    H227807   0.183   0.153   5.269  0.5495 -0.8208  0.4729
 2106TIP3   OH227808   2.282   6.214   0.404  0.2870 -0.2690 -0.1163
 2106TIP3    H127809   2.231   6.133   0.397  1.1450 -0.7360 -1.3979
 2106TIP3    H227810   2.340   6.212   0.327 -0.1908  1.9245 -0.5866
 2107TIP3   OH227811   1.043   6.644   0.916  0.0211 -0.7926 -0.0085
 2107TIP3    H127812   1.030   6.727   0.870 -0.1338 -0.3007  0.8899
 2107TIP3    H227813   0.972   6.588   0.885  0.5211 -0.8240 -1.1220
 2108TIP3   OH227814   3.425   0.086   5.383 -0.1686  0.0995  0.1349
 2108TIP3    H127815   3.466   0.000   5.370  0.0005  0.0954  0.6906
 2108TIP3    H227816   3.486   0.148   5.342  0.1571  0.0457  0.5375
 2109TIP3   OH227817   0.084   5.839  14.252  0.5590  0.1083  0.0148
 2109TIP3    H127818   0.144   5.905  14.218  0.6834  0.0411  0.1034
 2109TIP3    H227819   0.028   5.817  14.178 -0.5591  1.5124  0.4134
 2110TIP3   OH227820   2.932   5.095  16.272 -0.2617 -0.1153 -0.0885
 2110TIP3    H127821   2.993   5.165  16.250  1.6699 -2.0020 -1.1378
 2110TIP3    H227822   2.961   5.064  16.358 -2.2761  1.4772  1.2637
 2111TIP3   OH227823   6.439   3.022  12.853  0.0834  0.1002  0.2438
 2111TIP3    H127824   6.402   2.948  12.805 -0.2042  0.0044  0.6132
 2111TIP3    H227825   6.391   3.024  12.936  1.2472 -0.3278  0.9370
 2112TIP3   OH227826   6.161   3.595   4.694 -0.2507 -0.4575  0.2803
 2112TIP3    H127827   6.070   3.621   4.676 -0.6120 -2.5439 -1.1826
 2112TIP3    H227828   6.213   3.659   4.646 -1.0072 -0.4369 -0.5453
 2113TIP3   OH227829   4.203   5.596   5.757  0.5727 -0.6902 -0.4153
 2113TIP3    H127830   4.107   5.594   5.757  0.3783  2.5879 -1.6667
 2113TIP3    H227831   4.228   5.548   5.836 -2.1556 -0.8634  0.4380
 2114TIP3   OH227832   4.041   1.947  15.216 -0.0313  0.2126 -0.2213
 2114TIP3    H127833   3.951   1.980  15.208 -0.5756 -1.1076  0.1984
 2114TIP3    H227834   4.031   1.853  15.232  1.2908  0.4504  2.7524
 2115TIP3   OH227835   2.095   5.952   4.231  0.6564  0.2811 -0.4624
 2115TIP3    H127836   2.084   6.032   4.283  0.0743  1.6746 -2.5631
 2115TIP3    H227837   2.006   5.918   4.219  0.5608  0.9284 -1.8520
 2116TIP3   OH227838   3.454   2.391  10.601  0.0111  0.5008  0.1546
 2116TIP3    H127839   3.460   2.480  10.566  0.6562  0.3629 -0.1115
 2116TIP3    H227840   3.544   2.369  10.626 -0.2402  0.1416  0.7742
 2117TIP3   OH227841   3.155   2.028   2.941  0.5240 -0.0436  0.4397
 2117TIP3    H127842   3.074   1.981   2.924  1.0465 -0.2210 -1.8387
 2117TIP3    H227843   3.218   1.990   2.880  2.3152  0.1865  2.0526
 2118TIP3   OH227844   3.197   3.081  17.031  0.0425  0.3281  0.0253
 2118TIP3    H127845   3.251   3.027  16.973  0.3473 -0.3232  0.9111
 2118TIP3    H227846   3.111   3.080  16.990  0.3819  0.3222 -0.7105
 2119TIP3   OH227847   4.711   6.752   2.718 -0.0747  0.5069  0.1296
 2119TIP3    H127848   4.800   6.725   2.740 -0.5451  0.7198  2.4987
 2119TIP3    H227849   4.716   6.847   2.712 -0.4705  0.7034  2.2054
 2120TIP3   OH227850   5.448   4.834   2.277 -0.0412 -0.0494  0.0220
 2120TIP3    H127851   5.476   4.743   2.287  0.7015  0.2863  1.3044
 2120TIP3    H227852   5.353   4.832   2.289 -0.3001 -0.8826 -1.8449
 2121TIP3   OH227853   4.912   5.761   0.585  0.1112  0.3437  0.0705
 2121TIP3    H127854   4.874   5.844   0.613 -0.8345  0.0408 -0.3015
 2121TIP3    H227855   5.007   5.773   0.596  0.0121  1.6027 -0.3215
 2122TIP3   OH227856   0.597   3.343   0.518 -0.1577 -0.0484  0.1355
 2122TIP3    H127857   0.646   3.422   0.541  0.4009 -0.1583 -0.6440
 2122TIP3    H227858   0.639   3.273   0.567  0.0563 -0.0345 -0.0257
 2123TIP3   OH227859   4.593   2.715   2.519  0.1617  0.2827 -0.0086
 2123TIP3    H127860   4.638   2.637   2.550 -2.8730 -0.8010  2.0857
 2123TIP3    H227861   4.541   2.685   2.444  1.3962  1.0946 -1.2370
 2124TIP3   OH227862   2.694   3.252  15.616 -0.0148  0.1443  0.0454
 2124TIP3    H127863   2.603   3.223  15.619  0.2277 -0.7802 -1.0354
 2124TIP3    H227864   2.701   3.316  15.688 -1.3609 -0.1741  0.4883
 2125TIP3   OH227865   4.003   3.841  13.977  0.2809 -0.2502  0.2947
 2125TIP3    H127866   3.976   3.749  13.977  0.2521 -0.2433  0.1077
 2125TIP3    H227867   3.947   3.882  14.043  0.4938 -0.4217  0.5816
 2126TIP3   OH227868   6.319   6.779  15.506 -0.0782  0.2593  0.2149
 2126TIP3    H127869   6.277   6.706  15.461  1.4370  0.7089 -2.1330
 2126TIP3    H227870   6.358   6.831  15.435  0.4097  2.3719  1.9279
 2127TIP3   OH227871   5.705   2.405   1.983  0.1306 -0.3386 -0.3793
 2127TIP3    H127872   5.777   2.461   1.955  0.6105 -1.9710 -2.6846
 2127TIP3    H227873   5.669   2.449   2.061  2.6803  1.2610  0.0114
 2128TIP3   OH227874   6.017   2.341   1.854 -0.0539  0.3097 -0.4543
 2128TIP3    H127875   6.110   2.334   1.834 -0.2690  0.6342 -1.6336
 2128TIP3    H227876   6.011   2.327   1.948  1.0737 -0.7354 -0.5255
 2129TIP3   OH227877   0.581   4.867  13.276  0.4134 -0.0636  0.2463
 2129TIP3    H127878   0.672   4.851  13.300  1.4290  1.4653 -2.1420
 2129TIP3    H227879   0.558   4.948  13.322 -0.0205 -0.7962  1.3716
 2130TIP3   OH227880   1.127   5.106  15.671 -0.3552  0.0767 -0.1379
 2130TIP3    H127881   1.213   5.069  15.653  0.4986  2.1002 -0.5192
 2130TIP3    H227882   1.140   5.159  15.750 -1.0189  1.0056 -0.6259
 2131TIP3   OH227883   4.923   3.714   1.747  0.1486  0.5744 -0.4471
 2131TIP3    H127884   5.000   3.667   1.779 -0.7370  0.8285  2.3096
 2131TIP3    H227885   4.855   3.647   1.743 -0.3157  0.9798  0.4259
 2132TIP3   OH227886   0.653   2.160  14.774  0.0561 -0.4736  0.3486
 2132TIP3    H127887   0.599   2.236  14.796 -1.4844 -1.8210  1.5032
 2132TIP3    H227888   0.688   2.130  14.858  0.8195 -0.9314 -0.1177
 2133TIP3   OH227889   0.143   1.060   2.136 -0.3335  0.3258 -1.1240
 2133TIP3    H127890   0.169   0.977   2.095 -0.2125  0.5387 -1.4813
 2133TIP3    H227891   0.198   1.126   2.093 -1.8116  0.8609 -2.2659
 2134TIP3   OH227892   1.029   2.379   4.687  0.3312 -0.2579 -0.2382
 2134TIP3    H127893   1.004   2.472   4.686 -0.4334 -0.4582  0.1212
 2134TIP3    H227894   1.022   2.352   4.595 -1.4537 -0.4828 -0.0582
 2135TIP3   OH227895   1.694   0.470   3.170 -0.1399 -0.0459 -0.0535
 2135TIP3    H127896   1.722   0.551   3.213  0.4806  0.4745 -1.4107
 2135TIP3    H227897   1.774   0.420   3.158 -0.5586 -1.0366  1.0603
 2136TIP3   OH227898   0.346   5.646   0.447 -0.2766  0.1656 -0.0083
 2136TIP3    H127899   0.388   5.712   0.502 -1.5150  0.5881  0.4763
 2136TIP3    H227900   0.339   5.687   0.361 -0.0838  0.2537  0.0180
 2137TIP3   OH227901   5.840   1.031   6.122  0.0317 -0.2452 -0.0901
 2137TIP3    H127902   5.807   0.980   6.196 -1.6512  0.1155 -0.5404
 2137TIP3    H227903   5.894   0.969   6.073 -1.3446 -1.4143 -0.2208
 2138TIP3   OH227904   1.504   1.553  13.696 -0.3939  0.4265 -0.1206
 2138TIP3    H127905   1.487   1.618  13.764  0.8337  0.7839 -0.1291
 2138TIP3    H227906   1.597   1.532  13.705 -0.4283 -0.2323 -1.0819
 2139TIP3   OH227907   3.853   3.177   0.970 -0.6574  0.2138 -0.0189
 2139TIP3    H127908   3.805   3.095   0.954  0.5212 -0.6817  0.8366
 2139TIP3    H227909   3.911   3.186   0.894 -0.0971 -0.2836  0.3381
 2140TIP3   OH227910   3.001   2.732  12.790 -0.5448  0.2721 -0.1011
 2140TIP3    H127911   3.003   2.786  12.869 -0.4488 -0.6006  0.5027
 2140TIP3    H227912   3.091   2.737  12.756 -0.1298 -0.7173  0.8001
 2141TIP3   OH227913   5.003   5.200  12.063  0.0263 -0.0707  0.0711
 2141TIP3    H127914   5.030   5.143  12.135  0.4279 -2.2974 -1.7218
 2141TIP3    H227915   5.080   5.253  12.044 -0.2533  0.9530  1.5680
 2142TIP3   OH227916   2.628   2.794   4.880  0.0399 -0.3225  0.0019
 2142TIP3    H127917   2.630   2.887   4.900  2.3664 -0.6004  1.5328
 2142TIP3    H227918   2.718   2.765   4.893 -0.3455 -2.5545 -1.7106
 2143TIP3   OH227919   1.460   2.654  11.264  0.2130  0.0661  0.0315
 2143TIP3    H127920   1.420   2.573  11.296 -1.2359 -0.1248 -2.0183
 2143TIP3    H227921   1.551   2.648  11.291  0.4278 -2.7860 -0.9581
 2144TIP3   OH227922   4.601   6.707   6.514 -0.2839  0.1445 -0.3571
 2144TIP3    H127923   4.509   6.729   6.498 -1.0878 -1.3566  1.8227
 2144TIP3    H227924   4.642   6.715   6.428 -1.3276  5.3964 -0.6845
 2145TIP3   OH227925   5.379   3.507  14.193 -0.4802 -0.1608  0.1959
 2145TIP3    H127926   5.462   3.468  14.219 -0.9990 -1.6053 -0.1730
 2145TIP3    H227927   5.334   3.527  14.275  1.3663  3.4298  0.5117
 2146TIP3   OH227928   5.256   3.609  15.419 -0.0241 -0.2270  0.3040
 2146TIP3    H127929   5.333   3.665  15.433 -0.0113 -0.6584  2.1336
 2146TIP3    H227930   5.284   3.548  15.351  0.0284  1.7964 -1.6210
 2147TIP3   OH227931   5.474   3.907   2.207 -0.4248 -0.3792 -0.9201
 2147TIP3    H127932   5.421   3.894   2.286 -0.9597 -1.8909 -1.4949
 2147TIP3    H227933   5.471   4.002   2.192  0.7331  0.1427  1.5430
 2148TIP3   OH227934   0.879   0.232  13.095 -0.7531 -0.0081  0.4512
 2148TIP3    H127935   0.896   0.325  13.112 -1.1584  0.3203 -0.8232
 2148TIP3    H227936   0.851   0.197  13.179 -2.2420  1.4120  0.5832
 2149TIP3   OH227937   2.581   1.645   1.528  0.8325 -0.4020  0.2244
 2149TIP3    H127938   2.601   1.726   1.481  0.8688 -1.1765 -1.1605
 2149TIP3    H227939   2.631   1.651   1.609  0.7115  1.0258  0.2118
 2150TIP3   OH227940   5.315   0.777   6.396 -0.0510  0.5002  0.2964
 2150TIP3    H127941   5.242   0.797   6.336 -1.6524 -0.8892  1.6881
 2150TIP3    H227942   5.358   0.862   6.410 -1.7243  1.4738 -0.1743
 2151TIP3   OH227943   3.429   5.157   3.359 -0.1946  0.3678  0.2535
 2151TIP3    H127944   3.485   5.107   3.299  0.1366 -0.3430  1.1452
 2151TIP3    H227945   3.394   5.228   3.304  1.1987  0.5582 -0.4479
 2152TIP3   OH227946   3.351   3.213  15.986  0.5157  0.9984 -0.9896
 2152TIP3    H127947   3.399   3.232  15.906  1.7061  0.3988 -0.4470
 2152TIP3    H227948   3.319   3.298  16.016  0.9953  1.3715 -1.5246
 2153TIP3   OH227949   4.046   5.988  11.005 -0.4036 -0.2978  0.6759
 2153TIP3    H127950   4.109   5.937  10.954 -1.4115 -1.9539  0.9890
 2153TIP3    H227951   3.966   5.985  10.953 -1.2166 -1.3234  1.9267
 2154TIP3   OH227952   2.407   1.966   0.812  0.2820 -0.6997 -0.2084
 2154TIP3    H127953   2.413   2.034   0.880  1.4741  0.2093 -1.1810
 2154TIP3    H227954   2.398   2.014   0.730  0.2979 -1.7381 -0.8394
 2155TIP3   OH227955   5.427   5.119  15.053  0.3142 -0.0479  0.8998
 2155TIP3    H127956   5.367   5.051  15.023  0.8629 -0.6508  1.1245
 2155TIP3    H227957   5.488   5.072  15.111 -0.1119  0.8859  2.1353
 2156TIP3   OH227958   0.908   4.733  11.503  0.5713  0.2162  0.3614
 2156TIP3    H127959   0.836   4.768  11.556  1.9676  1.3302  1.5878
 2156TIP3    H227960   0.951   4.670  11.559 -0.1603 -1.4093 -0.8258
 2157TIP3   OH227961   5.164   2.983   4.448  0.2787 -0.4425  0.2837
 2157TIP3    H127962   5.218   2.904   4.443  0.2150 -0.4525 -0.2337
 2157TIP3    H227963   5.213   3.049   4.398 -0.8089 -0.8073 -1.3318
 2158TIP3   OH227964   2.704   6.368   2.017  0.2269  0.1148  0.2598
 2158TIP3    H127965   2.684   6.376   1.924  2.1853  1.8098 -0.0861
 2158TIP3    H227966   2.695   6.275   2.036 -1.5301 -0.0747 -1.2613
 2159TIP3   OH227967   0.959   4.277  14.983 -0.3072 -0.3269 -0.1062
 2159TIP3    H127968   1.037   4.222  14.995 -0.4995 -0.7538 -0.7495
 2159TIP3    H227969   0.978   4.356  15.033  0.0523 -0.8945  0.6833
 2160TIP3   OH227970   2.607   0.158   6.355  0.1938 -0.3330 -0.2355
 2160TIP3    H127971   2.514   0.156   6.379 -0.3394  0.7049 -1.9918
 2160TIP3    H227972   2.633   0.249   6.367 -0.0037  0.1639 -2.9479
 2161TIP3   OH227973   4.337   1.505   0.146  0.1440 -0.1934 -0.1636
 2161TIP3    H127974   4.407   1.566   0.122 -0.7585  1.7529  1.8038
 2161TIP3    H227975   4.274   1.558   0.195 -0.5476 -2.7670  2.0106
 2162TIP3   OH227976   2.982   3.730   5.007  0.1249 -0.5338  0.6145
 2162TIP3    H127977   2.913   3.710   4.944 -0.2746  2.1041  0.1348
 2162TIP3    H227978   3.062   3.700   4.965 -0.4823 -1.8525  0.3435
 2163TIP3   OH227979   1.130   4.646  13.201 -0.0477  0.5882 -0.3143
 2163TIP3    H127980   1.110   4.553  13.196 -4.0831  1.2874 -0.9430
 2163TIP3    H227981   1.145   4.663  13.294  0.6081 -0.6296 -0.1820
 2164TIP3   OH227982   4.558   3.321  14.454  0.1516  0.4786  0.1522
 2164TIP3    H127983   4.503   3.308  14.531  3.4564  0.0489  2.6158
 2164TIP3    H227984   4.516   3.393  14.406 -1.8174  1.0165  2.5148
 2165TIP3   OH227985   4.073   3.505  12.408 -0.2983  0.1634  0.4566
 2165TIP3    H127986   4.135   3.510  12.481  0.9954  0.3224 -0.6245
 2165TIP3    H227987   4.063   3.596  12.379  1.7696 -0.1821 -1.6189
 2166TIP3   OH227988   2.051   2.057  12.763 -0.3231 -0.6316 -0.6644
 2166TIP3    H127989   2.120   2.055  12.829  0.1161  0.3211 -1.0633
 2166TIP3    H227990   1.970   2.072  12.813 -0.0851 -0.5755 -0.2926
 2167TIP3   OH227991   5.498   0.504  11.069  0.4014 -0.1805  0.6575
 2167TIP3    H127992   5.523   0.416  11.097 -1.5495 -0.8678  0.3873
 2167TIP3    H227993   5.403   0.507  11.083 -0.0177  0.9140 -1.8926
 2168TIP3   OH227994   4.085   6.350  10.810 -0.1648 -0.1424  0.6930
 2168TIP3    H127995   4.078   6.403  10.731 -2.7317 -0.5610  0.5375
 2168TIP3    H227996   4.091   6.260  10.777  0.2538 -0.2147  0.9682
 2169TIP3   OH227997   4.649   2.578  11.685  0.2371 -0.0454 -0.3347
 2169TIP3    H127998   4.566   2.589  11.637 -0.1804 -1.6589 -0.0435
 2169TIP3    H227999   4.716   2.604  11.623 -0.4912  1.9823 -0.3534
 2170TIP3   OH228000   6.231   2.696   2.072  0.2122 -0.0768 -0.0718
 2170TIP3    H128001   6.184   2.761   2.021  0.9534  0.5646  0.0369
 2170TIP3    H228002   6.257   2.742   2.152 -1.4632 -1.2273  1.2123
 2171TIP3   OH228003   1.398   6.613   1.264  0.8399 -0.0516  0.3906
 2171TIP3    H128004   1.332   6.544   1.252  1.4092 -0.6176  0.4883
 2171TIP3    H228005   1.384   6.672   1.189  1.1094 -0.8997 -0.3530
 2172TIP3   OH228006   4.722   1.135  14.441 -0.1983  0.5872  0.0972
 2172TIP3    H128007   4.637   1.130  14.485  0.7135 -1.2194  1.7770
 2172TIP3    H228008   4.703   1.118  14.349 -1.6737  0.4644  0.4035
 2173TIP3   OH228009   3.895   4.595   3.993 -0.5107 -0.2934 -0.2748
 2173TIP3    H128010   3.824   4.652   4.023 -0.2850  0.3456 -0.9184
 2173TIP3    H228011   3.975   4.643   4.014 -0.2999 -0.5907 -0.3942
 2174TIP3   OH228012   5.552   1.910   4.897 -0.2796  0.2199  0.5645
 2174TIP3    H128013   5.608   1.875   4.828 -0.1721  0.5910  0.4584
 2174TIP3    H228014   5.527   1.834   4.949  0.5571  0.0855  0.7905
 2175TIP3   OH228015   4.789   6.348  14.041 -0.2464  0.5948  0.2590
 2175TIP3    H128016   4.863   6.392  13.999  0.7256 -2.4263 -1.5404
 2175TIP3    H228017   4.826   6.311  14.121 -0.6867  1.7374  1.0123
 2176TIP3   OH228018   1.837   0.394   1.850  0.3500  0.1167  0.2531
 2176TIP3    H128019   1.854   0.302   1.828  2.4428  0.2395  1.1210
 2176TIP3    H228020   1.748   0.394   1.884  0.8266 -1.8922  1.6971
 2177TIP3   OH228021   4.251   2.573   5.231  0.5762  0.4969 -0.2492
 2177TIP3    H128022   4.163   2.605   5.253  0.8443  1.4251 -0.4942
 2177TIP3    H228023   4.292   2.645   5.183  2.0253  0.7096  1.2006
 2178TIP3   OH228024   0.026   3.638  14.207  0.3908 -0.1134 -0.3848
 2178TIP3    H128025   0.051   3.573  14.142 -1.6357 -1.1589 -0.2096
 2178TIP3    H228026  -0.057   3.673  14.176  0.1475  0.4812  0.8561
 2179TIP3   OH228027   1.240   0.015   4.301  0.4888  0.4616 -0.0727
 2179TIP3    H128028   1.224   0.088   4.241  2.5891  1.5618  0.6485
 2179TIP3    H228029   1.286  -0.050   4.248  0.4057  0.5096 -0.2036
 2180TIP3   OH228030   2.267   4.181  12.975 -0.6216 -0.0105  0.0510
 2180TIP3    H128031   2.236   4.092  12.962 -0.4843 -0.2068  0.9814
 2180TIP3    H228032   2.239   4.204  13.064 -0.2530  0.7006 -0.0056
 2181TIP3   OH228033   1.300   3.576  16.814 -0.1242 -0.0842 -0.4761
 2181TIP3    H128034   1.261   3.583  16.901  1.7011 -0.8493  0.4525
 2181TIP3    H228035   1.228   3.595  16.754 -2.1387 -2.2333  1.0863
 2182TIP3   OH228036   4.102   3.475  10.176  0.5136  0.4491  0.3573
 2182TIP3    H128037   4.187   3.483  10.133  0.3067  1.4657  0.1238
 2182TIP3    H228038   4.101   3.385  10.210  0.8886 -0.2285 -1.3144
 2183TIP3   OH228039   2.177   2.964   0.809 -0.8143 -0.4115 -0.1961
 2183TIP3    H128040   2.096   2.916   0.822 -1.3023  0.0771 -1.2755
 2183TIP3    H228041   2.193   2.959   0.714 -1.0659  1.7946 -0.4144
 2184TIP3   OH228042   5.817   0.665  12.106  0.9590 -0.1269 -0.8343
 2184TIP3    H128043   5.749   0.642  12.043 -0.4059 -2.8171  1.3785
 2184TIP3    H228044   5.791   0.751  12.140 -0.4574 -0.3970 -1.1833
 2185TIP3   OH228045   0.333   3.224   2.083 -0.1844  0.0569  0.1876
 2185TIP3    H128046   0.245   3.253   2.109  0.0974  1.0968  0.0133
 2185TIP3    H228047   0.318   3.166   2.008 -0.7235  0.1472  0.2223
 2186TIP3   OH228048   4.586   4.766  14.364 -0.0266 -0.1579  0.2505
 2186TIP3    H128049   4.561   4.700  14.430 -0.4572  0.1022  0.3509
 2186TIP3    H228050   4.602   4.845  14.415 -1.4878  0.3613 -0.0544
 2187TIP3   OH228051   2.951   1.672  14.233  0.2223  0.1311 -0.4496
 2187TIP3    H128052   2.995   1.605  14.284 -1.3431 -0.2852  0.4228
 2187TIP3    H228053   2.956   1.751  14.287 -2.8840 -0.6954  1.2802
 2188TIP3   OH228054   4.648   4.356   0.367  0.2522 -0.3588  0.2117
 2188TIP3    H128055   4.690   4.347   0.281 -2.4230 -0.1566 -1.2323
 2188TIP3    H228056   4.646   4.450   0.383 -0.9660 -0.2549 -0.4672
 2189TIP3   OH228057   4.160   1.938   4.346  0.0767  0.0519  0.1168
 2189TIP3    H128058   4.192   2.028   4.337 -0.0323  0.1214  0.4143
 2189TIP3    H228059   4.148   1.908   4.256  1.3120 -0.0937 -0.0204
 2190TIP3   OH228060   2.867   4.492   2.742 -0.1242  0.1687 -0.5681
 2190TIP3    H128061   2.793   4.433   2.751 -0.2676  0.6050  1.6754
 2190TIP3    H228062   2.944   4.437   2.755 -0.2261  0.3110  0.7309
 2191TIP3   OH228063   1.204   2.494  15.582  0.0232  0.0023 -0.3715
 2191TIP3    H128064   1.132   2.516  15.641 -1.9783 -4.1484 -0.8847
 2191TIP3    H228065   1.184   2.540  15.501 -2.0041 -0.8684 -0.4118
 2192TIP3   OH228066   5.118   1.524  16.956  0.5367  0.1100 -0.1738
 2192TIP3    H128067   5.113   1.520  17.051  0.8277  1.4376 -0.0820
 2192TIP3    H228068   5.204   1.487  16.935  0.0696 -1.1010 -0.0090
 2193TIP3   OH228069   6.602   4.059   2.786  0.1878 -0.0786 -0.0350
 2193TIP3    H128070   6.509   4.060   2.764 -0.2771  0.2006  1.8048
 2193TIP3    H228071   6.629   3.968   2.769 -0.1719  0.0475 -1.4169
 2194TIP3   OH228072   2.833   1.693   3.637  0.2831  0.3858 -0.5313
 2194TIP3    H128073   2.881   1.610   3.637 -0.2835  0.0423 -1.7520
 2194TIP3    H228074   2.846   1.728   3.549 -2.1545 -0.0108 -1.1264
 2195TIP3   OH228075   3.900   5.672  14.977  0.1737 -0.7444  0.4601
 2195TIP3    H128076   3.912   5.718  15.060 -0.9300 -1.4414  1.0495
 2195TIP3    H228077   3.875   5.740  14.915  2.8720  0.0925  0.1661
 2196TIP3   OH228078   0.875   4.062   3.639  0.1921 -0.1377  0.2460
 2196TIP3    H128079   0.782   4.082   3.627  0.5789  0.4692 -2.4062
 2196TIP3    H228080   0.920   4.130   3.589  2.0497 -0.8131  0.9414
 2197TIP3   OH228081   1.831   2.677   4.522 -0.1887  0.3385 -1.1104
 2197TIP3    H128082   1.814   2.632   4.605 -0.2779  0.8146 -0.8670
 2197TIP3    H228083   1.844   2.607   4.459 -0.1195 -0.0297 -0.6917
 2198TIP3   OH228084   1.895   2.345   2.767 -0.2052 -0.1256  0.8356
 2198TIP3    H128085   1.933   2.374   2.684 -1.6766  1.2645  0.5915
 2198TIP3    H228086   1.968   2.305   2.814  1.7243  2.8692  0.6430
 2199TIP3   OH228087   5.450   0.813  11.732 -0.3036  0.0095  0.1234
 2199TIP3    H128088   5.523   0.762  11.696  0.3428  0.6364  0.5205
 2199TIP3    H228089   5.492   0.887  11.776 -1.1116 -0.2506  1.3839
 2200TIP3   OH228090   0.988   6.159   0.012  0.3393  0.2252  0.2131
 2200TIP3    H128091   0.961   6.151   0.103  0.1289  1.5973  0.2852
 2200TIP3    H228092   0.951   6.082  -0.031  1.0025 -0.7994  1.3981
 2201TIP3   OH228093   6.398   3.535   0.532 -0.3659  0.6477 -0.1632
 2201TIP3    H128094   6.354   3.487   0.462  0.0500  0.7871 -0.5224
 2201TIP3    H228095   6.491   3.522   0.516 -0.2652 -0.0616  0.8798
 2202TIP3   OH228096   3.263   5.815  12.896  0.3277  0.0550  0.1548
 2202TIP3    H128097   3.294   5.786  12.982  1.7859  1.2447  0.0600
 2202TIP3    H228098   3.314   5.764  12.833  1.8107  1.6716 -0.0008
 2203TIP3   OH228099   6.284   4.507  13.181 -0.2177  0.4283  0.1042
 2203TIP3    H128100   6.270   4.569  13.110  1.5013 -0.6047 -1.2450
 2203TIP3    H228101   6.374   4.525  13.211  0.1362 -1.0337  0.0067
 2204TIP3   OH228102   6.511   0.270  12.399  0.6394 -0.5815  0.3685
 2204TIP3    H128103   6.596   0.314  12.398  0.0788  0.5440 -1.4622
 2204TIP3    H228104   6.447   0.341  12.397 -0.3162 -1.4325 -0.2403
 2205TIP3   OH228105   5.722   0.472   3.322 -0.1836 -0.2145 -0.0019
 2205TIP3    H128106   5.658   0.540   3.305 -0.7773 -0.2733  1.8388
 2205TIP3    H228107   5.679   0.413   3.384  1.2715 -0.8173  0.4739
 2206TIP3   OH228108   5.291   4.225   1.354 -0.0841  0.2172  0.1399
 2206TIP3    H128109   5.216   4.228   1.295  0.2670 -1.2895 -0.4214
 2206TIP3    H228110   5.298   4.133   1.380  1.3263  0.3990  0.5041
 2207TIP3   OH228111   2.109   2.241  14.074 -0.3254  0.3646  0.5905
 2207TIP3    H128112   2.039   2.303  14.053 -0.3971 -0.4223 -1.8925
 2207TIP3    H228113   2.187   2.279  14.033 -0.2430 -0.8179 -0.4114
 2208TIP3   OH228114   4.719   4.942  15.095 -0.1558 -0.5070  0.1483
 2208TIP3    H128115   4.683   4.961  15.181 -0.7905 -2.2220  0.3043
 2208TIP3    H228116   4.648   4.962  15.034 -0.0037 -0.1358  0.0867
 2209TIP3   OH228117   4.279   2.219   4.255 -0.8770 -0.1429 -0.8368
 2209TIP3    H128118   4.194   2.255   4.230 -2.5662 -3.2030  0.0098
 2209TIP3    H228119   4.311   2.175   4.176 -1.1148 -0.7875 -0.5796
 2210TIP3   OH228120   2.820   4.756   0.909  0.1735 -0.1620  0.1909
 2210TIP3    H128121   2.837   4.750   0.815 -0.2099 -2.2477  0.2043
 2210TIP3    H228122   2.880   4.823   0.940  1.2047 -0.3136 -1.3488
 2211TIP3   OH228123   4.834   2.452   0.512  0.0976 -0.0904 -0.1667
 2211TIP3    H128124   4.903   2.483   0.454 -0.9547  0.1474 -1.3344
 2211TIP3    H228125   4.809   2.367   0.476 -1.1171  0.4226 -0.5736
 2212TIP3   OH228126   5.866   4.715  15.294  0.4202  0.6936  0.3780
 2212TIP3    H128127   5.955   4.697  15.324  0.8306  0.4939 -0.9198
 2212TIP3    H228128   5.861   4.676  15.207 -0.3404  2.2783 -0.3433
 2213TIP3   OH228129   4.541   1.370  11.381  0.2116 -0.0736  0.4180
 2213TIP3    H128130   4.555   1.461  11.353 -0.6901 -0.5658 -1.8344
 2213TIP3    H228131   4.536   1.375  11.476  1.5886  2.0240  0.4494
 2214TIP3   OH228132   1.972   0.293   0.264  0.1699  0.5126  0.0483
 2214TIP3    H128133   2.044   0.259   0.212  0.3391  0.4323  0.3310
 2214TIP3    H228134   2.014   0.329   0.342 -0.1279  0.0312  0.4424
 2215TIP3   OH228135   3.213   1.704  14.789  0.4029  0.6454 -0.0980
 2215TIP3    H128136   3.144   1.639  14.799 -0.6548  1.6586 -0.6739
 2215TIP3    H228137   3.193   1.771  14.854  0.6394  1.1141 -0.5002
 2216TIP3   OH228138   4.128   0.970  13.442  0.4759 -0.5335 -0.1455
 2216TIP3    H128139   4.115   0.931  13.528  0.9365 -0.0437  0.1580
 2216TIP3    H228140   4.102   1.062  13.453  0.6716 -0.4340 -0.4878
 2217TIP3   OH228141   4.197   0.373   4.403  0.3679  0.5801  0.2544
 2217TIP3    H128142   4.176   0.445   4.343  0.1239  0.2162 -0.1021
 2217TIP3    H228143   4.291   0.359   4.391  0.2396  0.2097 -0.3883
 2218TIP3   OH228144   0.898   4.029  16.650  0.1405 -0.1107 -0.3316
 2218TIP3    H128145   0.834   4.077  16.596 -0.9351 -0.4719  0.5795
 2218TIP3    H228146   0.862   3.941  16.655 -1.4594  0.5881  3.4102
 2219TIP3   OH228147   2.644   4.063  13.582  0.4307  0.5555  0.1972
 2219TIP3    H128148   2.578   4.130  13.567  0.6585  0.9428  0.8983
 2219TIP3    H228149   2.596   3.992  13.627  0.2420  0.3363 -0.3399
 2220TIP3   OH228150   4.500   1.984  16.620  0.2633  0.3944 -0.2981
 2220TIP3    H128151   4.455   1.993  16.536  0.1512 -0.4708 -0.3383
 2220TIP3    H228152   4.583   1.941  16.598 -0.0272 -0.3826  0.1060
 2221TIP3   OH228153   6.786   6.685   6.333  0.2126  0.0642 -0.2065
 2221TIP3    H128154   6.701   6.708   6.371  0.5870  1.1298  0.0136
 2221TIP3    H228155   6.785   6.726   6.246  0.1241 -0.7425 -0.5948
 2222TIP3   OH228156   0.958   1.538   2.925  0.0275 -0.3690 -0.4856
 2222TIP3    H128157   0.945   1.598   2.852 -1.7317 -0.6923 -0.4977
 2222TIP3    H228158   0.922   1.585   3.001 -1.8066 -1.5154 -0.5782
 2223TIP3   OH228159   1.238   3.513  16.365  0.5266 -0.1724 -0.6425
 2223TIP3    H128160   1.330   3.519  16.338  0.3885 -1.3674 -1.4369
 2223TIP3    H228161   1.225   3.421  16.387  0.0381  0.3505  1.5045
 2224TIP3   OH228162   1.672   6.078  15.830 -0.1231  0.0330  0.4020
 2224TIP3    H128163   1.609   6.012  15.800 -0.1418  0.2556 -0.0519
 2224TIP3    H228164   1.710   6.113  15.750  0.5487 -0.0641  0.6761
 2225TIP3   OH228165   6.522   2.505  14.681  0.0445 -0.0590 -0.3025
 2225TIP3    H128166   6.460   2.578  14.681  1.6138  1.3353 -0.8551
 2225TIP3    H228167   6.541   2.490  14.589 -0.1504 -1.1001 -0.1860
 2226TIP3   OH228168   6.431   0.547  12.566  0.7118 -0.3716 -0.4034
 2226TIP3    H128169   6.384   0.488  12.508  0.0767  1.6377 -2.0631
 2226TIP3    H228170   6.464   0.616  12.508  1.1494  1.0752  1.4651
 2227TIP3   OH228171   3.000   0.498  14.542 -0.5047 -0.1609 -0.9161
 2227TIP3    H128172   2.914   0.485  14.583  0.5489 -2.9869  0.7328
 2227TIP3    H228173   2.988   0.572  14.483 -3.9996 -0.2958 -0.5906
 2228TIP3   OH228174   2.519   2.467   5.808 -0.1895  0.0306  0.1746
 2228TIP3    H128175   2.550   2.505   5.890  0.8739 -1.0348  0.3041
 2228TIP3    H228176   2.519   2.372   5.824 -0.7604 -0.1532 -0.7913
 2229TIP3   OH228177   0.925   3.762   0.122  0.3264  0.3817 -0.3313
 2229TIP3    H128178   0.876   3.715   0.055 -0.3336  1.4429 -0.6226
 2229TIP3    H228179   0.954   3.842   0.079  0.3149  0.8540  0.5055
 2230TIP3   OH228180   4.255   4.591  13.284  0.6265  0.4709 -0.5255
 2230TIP3    H128181   4.240   4.679  13.320  0.6265  0.9581 -1.6797
 2230TIP3    H228182   4.254   4.603  13.189 -0.3875 -0.9466 -0.7275
 2231TIP3   OH228183   5.394   2.851   1.860  0.3786  0.2228  0.2891
 2231TIP3    H128184   5.411   2.798   1.937 -1.2384  1.8367  1.8483
 2231TIP3    H228185   5.342   2.795   1.803 -1.2674  0.0278  1.8862
 2232TIP3   OH228186   2.761   4.524   0.516 -0.5151 -0.1476 -0.5696
 2232TIP3    H128187   2.813   4.578   0.457 -1.1795 -0.4784 -1.4774
 2232TIP3    H228188   2.710   4.587   0.567  1.5577  0.2339  1.1337
 2233TIP3   OH228189   6.258   4.061   4.145 -0.3201  0.5670  0.0623
 2233TIP3    H128190   6.266   3.973   4.108  1.7725  0.7110  0.0833
 2233TIP3    H228191   6.264   4.120   4.070  0.0092  0.7428  0.2252
 2234TIP3   OH228192   4.068   5.023  11.322 -0.4740 -0.4707  0.1215
 2234TIP3    H128193   4.022   5.049  11.243  0.9774  0.9833 -0.2976
 2234TIP3    H228194   4.042   5.087  11.388 -1.2694 -1.3644  0.7044
 2235TIP3   OH228195   4.335   4.981  15.814  0.1943  0.7035  0.9452
 2235TIP3    H128196   4.317   4.888  15.824  1.3334  0.4542  0.8518
 2235TIP3    H228197   4.325   5.018  15.902  0.1552  0.4095  1.0629
 2236TIP3   OH228198   3.797   3.003   5.185  0.2847 -0.1421 -0.1102
 2236TIP3    H128199   3.702   2.998   5.190  0.2655 -0.8540 -0.8608
 2236TIP3    H228200   3.815   3.036   5.097  0.7367 -0.9963 -0.3557
 2237TIP3   OH228201   4.020   2.265   6.102 -0.4964 -0.6295 -0.1339
 2237TIP3    H128202   3.988   2.302   6.020  1.4903  0.7321 -0.3853
 2237TIP3    H228203   3.967   2.187   6.117 -2.5573  0.4652 -1.4036
 2238TIP3   OH228204   1.133   2.119   2.842 -0.6899 -0.1223 -0.2905
 2238TIP3    H128205   1.186   2.124   2.763 -0.7604 -2.0782 -0.5051
 2238TIP3    H228206   1.171   2.184   2.900  0.5419  0.0574 -1.2499
 2239TIP3   OH228207   1.238   2.285   6.507  0.7143 -0.0423 -0.1098
 2239TIP3    H128208   1.229   2.348   6.436 -0.0393 -0.1841 -0.1520
 2239TIP3    H228209   1.149   2.275   6.542  1.3700  1.7708  2.3759
 2240TIP3   OH228210   0.265   4.086   3.960 -0.0045  0.4842  0.2779
 2240TIP3    H128211   0.190   4.073   4.018 -0.7518 -2.2953 -1.1522
 2240TIP3    H228212   0.341   4.074   4.017 -0.7088 -0.6996  1.0274
 2241TIP3   OH228213   5.999   2.700   3.641  0.0291  0.0761 -0.1471
 2241TIP3    H128214   6.051   2.692   3.720 -1.0240  0.3458  0.5949
 2241TIP3    H228215   5.961   2.612   3.629  0.8751 -0.2058 -0.8595
 2242TIP3   OH228216   4.524   4.868   4.041 -1.1486  0.1937 -0.8248
 2242TIP3    H128217   4.525   4.946   4.097 -1.0122  1.3243 -2.3257
 2242TIP3    H228218   4.463   4.808   4.084 -0.9924  0.9751  0.5562
 2243TIP3   OH228219   6.343   1.598   2.606 -0.0434  0.5934  0.5633
 2243TIP3    H128220   6.317   1.676   2.656 -0.9910 -0.1762  1.3156
 2243TIP3    H228221   6.260   1.563   2.573  0.3846 -0.0463  0.1608
 2244TIP3   OH228222   3.500   0.933  14.072  0.2013  0.0625  0.3217
 2244TIP3    H128223   3.498   0.957  13.980 -1.1222 -2.4238 -0.3916
 2244TIP3    H228224   3.411   0.949  14.103  0.6983  1.1163  1.2708
 2245TIP3   OH228225   0.296   4.743   1.607 -0.1398 -0.0977 -0.0512
 2245TIP3    H128226   0.223   4.805   1.606  0.1636  0.3141  1.3585
 2245TIP3    H228227   0.362   4.784   1.662  1.2945 -0.3380 -1.5224
 2246TIP3   OH228228   6.316   3.922  15.886  0.1237 -0.5727  0.0515
 2246TIP3    H128229   6.376   3.987  15.851  1.3884 -1.1579  1.0884
 2246TIP3    H228230   6.229   3.956  15.865  0.7920 -0.0682 -2.1212
 2247TIP3   OH228231   2.196   0.473  16.917 -0.1951 -0.4141 -0.8857
 2247TIP3    H128232   2.266   0.533  16.893  1.0243 -1.0859  0.7635
 2247TIP3    H228233   2.201   0.402  16.853  0.0992 -0.0630 -1.2538
 2248TIP3   OH228234   0.615   2.862   1.800 -0.2497 -0.6009  0.0192
 2248TIP3    H128235   0.522   2.880   1.814 -0.6255 -1.7416 -0.8789
 2248TIP3    H228236   0.621   2.835   1.709  1.0662  0.0102 -0.0950
 2249TIP3   OH228237   0.425   3.087  15.091  0.5661 -0.5868  0.7653
 2249TIP3    H128238   0.405   2.995  15.075  0.7954 -0.7370  1.3436
 2249TIP3    H228239   0.520   3.093  15.083  0.3981  0.0385 -1.4884
 2250TIP3   OH228240   1.683   3.213  15.133  0.9259  0.1351 -0.4794
 2250TIP3    H128241   1.663   3.150  15.064  1.2067 -0.8554  0.3172
 2250TIP3    H228242   1.774   3.240  15.116  0.3812  1.3783 -1.6004
 2251TIP3   OH228243   2.852   0.254  16.720 -0.2852  0.4538  0.0463
 2251TIP3    H128244   2.877   0.169  16.755 -2.3922 -0.3287 -0.2023
 2251TIP3    H228245   2.823   0.236  16.630 -2.4660  1.0633  0.5644
 2252TIP3   OH228246   1.338   4.122   5.725 -0.0540  0.1813  0.1357
 2252TIP3    H128247   1.311   4.179   5.654  0.3681 -0.7187 -0.7726
 2252TIP3    H228248   1.340   4.178   5.802 -1.4444  0.9741 -0.3636
 2253TIP3   OH228249   1.603   4.316   4.673  0.3313  0.3650  1.0373
 2253TIP3    H128250   1.599   4.405   4.638  2.8893  0.8611  1.8236
 2253TIP3    H228251   1.539   4.267   4.620  1.5286  1.8185 -2.0280
 2254TIP3   OH228252   3.152   5.415   1.841  0.4110  1.1440 -0.8953
 2254TIP3    H128253   3.215   5.398   1.912 -1.5735 -1.6992  0.3571
 2254TIP3    H228254   3.182   5.360   1.769 -0.5397 -0.1861 -0.3094
 2255TIP3   OH228255   3.748   3.287  13.338 -0.1209  0.5419  1.0290
 2255TIP3    H128256   3.677   3.228  13.364  1.1347 -0.7597  1.6535
 2255TIP3    H228257   3.797   3.237  13.272  0.8201  0.9828  1.3762
 2256TIP3   OH228258   5.428   3.145   3.710 -0.5544 -0.4165  0.1039
 2256TIP3    H128259   5.345   3.188   3.730 -0.3658 -0.9470  2.2762
 2256TIP3    H228260   5.490   3.182   3.774  0.0924 -2.3367  0.6600
 2257TIP3   OH228261   3.482   3.828  10.155 -0.3776 -0.0967 -0.5443
 2257TIP3    H128262   3.438   3.779  10.224 -1.2900 -0.2021 -1.1735
 2257TIP3    H228263   3.558   3.774  10.132 -0.4554 -0.4028 -0.0929
 2258TIP3   OH228264   5.409   1.186  13.309  0.2810  0.3904 -0.1758
 2258TIP3    H128265   5.459   1.106  13.292  2.9135  1.5334  1.6892
 2258TIP3    H228266   5.379   1.178  13.399 -3.9257 -0.6213 -1.3980
 2259TIP3   OH228267   6.284   0.664   4.736  0.2977 -0.0198  0.1841
 2259TIP3    H128268   6.276   0.717   4.815 -1.6081  2.2020 -1.3774
 2259TIP3    H228269   6.209   0.604   4.741  0.2622  0.0201  0.1188
 2260TIP3   OH228270   1.092   3.486   0.387 -0.1058  0.0544  0.1011
 2260TIP3    H128271   1.184   3.462   0.391 -0.8225 -2.8916  0.8554
 2260TIP3    H228272   1.065   3.464   0.297 -0.2650  0.2089  0.1090
 2261TIP3   OH228273   1.249   1.366   5.854 -0.0636  0.3911  0.1445
 2261TIP3    H128274   1.336   1.406   5.857  0.5232 -0.8595  1.2505
 2261TIP3    H228275   1.204   1.403   5.930  1.1856 -2.3716  2.4311
 2262TIP3   OH228276   1.651   5.995   5.974 -0.0966  0.1680  0.2348
 2262TIP3    H128277   1.652   6.055   6.048  0.2790 -1.6664  1.7760
 2262TIP3    H228278   1.567   5.950   5.980  0.3728 -0.7456  0.2001
 2263TIP3   OH228279   5.775   3.890  12.164  0.1575 -0.5844  0.4012
 2263TIP3    H128280   5.718   3.842  12.224 -0.6565  0.5632  0.5743
 2263TIP3    H228281   5.731   3.886  12.079  0.4785 -0.7997  0.2435
 2264TIP3   OH228282   5.701   4.974  16.214 -0.0768  0.1156 -0.2479
 2264TIP3    H128283   5.770   4.910  16.194 -1.3506 -0.6626 -2.4940
 2264TIP3    H228284   5.746   5.059  16.214  0.8089 -0.2806 -2.5681
 2265TIP3   OH228285   1.508   3.815   3.995  0.3664  0.1730 -0.6155
 2265TIP3    H128286   1.452   3.886   3.961 -1.3571 -1.1569 -0.7111
 2265TIP3    H228287   1.455   3.736   3.984  1.0504 -0.7859  2.0911
 2266TIP3   OH228288   2.730   5.074  16.598  0.6045  0.0444 -0.1444
 2266TIP3    H128289   2.817   5.054  16.563  1.3517  1.7245  0.6534
 2266TIP3    H228290   2.683   5.116  16.526  0.5825 -0.4924 -0.4488
 2267TIP3   OH228291   2.387   5.500   4.478 -0.2653 -0.7543  0.0339
 2267TIP3    H128292   2.336   5.421   4.459 -1.7505  0.2702 -0.3856
 2267TIP3    H228293   2.375   5.514   4.572 -1.3887 -0.1162 -0.1900
 2268TIP3   OH228294   1.176   4.942  11.880  0.2906  0.0733  0.1928
 2268TIP3    H128295   1.182   4.934  11.785  0.0612  1.1897  0.0717
 2268TIP3    H228296   1.082   4.954  11.897  0.3927  0.4537  0.5017
 2269TIP3   OH228297   6.233   4.614  16.076  0.1652  0.4170 -0.4116
 2269TIP3    H128298   6.181   4.591  15.999 -1.1196  0.2248  0.4834
 2269TIP3    H228299   6.200   4.699  16.103 -2.1186 -1.0860  2.0958
 2270TIP3   OH228300   6.708   5.580   5.689 -0.2015  0.3653  0.2184
 2270TIP3    H128301   6.673   5.499   5.724  0.7516 -0.7358 -1.2353
 2270TIP3    H228302   6.666   5.589   5.603 -0.3415  1.4467  0.3878
 2271TIP3   OH228303   3.624   2.686  12.170 -0.4977  0.4409  0.4007
 2271TIP3    H128304   3.530   2.693  12.190 -0.5881  0.7120 -0.1078
 2271TIP3    H228305   3.627   2.657  12.079 -0.0926  1.4016  0.0908
 2272TIP3   OH228306   2.370   0.084  12.592  0.3766 -0.2485 -0.0103
 2272TIP3    H128307   2.373   0.177  12.572  0.5990 -0.6804 -2.3038
 2272TIP3    H228308   2.307   0.076  12.664 -0.3422  1.5726 -0.3884
 2273TIP3   OH228309   2.180   6.321  10.833 -0.5314  0.5714  0.2635
 2273TIP3    H128310   2.150   6.353  10.748 -0.5853 -0.3069 -0.0588
 2273TIP3    H228311   2.261   6.273  10.813  0.5607  2.0172  0.9732
 2274TIP3   OH228312   2.040   0.726  12.663 -0.2871  0.1049 -0.8432
 2274TIP3    H128313   2.096   0.743  12.739 -0.7894 -1.6628 -0.0225
 2274TIP3    H228314   2.055   0.801  12.605  1.8553  0.3884 -0.0325
 2275TIP3   OH228315   3.337   3.697  10.330  0.3955  0.0165 -0.0769
 2275TIP3    H128316   3.270   3.753  10.369  0.0642 -0.4989  0.1061
 2275TIP3    H228317   3.309   3.607  10.351  1.3764 -0.1977  0.4017
 2276TIP3   OH228318   0.122   1.918   3.560  0.2699  0.3572 -0.4813
 2276TIP3    H128319   0.184   1.910   3.632  1.6844  0.6246 -1.6089
 2276TIP3    H228320   0.157   1.990   3.507 -0.2759 -0.3394 -1.8414
 2277TIP3   OH228321   5.080   5.659  10.919 -0.6313 -0.3816 -0.1323
 2277TIP3    H128322   5.112   5.696  11.001 -0.2321  1.7708 -1.1998
 2277TIP3    H228323   5.131   5.703  10.851 -1.9067 -1.0855 -1.6118
 2278TIP3   OH228324   4.903   0.399   1.931  0.1428  0.0731 -0.1105
 2278TIP3    H128325   4.854   0.361   2.005  0.0846  1.7595  0.7796
 2278TIP3    H228326   4.836   0.413   1.864 -0.5553  1.7243  0.8445
 2279TIP3   OH228327   2.290   5.105   2.000  0.3006 -0.2989  0.3234
 2279TIP3    H128328   2.234   5.052   2.057  0.0332 -1.1135 -0.6692
 2279TIP3    H228329   2.230   5.168   1.960  0.4538  0.1410  0.7766
 2280TIP3   OH228330   0.371   2.843   5.533  0.1376  0.4934  0.0332
 2280TIP3    H128331   0.357   2.830   5.627 -0.3444 -0.3062 -0.1464
 2280TIP3    H228332   0.455   2.799   5.515  0.5911  1.2627  0.2157
 2281TIP3   OH228333   0.554   4.582   2.108  0.1245 -0.0195  0.3555
 2281TIP3    H128334   0.550   4.638   2.185 -0.9155  0.3108  0.0771
 2281TIP3    H228335   0.620   4.622   2.053 -0.1640  0.5837  0.4391
 2282TIP3   OH228336   4.316   1.893   0.572 -0.2962  0.2441 -0.5312
 2282TIP3    H128337   4.399   1.868   0.531 -0.0111  0.6941 -0.2385
 2282TIP3    H228338   4.303   1.828   0.641 -0.7740 -0.5115 -1.3174
 2283TIP3   OH228339   0.608   2.074  13.366 -0.2958  0.3195 -0.1596
 2283TIP3    H128340   0.546   2.120  13.422 -1.0776  1.3264 -1.7817
 2283TIP3    H228341   0.604   2.121  13.282  0.7483 -1.1954 -1.1025
 2284TIP3   OH228342   3.062   0.247  16.281 -0.0403 -0.1282  0.0233
 2284TIP3    H128343   3.059   0.221  16.189 -0.4233 -1.4958  0.3975
 2284TIP3    H228344   3.123   0.185  16.321  0.9084  1.0836  0.5162
 2285TIP3   OH228345   6.127   5.342   0.339 -0.9227 -0.5996  0.9065
 2285TIP3    H128346   6.220   5.328   0.321 -1.3845 -0.9869 -1.6839
 2285TIP3    H228347   6.115   5.437   0.334 -0.9638 -0.6633 -0.9121
 2286TIP3   OH228348   1.481   5.289  12.325 -0.5281 -0.3169  0.0089
 2286TIP3    H128349   1.439   5.354  12.382 -1.0142 -0.3647 -0.2865
 2286TIP3    H228350   1.523   5.341  12.257  0.9680 -0.1939  0.9738
 2287TIP3   OH228351   6.592   0.309   0.599  0.4200 -0.6157 -0.4242
 2287TIP3    H128352   6.653   0.236   0.603 -1.6355 -2.4611 -0.8117
 2287TIP3    H228353   6.516   0.280   0.649 -0.4406  1.3140 -0.5073
 2288TIP3   OH228354   3.604   1.715   3.805  0.4455 -0.1134  0.4127
 2288TIP3    H128355   3.637   1.636   3.761 -0.9173  0.1775 -1.2550
 2288TIP3    H228356   3.581   1.774   3.733 -0.5182  0.9672  1.5734
 2289TIP3   OH228357   1.483   6.027  13.759  0.0758  0.2851  0.6427
 2289TIP3    H128358   1.511   6.115  13.785  1.2112  0.1411 -0.0211
 2289TIP3    H228359   1.487   5.976  13.839 -1.4402  1.0230  1.2200
 2290TIP3   OH228360   4.077   2.322   6.346 -0.2947  0.2430 -0.0447
 2290TIP3    H128361   4.144   2.255   6.361  0.8277  1.5696  1.2378
 2290TIP3    H228362   4.061   2.320   6.252  1.0321 -0.6043 -0.2714
 2291TIP3   OH228363   0.797   1.174  14.921  0.1014  0.6951 -0.3799
 2291TIP3    H128364   0.840   1.240  14.975  1.3215 -1.3275  1.2468
 2291TIP3    H228365   0.858   1.159  14.849  0.5793  0.2543  0.1029
 2292TIP3   OH228366   6.092   4.473  12.571  0.3711 -0.2944 -0.2697
 2292TIP3    H128367   6.148   4.469  12.648  1.3237 -0.2651 -0.9422
 2292TIP3    H228368   6.010   4.511  12.603  0.9923  0.3735  0.5903
 2293TIP3   OH228369   5.985   6.230  16.104  0.0326  0.1090 -0.4776
 2293TIP3    H128370   6.029   6.164  16.157  0.2299 -0.5655 -1.4612
 2293TIP3    H228371   5.899   6.193  16.086 -0.6157  0.9928  0.5991
 2294TIP3   OH228372   3.891   1.626   2.805 -0.0142 -0.4934  0.1948
 2294TIP3    H128373   3.977   1.601   2.770 -0.8432 -0.9475 -1.6432
 2294TIP3    H228374   3.873   1.560   2.872  0.6263 -1.0109 -0.1173
 2295TIP3   OH228375   4.410   2.331   5.941  0.2284  0.1889  0.0848
 2295TIP3    H128376   4.469   2.268   5.981 -1.4717 -0.9835  0.8382
 2295TIP3    H228377   4.463   2.374   5.874  2.0531 -0.4595  1.0495
 2296TIP3   OH228378   1.615   1.782  15.024 -0.5327  0.1725  0.2781
 2296TIP3    H128379   1.549   1.775  14.955 -0.1465  0.7896 -0.1626
 2296TIP3    H228380   1.640   1.874  15.025 -0.8698  0.2647  1.5666
 2297TIP3   OH228381   0.324   2.036  15.980  0.3097 -0.0902  0.4788
 2297TIP3    H128382   0.304   2.125  15.951  1.9086 -0.1513 -0.9599
 2297TIP3    H228383   0.273   1.979  15.922 -0.6186 -0.1399  1.3196
 2298TIP3   OH228384   2.358   0.400  13.898 -0.5418 -0.0593  0.5718
 2298TIP3    H128385   2.390   0.362  13.816 -0.8989 -0.6060  0.6845
 2298TIP3    H228386   2.268   0.426  13.880 -0.2955  0.7736  0.4885
 2299TIP3   OH228387   0.729   3.057   5.221  0.0023 -0.1660  0.9653
 2299TIP3    H128388   0.754   3.149   5.236 -1.3250  0.3655  0.1077
 2299TIP3    H228389   0.812   3.010   5.222  0.8537  1.2289  0.1382
 2300TIP3   OH228390   6.536   5.174   2.996  0.0184 -0.1319  0.2924
 2300TIP3    H128391   6.448   5.200   2.971 -0.2775 -0.6344  0.7737
 2300TIP3    H228392   6.590   5.195   2.920 -0.2681  1.4707  0.5001
 2301TIP3   OH228393   0.173   5.346  15.010 -0.2576 -0.2020  0.3010
 2301TIP3    H128394   0.114   5.419  14.993  0.6212  1.0740  2.3188
 2301TIP3    H228395   0.187   5.347  15.105  1.7772 -1.4006  0.0895
 2302TIP3   OH228396   3.005   1.182  11.994  0.0565  0.0598 -0.4647
 2302TIP3    H128397   3.037   1.113  12.053 -0.7562  0.5000  0.5275
 2302TIP3    H228398   2.999   1.139  11.909  1.8625 -0.4238 -0.3956
 2303TIP3   OH228399   0.088   4.957   3.750  0.0220 -0.1667  0.0977
 2303TIP3    H128400   0.013   4.920   3.703  0.0245 -1.1162  0.8198
 2303TIP3    H228401   0.083   5.051   3.732 -0.3363 -0.4188 -1.2811
 2304TIP3   OH228402   3.746   3.373   4.111  0.2240  0.2472 -0.2015
 2304TIP3    H128403   3.836   3.375   4.143  0.8905 -1.5545 -1.7527
 2304TIP3    H228404   3.753   3.400   4.019 -0.6525 -0.7708 -0.5889
 2305TIP3   OH228405   3.104   1.919   3.916  0.0520  0.0469 -0.0035
 2305TIP3    H128406   3.110   1.825   3.932  0.9332 -0.0864 -0.9951
 2305TIP3    H228407   3.162   1.934   3.842  1.1970  1.6306  1.1565
 2306TIP3   OH228408   4.686   2.310   1.008 -0.1186 -0.5486 -0.1088
 2306TIP3    H128409   4.746   2.335   0.938  1.2350  0.8779  1.4818
 2306TIP3    H228410   4.599   2.329   0.973  0.4531 -0.6335 -1.6674
 2307TIP3   OH228411   4.485   4.217  17.066  0.4541  0.1562  0.3364
 2307TIP3    H128412   4.473   4.303  17.108 -2.3947  0.0107  0.0347
 2307TIP3    H228413   4.443   4.155  17.126  1.3816 -0.8718 -0.0453
 2308TIP3   OH228414   5.536   2.573   3.416 -0.4338 -0.1644  0.1650
 2308TIP3    H128415   5.501   2.584   3.328  2.0286  1.8792 -0.6720
 2308TIP3    H228416   5.574   2.486   3.416 -0.0778 -0.0231 -0.9552
 2309TIP3   OH228417   0.830   2.983  11.530 -0.6412  0.8907 -0.6197
 2309TIP3    H128418   0.748   3.032  11.532  0.3028  2.5289 -0.4134
 2309TIP3    H228419   0.894   3.044  11.492  0.5858 -0.1732 -0.3464
 2310TIP3   OH228420   3.256   0.610   3.952  0.1118  0.3005  0.4954
 2310TIP3    H128421   3.272   0.703   3.939 -1.5465  0.6916  1.0594
 2310TIP3    H228422   3.184   0.606   4.014 -0.1880 -1.3545  0.0844
 2311TIP3   OH228423   4.174   2.806  11.359  0.1403  0.0052 -0.2728
 2311TIP3    H128424   4.163   2.746  11.433  0.6925  0.1787 -0.0446
 2311TIP3    H228425   4.085   2.824  11.329  0.0051 -2.0311 -1.2362
 2312TIP3   OH228426   4.418   4.143  14.425  0.9728  0.1563  0.1783
 2312TIP3    H128427   4.409   4.182  14.338 -0.4312 -0.7248 -0.0939
 2312TIP3    H228428   4.440   4.217  14.482  0.2990  1.0211 -0.6470
 2313TIP3   OH228429   3.866   1.192   3.948 -0.4387  0.4542  0.0144
 2313TIP3    H128430   3.855   1.174   3.855 -0.6861  1.0757 -0.0853
 2313TIP3    H228431   3.961   1.202   3.960 -0.2023 -1.6657  0.2392
 2314TIP3   OH228432   4.904   2.222  16.250  0.1501 -0.0303 -0.0950
 2314TIP3    H128433   4.993   2.198  16.276  0.2619  0.8458  0.3643
 2314TIP3    H228434   4.915   2.297  16.191 -0.2202 -0.6975 -1.0341
 2315TIP3   OH228435   0.591   0.669  17.129  0.8920 -0.5764  0.2893
 2315TIP3    H128436   0.557   0.698  17.213  0.5546 -0.1141 -0.0034
 2315TIP3    H228437   0.623   0.748  17.086 -0.0018 -0.6147 -0.4963
 2316TIP3   OH228438   6.403   1.168  15.188 -0.0571  0.2328  0.1584
 2316TIP3    H128439   6.483   1.200  15.230  0.7712  0.3794 -1.4264
 2316TIP3    H228440   6.435   1.111  15.117 -1.4370 -2.0769  1.2822
 2317TIP3   OH228441   0.196   3.282   5.616  0.4800 -0.5400 -0.1746
 2317TIP3    H128442   0.233   3.345   5.677 -0.6081 -0.2377  0.1972
 2317TIP3    H228443   0.256   3.282   5.541  0.8415  0.4409  0.1031
 2318TIP3   OH228444   5.671   5.590   6.163  0.6288 -0.2751 -0.1287
 2318TIP3    H128445   5.588   5.572   6.120 -0.6441 -1.0094  2.4395
 2318TIP3    H228446   5.649   5.653   6.232  2.1718 -0.5504  0.6512
 2319TIP3   OH228447   3.493   1.237   1.910  0.3506  0.4325  1.0200
 2319TIP3    H128448   3.529   1.202   1.829 -0.7969 -0.0384  0.6853
 2319TIP3    H228449   3.565   1.235   1.972  0.9457 -0.2431  0.3181
 2320TIP3   OH228450   0.983   1.877   2.019  0.0941 -0.5548 -0.3028
 2320TIP3    H128451   1.028   1.805   1.976  0.2579 -1.0924  0.7314
 2320TIP3    H228452   1.026   1.885   2.104  1.2221  1.8773 -1.0031
 2321TIP3   OH228453   2.639   5.137  16.971  0.0711  0.0043  0.1810
 2321TIP3    H128454   2.716   5.092  17.005  0.4536 -0.3500 -1.1006
 2321TIP3    H228455   2.583   5.150  17.047  0.9928 -0.5500  0.9716
 2322TIP3   OH228456   3.967   3.874   4.072  0.3074  0.2180 -0.3105
 2322TIP3    H128457   4.026   3.939   4.110 -0.2584  0.4232  0.2369
 2322TIP3    H228458   3.906   3.853   4.143 -1.4208  1.3527 -1.3676
 2323TIP3   OH228459   0.528   0.178  11.511 -0.2229 -0.0456 -0.0310
 2323TIP3    H128460   0.570   0.260  11.485 -1.5285  1.4762  2.2906
 2323TIP3    H228461   0.595   0.131  11.561 -0.1472  0.7041  0.5911
 2324TIP3   OH228462   0.053   0.909  14.906  0.0265  0.4615  0.1279
 2324TIP3    H128463   0.102   0.966  14.846 -0.0662  0.5005  0.0900
 2324TIP3    H228464  -0.014   0.965  14.944  0.8189  0.7261  1.1528
 2325TIP3   OH228465   0.125   4.302  12.212 -0.3007  0.3130 -0.4487
 2325TIP3    H128466   0.101   4.216  12.246 -0.1876 -0.4892 -2.2973
 2325TIP3    H228467   0.043   4.351  12.210 -1.0030 -0.8437 -2.3519
 2326TIP3   OH228468   3.731   6.175   1.589  0.4292 -0.0905  0.8174
 2326TIP3    H128469   3.654   6.202   1.639  0.4680 -0.0289  0.8447
 2326TIP3    H228470   3.738   6.081   1.603  0.6237 -0.0223  1.1820
 2327TIP3   OH228471   3.294   0.990   3.446 -0.0519  0.1321 -0.1250
 2327TIP3    H128472   3.303   0.982   3.351 -0.9280  0.2577 -0.2274
 2327TIP3    H228473   3.372   1.038   3.473 -0.0407  0.5501 -0.8505
 2328TIP3   OH228474   3.746   3.350  10.933  0.1765 -1.1167 -0.0623
 2328TIP3    H128475   3.703   3.311  11.009 -0.1692 -0.7846 -0.0805
 2328TIP3    H228476   3.809   3.412  10.970 -0.2321 -0.7032 -0.0406
 2329TIP3   OH228477   0.779   3.055  10.844 -0.1684  0.2345 -0.5686
 2329TIP3    H128478   0.689   3.083  10.830 -0.4616 -0.7294 -0.6106
 2329TIP3    H228479   0.779   3.016  10.931 -0.3192 -1.8725 -1.4703
 2330TIP3   OH228480   0.251   4.253  11.724  0.8855  0.0458  0.2099
 2330TIP3    H128481   0.247   4.343  11.691  1.8462  0.0480  0.0663
 2330TIP3    H228482   0.159   4.227  11.735  0.5821  1.5494  1.6571
 2331TIP3   OH228483   3.516   0.488  15.805  0.0001 -0.2275 -0.6438
 2331TIP3    H128484   3.555   0.537  15.733  0.8468  2.3925  1.4084
 2331TIP3    H228485   3.491   0.404  15.767  2.0760  0.3095 -3.4915
 2332TIP3   OH228486   6.276   2.936  15.708  0.2215 -0.0491 -0.3166
 2332TIP3    H128487   6.250   2.925  15.617  0.8761  1.2492 -0.6728
 2332TIP3    H228488   6.244   2.856  15.751  0.6432 -1.0692 -1.8236
 2333TIP3   OH228489   6.075   6.578  14.603  0.4205  0.4221  0.2487
 2333TIP3    H128490   6.095   6.551  14.692  0.9994  1.7940  0.5636
 2333TIP3    H228491   6.156   6.561  14.554  0.0366 -0.5265 -0.0843
 2334TIP3   OH228492   2.775   0.711   0.025  0.1242  0.0085 -0.3504
 2334TIP3    H128493   2.799   0.795  -0.013  0.4789  0.0201 -0.1109
 2334TIP3    H228494   2.727   0.666  -0.044  0.1502  0.3096 -0.5665
 2335TIP3   OH228495   5.489   1.570   1.228  0.6455 -0.0277  0.4623
 2335TIP3    H128496   5.463   1.560   1.320  0.9419 -3.3044  0.3051
 2335TIP3    H228497   5.429   1.514   1.180  0.8371  1.2270 -1.3098
 2336TIP3   OH228498   2.086   5.835  14.183 -0.2495  0.2129  0.4055
 2336TIP3    H128499   2.161   5.867  14.233  0.8602  0.0800 -1.0925
 2336TIP3    H228500   2.014   5.893  14.207  1.1913  2.6047 -0.6910
 2337TIP3   OH228501   6.819   4.761   0.194  0.0727 -0.2039  0.2990
 2337TIP3    H128502   6.755   4.697   0.164 -0.5106  1.3794 -2.1290
 2337TIP3    H228503   6.799   4.774   0.287 -3.1562  0.2310 -0.3506
 2338TIP3   OH228504   4.601   5.343   0.737 -0.3620 -0.0652 -0.5475
 2338TIP3    H128505   4.656   5.420   0.724 -0.8713  0.3850 -0.0713
 2338TIP3    H228506   4.541   5.344   0.662  1.1096 -1.3013 -1.7952
 2339TIP3   OH228507   4.457   2.133  11.373 -0.1816  0.0854  0.4989
 2339TIP3    H128508   4.449   2.224  11.344 -0.4969 -0.1128 -0.0378
 2339TIP3    H228509   4.385   2.121  11.435 -0.8007 -0.1140 -0.2488
 2340TIP3   OH228510   3.506   4.122   0.756 -0.0912 -0.5082 -0.6148
 2340TIP3    H128511   3.428   4.152   0.709  0.2976  0.3937 -0.7096
 2340TIP3    H228512   3.533   4.198   0.808  0.6994 -0.8213 -0.5576
 2341TIP3   OH228513   1.667   3.813  14.847 -0.2536  0.1851  0.1487
 2341TIP3    H128514   1.641   3.738  14.901 -0.6984  1.2914  1.5321
 2341TIP3    H228515   1.759   3.797  14.827 -0.3221 -0.6927  0.4910
 2342TIP3   OH228516   3.127   4.421   3.811 -0.4982  0.0453  0.2617
 2342TIP3    H128517   3.206   4.368   3.797 -1.1303 -0.7419 -0.4156
 2342TIP3    H228518   3.096   4.394   3.897 -0.0908  0.2925  0.4925
 2343TIP3   OH228519   5.272   1.127   0.530 -0.5429 -0.2540 -0.0689
 2343TIP3    H128520   5.294   1.187   0.459 -1.1535 -0.2280 -0.2436
 2343TIP3    H228521   5.225   1.056   0.487 -3.3011  1.0431  0.5997
 2344TIP3   OH228522   6.802   5.347  15.729  0.8999 -0.1403 -0.4738
 2344TIP3    H128523   6.732   5.293  15.766  0.5080  0.8577  0.3136
 2344TIP3    H228524   6.758   5.409  15.672  1.0952  0.6294  0.1841
 2345TIP3   OH228525   4.192   1.622   3.935 -0.3149  0.1484 -0.3140
 2345TIP3    H128526   4.250   1.552   3.904 -1.4088 -0.6402 -0.6628
 2345TIP3    H228527   4.125   1.628   3.867  0.2353  2.1903 -0.7463
 2346TIP3   OH228528   2.627   3.114  16.612 -0.2124  0.0915  0.3400
 2346TIP3    H128529   2.592   3.039  16.661 -0.8632  1.3150  1.8655
 2346TIP3    H228530   2.706   3.139  16.661 -0.1539  0.5606  0.0086
 2347TIP3   OH228531   6.741   3.842  17.111  0.4738  0.3728 -0.0412
 2347TIP3    H128532   6.667   3.842  17.051  0.5903  0.2639 -0.1876
 2347TIP3    H228533   6.733   3.760  17.160 -0.6688  1.3049  1.4167
 2348TIP3   OH228534   0.244   4.901  12.661 -0.3137 -0.5707  0.5159
 2348TIP3    H128535   0.320   4.911  12.603 -0.9676 -0.5513 -0.3617
 2348TIP3    H228536   0.190   4.978  12.642 -0.7620 -0.8146  0.8028
 2349TIP3   OH228537   6.620   0.556  13.430  0.5925  0.7161  0.3654
 2349TIP3    H128538   6.560   0.485  13.451 -0.0925  1.3116  0.4467
 2349TIP3    H228539   6.696   0.540  13.486  0.9165 -0.5454 -0.3836
 2350TIP3   OH228540   3.557   0.956   5.453  0.4054  0.5380  0.0634
 2350TIP3    H128541   3.501   0.889   5.413 -0.1798  0.6259  0.7117
 2350TIP3    H228542   3.554   0.936   5.547 -0.1640  1.7616  0.3195
 2351TIP3   OH228543   6.298   5.180   2.400  0.1175  0.3856 -0.3713
 2351TIP3    H128544   6.385   5.206   2.429  0.3435  0.3121 -0.9688
 2351TIP3    H228545   6.279   5.237   2.326  0.1230 -0.3328 -0.9427
 2352TIP3   OH228546   4.945   4.046  10.793 -0.3260  0.2368 -0.4580
 2352TIP3    H128547   4.946   4.107  10.867 -2.4214 -0.9437  0.6186
 2352TIP3    H228548   4.866   4.069  10.744 -1.4007 -1.7948  0.2076
 2353TIP3   OH228549   2.767   0.310   4.052 -0.4770 -0.1369 -0.4041
 2353TIP3    H128550   2.789   0.257   3.975 -1.6438 -1.3536  0.0503
 2353TIP3    H228551   2.735   0.393   4.016 -0.4094 -0.4510 -1.2120
 2354TIP3   OH228552   4.735   3.442  13.801  0.2885 -0.2107  0.4295
 2354TIP3    H128553   4.751   3.389  13.879 -0.0774 -1.4925 -0.3424
 2354TIP3    H228554   4.639   3.442  13.791  0.3148  0.1969  0.1420
 2355TIP3   OH228555   1.399   2.040  16.591  0.3487  0.3234  0.4161
 2355TIP3    H128556   1.453   2.104  16.638 -0.2971  1.9028 -0.8871
 2355TIP3    H228557   1.315   2.085  16.578 -1.5010 -2.1321  2.6471
 2356TIP3   OH228558   4.653   2.109   5.086 -0.1629 -0.4474 -0.2873
 2356TIP3    H128559   4.699   2.049   5.144 -0.1823  0.3272  0.5350
 2356TIP3    H228560   4.707   2.187   5.084 -1.2817  0.3719  0.4699
 2357TIP3   OH228561   0.500   5.355   3.936 -0.2278 -0.2506 -0.5081
 2357TIP3    H128562   0.557   5.403   3.877 -0.1790  0.4256  0.0780
 2357TIP3    H228563   0.439   5.420   3.969 -1.7676 -1.0672 -1.6022
 2358TIP3   OH228564   3.421   4.306   4.016 -0.1477 -0.2040  0.1196
 2358TIP3    H128565   3.342   4.307   4.071 -1.1144  0.9573 -1.1957
 2358TIP3    H228566   3.388   4.294   3.927  0.7911  3.1440 -0.8512
 2359TIP3   OH228567   1.395   3.379  10.937  0.2309 -0.6083  0.1449
 2359TIP3    H128568   1.375   3.291  10.969  0.8989 -0.8240 -0.0239
 2359TIP3    H228569   1.485   3.395  10.965  0.2330 -0.1149 -0.1318
 2360TIP3   OH228570   1.624   0.856   3.055 -0.4125 -0.8465 -0.3354
 2360TIP3    H128571   1.582   0.942   3.054 -0.0041 -0.6357  0.0629
 2360TIP3    H228572   1.664   0.850   3.142  1.7630 -0.3549 -1.2209
 2361TIP3   OH228573   3.325   4.521  17.030 -0.4480  0.3945 -0.4670
 2361TIP3    H128574   3.307   4.581  17.102 -1.8188 -0.1551 -0.3219
 2361TIP3    H228575   3.388   4.567  16.975 -0.7410  1.5523  0.1433
 2362TIP3   OH228576   1.182   3.695   3.640 -0.2377  0.3754 -0.2209
 2362TIP3    H128577   1.199   3.789   3.633 -0.3648  0.4400  0.3165
 2362TIP3    H228578   1.090   3.686   3.615 -0.0314  0.3018 -0.9689
 2363TIP3   OH228579   2.626   5.917   0.815  0.5042 -0.3763  0.4938
 2363TIP3    H128580   2.604   6.002   0.852  0.8938  0.3734 -0.8940
 2363TIP3    H228581   2.570   5.855   0.861 -1.6729  0.9603 -0.1946
 2364TIP3   OH228582   3.513   4.218   4.460 -0.1637  0.5522 -0.0088
 2364TIP3    H128583   3.435   4.273   4.467 -0.9655 -0.3579 -1.3225
 2364TIP3    H228584   3.555   4.247   4.379 -1.0719 -1.2873 -1.2020
 2365TIP3   OH228585   2.128   0.293   0.488 -0.4617 -0.6230  0.3353
 2365TIP3    H128586   2.151   0.244   0.567  0.6688  0.7506  0.9044
 2365TIP3    H228587   2.197   0.360   0.480 -0.8397 -0.3876 -1.5210
 2366TIP3   OH228588   0.825   0.693   3.071 -0.4409 -0.6896 -0.0676
 2366TIP3    H128589   0.779   0.733   3.145  1.3043  0.4047  0.4786
 2366TIP3    H228590   0.813   0.599   3.085 -0.3808 -0.5014  1.4727
 2367TIP3   OH228591   3.285   2.377   4.302 -0.4830 -0.1971 -0.5776
 2367TIP3    H128592   3.225   2.445   4.271 -1.0016 -0.0425  0.7117
 2367TIP3    H228593   3.233   2.296   4.299 -1.7784  0.3187  3.0840
 2368TIP3   OH228594   4.475   0.234   0.832 -0.0205  0.2688  0.2937
 2368TIP3    H128595   4.416   0.159   0.830  0.2877  0.0114  0.6800
 2368TIP3    H228596   4.557   0.199   0.868  0.4964  0.5280 -0.6207
 2369TIP3   OH228597   4.419   4.741  13.919 -0.0816  0.5725 -0.1344
 2369TIP3    H128598   4.404   4.673  13.854 -1.1219 -0.1559  0.8363
 2369TIP3    H228599   4.372   4.817  13.885 -4.3832 -0.9879  1.6778
 2370TIP3   OH228600   3.338   1.222   5.386 -0.2372 -0.1271  0.5430
 2370TIP3    H128601   3.297   1.184   5.308 -1.5492 -0.2275  1.2551
 2370TIP3    H228602   3.415   1.267   5.352 -0.8788  0.0013 -0.8454
 2371TIP3   OH228603   3.566   4.233   2.696  0.0215  0.3798  0.6554
 2371TIP3    H128604   3.516   4.302   2.740 -0.4868  0.9845 -0.8113
 2371TIP3    H228605   3.526   4.226   2.610  0.0096 -1.8324  0.7939
 2372TIP3   OH228606   1.839   4.447   4.407  0.3314 -0.4193 -0.4711
 2372TIP3    H128607   1.909   4.436   4.343 -0.0919  0.4458 -1.1190
 2372TIP3    H228608   1.847   4.372   4.466  1.6956 -0.4092 -0.6193
 2373TIP3   OH228609   6.364   2.744  11.727 -0.1318 -0.0802 -0.0385
 2373TIP3    H128610   6.404   2.829  11.710  0.8891 -0.7525 -1.2140
 2373TIP3    H228611   6.296   2.735  11.661 -0.0668 -0.2721 -0.0817
 2374TIP3   OH228612   2.336   5.592   5.454 -0.3808  0.0418 -0.1930
 2374TIP3    H128613   2.251   5.596   5.497 -0.6884 -1.3103 -0.6216
 2374TIP3    H228614   2.316   5.576   5.362  0.3115 -1.4542 -0.1281
 2375TIP3   OH228615   2.448   5.349   4.951  0.5392 -0.0299 -0.5510
 2375TIP3    H128616   2.535   5.343   4.910  0.4944 -2.6152 -0.4450
 2375TIP3    H228617   2.437   5.264   4.994 -1.9844  0.3129 -0.4145
 2376TIP3   OH228618   2.796   0.226  14.703  0.3452 -0.7290 -0.5521
 2376TIP3    H128619   2.713   0.184  14.724  0.7564  0.1101  3.6946
 2376TIP3    H228620   2.860   0.155  14.709  0.1457 -1.2277 -3.1111
 2377TIP3   OH228621   0.895   5.291   2.675 -0.4570 -0.4562 -0.3286
 2377TIP3    H128622   0.884   5.355   2.604 -1.3350 -0.7459 -0.4651
 2377TIP3    H228623   0.989   5.291   2.693 -0.5671  1.7967  0.5451
 2378TIP3   OH228624   3.091   1.526   5.669  0.5851 -0.4214 -0.7664
 2378TIP3    H128625   3.123   1.449   5.623  0.4396 -0.6394 -0.5095
 2378TIP3    H228626   3.164   1.587   5.668  0.8978 -0.7864 -0.4697
 2379TIP3   OH228627   1.674   0.885  13.150  1.3386  0.4215 -0.5491
 2379TIP3    H128628   1.630   0.953  13.099  1.3847  0.3799 -0.6431
 2379TIP3    H228629   1.762   0.920  13.165  0.3599  1.9890  2.3779
 2380TIP3   OH228630   0.103   5.565  10.939 -0.7984 -0.0058  0.5010
 2380TIP3    H128631   0.056   5.557  10.856 -2.0456  1.5314  1.0083
 2380TIP3    H228632   0.195   5.575  10.914 -0.8707 -1.7090 -0.5784
 2381TIP3   OH228633   1.681   6.552   3.780  0.2198 -0.5422  0.4550
 2381TIP3    H128634   1.598   6.587   3.811 -0.2587 -0.5889 -0.7122
 2381TIP3    H228635   1.670   6.457   3.785  0.4709 -0.5489  0.9545
 2382TIP3   OH228636   6.390   6.446   5.200 -1.1523 -0.0194 -0.1261
 2382TIP3    H128637   6.466   6.479   5.248 -0.4010  0.4346 -1.5791
 2382TIP3    H228638   6.418   6.362   5.165 -1.1409  0.3629 -1.0566
 2383TIP3   OH228639   0.641   2.318  11.653 -0.1093  0.1636 -0.3262
 2383TIP3    H128640   0.700   2.252  11.618  0.3067  0.8088 -0.8837
 2383TIP3    H228641   0.694   2.367  11.716 -0.7191 -0.6868  0.8764
 2384TIP3   OH228642   4.745   3.065   1.379 -0.1179 -0.2802  0.1803
 2384TIP3    H128643   4.688   3.031   1.310  0.1949 -2.9912  1.1574
 2384TIP3    H228644   4.795   3.134   1.336  0.9924 -2.6958 -2.7569
 2385TIP3   OH228645   1.957   1.593  12.464 -0.0914  0.1792  0.0646
 2385TIP3    H128646   2.041   1.567  12.502  1.5278 -0.2183 -3.4829
 2385TIP3    H228647   1.932   1.519  12.408 -0.6190  1.9883 -2.2036
 2386TIP3   OH228648   2.590   3.488  14.646  0.5702  0.1040 -0.1875
 2386TIP3    H128649   2.614   3.400  14.676  1.3699 -0.2437 -1.7590
 2386TIP3    H228650   2.598   3.542  14.724  1.2090 -1.0087  0.5510
 2387TIP3   OH228651   0.842   6.129   4.258 -0.1059  0.3949 -0.1089
 2387TIP3    H128652   0.933   6.157   4.251  0.4523 -0.6212  2.2699
 2387TIP3    H228653   0.800   6.197   4.312 -0.2854 -0.0819  0.3620
 2388TIP3   OH228654   3.991   4.461  13.329 -1.0722 -0.1206  0.5653
 2388TIP3    H128655   4.007   4.548  13.293  0.3518 -0.3787  0.4986
 2388TIP3    H228656   3.898   4.445  13.314 -0.8310  0.3353 -1.7790
 2389TIP3   OH228657   4.519   2.445   3.156 -0.0488  0.1340 -0.4146
 2389TIP3    H128658   4.599   2.491   3.181 -0.4424  0.5872  0.0358
 2389TIP3    H228659   4.510   2.463   3.062 -0.2781  1.1191 -0.2118
 2390TIP3   OH228660   4.455   3.149  14.074  0.6243  0.0715 -0.6013
 2390TIP3    H128661   4.417   3.159  13.987 -0.6577  2.7509  0.1681
 2390TIP3    H228662   4.545   3.180  14.065  0.3835  0.6956 -0.8934
 2391TIP3   OH228663   5.431   4.181   2.196 -0.0671 -0.0365 -0.2397
 2391TIP3    H128664   5.391   4.246   2.254 -1.0333 -1.5820  0.8904
 2391TIP3    H228665   5.525   4.199   2.201 -0.3086  1.3083 -0.0350
 2392TIP3   OH228666   6.277   4.279   0.350  0.1353  0.3599  0.4531
 2392TIP3    H128667   6.200   4.223   0.340  0.4810  0.1735 -1.4129
 2392TIP3    H228668   6.253   4.339   0.421 -1.3393 -0.3340  0.5808
 2393TIP3   OH228669   1.354   1.503  16.401  0.1885  0.3925 -0.5251
 2393TIP3    H128670   1.398   1.445  16.463  0.1697  0.2898 -0.6089
 2393TIP3    H228671   1.351   1.454  16.319 -1.7624 -0.3912 -0.0474
 2394TIP3   OH228672   1.092   0.562  14.133  0.4470 -0.1353 -0.3585
 2394TIP3    H128673   1.087   0.466  14.139 -0.7096 -0.1239 -0.9919
 2394TIP3    H228674   1.007   0.589  14.098 -0.2868  1.3338  2.2566
 2395TIP3   OH228675   1.830   3.129   0.358  0.4620  0.3084  0.0220
 2395TIP3    H128676   1.780   3.057   0.320  0.8996 -0.2515  0.4749
 2395TIP3    H228677   1.764   3.193   0.384 -0.3990 -1.6312  3.2489
 2396TIP3   OH228678   4.350   4.307  13.156 -0.0209  0.7907  0.3367
 2396TIP3    H128679   4.441   4.309  13.128 -0.5776  1.3056 -1.5739
 2396TIP3    H228680   4.300   4.325  13.077 -1.8799 -1.3060  0.9351
 2397TIP3   OH228681   4.325   4.089  12.147  0.0576  0.5611 -0.3294
 2397TIP3    H128682   4.254   4.152  12.137  0.5237  1.4645  1.4939
 2397TIP3    H228683   4.403   4.135  12.115  0.1792  0.4573 -0.1883
 2398TIP3   OH228684   1.380   5.831  13.412  0.0845  0.1793  0.1904
 2398TIP3    H128685   1.432   5.753  13.393  1.9424  0.9360  1.8600
 2398TIP3    H228686   1.312   5.801  13.472  0.7453 -0.1860  0.7686
 2399TIP3   OH228687   4.794   2.060  14.533  0.5557 -0.4333 -0.1336
 2399TIP3    H128688   4.719   2.114  14.508  0.0881 -0.3468  1.3922
 2399TIP3    H228689   4.869   2.119  14.527  0.3649 -0.2279 -0.5980
 2400TIP3   OH228690   0.849   5.810   1.461 -0.2150  0.5880 -0.6176
 2400TIP3    H128691   0.908   5.798   1.386 -0.6193  1.1246 -1.0363
 2400TIP3    H228692   0.786   5.738   1.454 -0.9029  1.2394 -1.4406
 2401TIP3   OH228693   2.558   1.856  12.190  0.0151  0.4169 -0.1048
 2401TIP3    H128694   2.557   1.823  12.280  2.3358  2.4248  0.7573
 2401TIP3    H228695   2.469   1.890  12.176  0.1001  1.7159  2.1220
 2402TIP3   OH228696   6.639   2.083   1.059 -0.3530 -0.3241  1.1633
 2402TIP3    H128697   6.647   2.159   1.117  0.9021  0.9350 -0.5714
 2402TIP3    H228698   6.551   2.048   1.078  0.0623 -0.1176  3.9083
 2403TIP3   OH228699   3.548   2.179   0.711  0.0941 -0.4007 -0.2937
 2403TIP3    H128700   3.591   2.225   0.638 -0.3102 -1.5277 -1.2774
 2403TIP3    H228701   3.603   2.199   0.787  0.9709  0.1806 -1.0521
 2404TIP3   OH228702   6.103   6.722   5.599  0.1161  0.4301  0.4887
 2404TIP3    H128703   6.020   6.764   5.623 -1.1338 -0.5504 -1.8489
 2404TIP3    H228704   6.144   6.784   5.538 -0.4774 -0.4867 -0.8844
 2405TIP3   OH228705   4.834   6.352  13.391  0.0957  0.0782 -0.3784
 2405TIP3    H128706   4.858   6.300  13.467  1.7555  1.0937 -0.1464
 2405TIP3    H228707   4.846   6.443  13.419  2.9109  0.4842 -2.3963
 2406TIP3   OH228708   3.597   2.741  14.507  0.0261  0.0476 -0.0515
 2406TIP3    H128709   3.506   2.733  14.479 -0.9082  0.4594  2.5982
 2406TIP3    H228710   3.600   2.824  14.555  1.3809 -0.7426  1.2997
 2407TIP3   OH228711   4.932   2.350  16.555  0.6855  0.5419 -0.0300
 2407TIP3    H128712   4.861   2.339  16.618  1.3865  1.0949  0.8792
 2407TIP3    H228713   4.935   2.267  16.507 -1.3127  0.9032 -0.8854
 2408TIP3   OH228714   0.553   5.228  13.866 -0.5375  0.3527 -0.9376
 2408TIP3    H128715   0.541   5.259  13.776 -0.0142  2.5036 -0.3293
 2408TIP3    H228716   0.466   5.202  13.894 -0.4346 -2.1964 -2.6300
 2409TIP3   OH228717   0.611   0.485  15.249  0.4422  0.0499  0.8181
 2409TIP3    H128718   0.589   0.424  15.320  0.1876 -0.2868  0.4588
 2409TIP3    H228719   0.534   0.541  15.240 -0.3310 -1.1332 -0.4441
 2410TIP3   OH228720   4.121   1.288   0.719  0.0922  0.2028  0.2156
 2410TIP3    H128721   4.026   1.281   0.713 -0.0511  1.5354  0.6525
 2410TIP3    H228722   4.141   1.373   0.681  1.4449 -1.2588 -2.6975
 2411TIP3   OH228723   6.119   4.495   1.447 -0.3405 -0.4632 -0.5414
 2411TIP3    H128724   6.085   4.406   1.450  1.1521 -1.0311  1.4123
 2411TIP3    H228725   6.091   4.534   1.530  2.0964 -0.3612  0.2956
 2412TIP3   OH228726   4.887   1.522   4.677 -0.3084  0.3578  0.4812
 2412TIP3    H128727   4.932   1.452   4.629 -1.4962  0.0476 -0.2277
 2412TIP3    H228728   4.955   1.586   4.695  0.2913  0.2690 -1.2613
 2413TIP3   OH228729   5.533   5.706   1.243  0.1603 -0.2246 -0.3374
 2413TIP3    H128730   5.569   5.787   1.279 -1.2701 -0.0157  0.7707
 2413TIP3    H228731   5.462   5.735   1.186  0.7155 -0.6575 -1.2597
 2414TIP3   OH228732   2.819   1.591   1.080  0.1434  0.1579  0.0975
 2414TIP3    H128733   2.831   1.622   1.170 -0.3773 -1.0814  0.6079
 2414TIP3    H228734   2.737   1.543   1.082  0.7635 -0.9814 -0.7420
 2415TIP3   OH228735   4.243   5.567   1.581 -0.7361 -0.2983 -0.5484
 2415TIP3    H128736   4.255   5.657   1.611 -0.0111 -0.2491 -0.9566
 2415TIP3    H228737   4.329   5.542   1.547 -0.4616 -1.7160  1.0756
 2416TIP3   OH228738   3.655   4.893   0.261  0.6652  0.2062 -0.4378
 2416TIP3    H128739   3.673   4.964   0.323  0.3915 -0.6741  0.6966
 2416TIP3    H228740   3.738   4.877   0.217  0.9152  0.7207 -0.1554
 2417TIP3   OH228741   6.656   0.891  12.104  0.0102 -0.0927 -0.4786
 2417TIP3    H128742   6.644   0.822  12.040 -0.3334  1.6890 -2.4495
 2417TIP3    H228743   6.570   0.931  12.114  0.3062  0.4075  0.1980
 2418TIP3   OH228744   6.271   4.318   5.361 -0.0031  0.3731 -0.0342
 2418TIP3    H128745   6.271   4.272   5.444 -1.2209  1.4071  0.5738
 2418TIP3    H228746   6.186   4.360   5.357 -0.4263 -0.5562 -2.3331
 2419TIP3   OH228747   5.840   4.112   4.829 -0.1936  0.2428 -0.2280
 2419TIP3    H128748   5.755   4.068   4.824 -0.2364  0.4238 -1.3692
 2419TIP3    H228749   5.858   4.120   4.923 -1.2552 -0.1414  0.0160
 2420TIP3   OH228750   6.757   1.098   0.276  0.1307  0.4731  0.1355
 2420TIP3    H128751   6.688   1.042   0.311  0.3233  0.1874  0.0694
 2420TIP3    H228752   6.806   1.127   0.352 -0.4791  1.2484  0.2439
 2421TIP3   OH228753   1.466   2.586  15.182 -0.0318  0.1641 -0.7134
 2421TIP3    H128754   1.487   2.604  15.090 -1.9207  1.6067 -0.9278
 2421TIP3    H228755   1.421   2.502  15.181  0.3221 -0.0227 -1.0500
 2422TIP3   OH228756   5.666   4.258  14.535  0.2327 -0.2017 -1.0658
 2422TIP3    H128757   5.609   4.181  14.536  0.6190 -0.5194  1.1247
 2422TIP3    H228758   5.654   4.298  14.621  1.6312  1.0003 -1.3876
 2423TIP3   OH228759   6.269   1.633  11.391 -0.3681  0.1572  0.4401
 2423TIP3    H128760   6.239   1.599  11.306 -0.9023 -1.2159  1.1606
 2423TIP3    H228761   6.190   1.634  11.446 -0.1802  1.7259  0.7371
 2424TIP3   OH228762   2.818   5.911   5.647 -0.1270 -0.3137 -0.8591
 2424TIP3    H128763   2.845   5.871   5.565 -1.2434 -2.9006 -0.0685
 2424TIP3    H228764   2.868   5.865   5.714 -0.0397  0.9850  0.0051
 2425TIP3   OH228765   6.368   1.842   6.430  0.6847 -0.5462 -0.2676
 2425TIP3    H128766   6.391   1.914   6.488 -1.5683  0.6727 -0.7541
 2425TIP3    H228767   6.337   1.773   6.488  0.6629 -0.2391  0.0901
 2426TIP3   OH228768   6.497   0.675   2.140  0.1543  0.3304 -0.2470
 2426TIP3    H128769   6.512   0.693   2.233 -0.7785 -1.2626  0.2520
 2426TIP3    H228770   6.443   0.596   2.140  0.4453  0.0999 -2.1625
 2427TIP3   OH228771   3.161   5.767   5.185  0.6466 -0.2660 -0.1493
 2427TIP3    H128772   3.088   5.707   5.168 -0.4054  0.9293  0.0466
 2427TIP3    H228773   3.120   5.846   5.219  1.8566  1.0864 -1.6630
 2428TIP3   OH228774   1.338   0.084  12.462  0.4381 -0.6067 -0.0839
 2428TIP3    H128775   1.344   0.013  12.526  0.8243 -0.4901  0.0143
 2428TIP3    H228776   1.308   0.160  12.513 -3.1721 -1.4311 -0.7605
 2429TIP3   OH228777   6.482   0.223   4.598  0.1408 -0.3746 -0.3776
 2429TIP3    H128778   6.522   0.301   4.635 -0.0516  0.1105 -1.1623
 2429TIP3    H228779   6.390   0.246   4.586  0.5703  0.2914 -3.1176
 2430TIP3   OH228780   5.414   4.618  16.413 -0.1272  0.1644 -0.6031
 2430TIP3    H128781   5.420   4.523  16.421  0.1649  0.1312 -1.1401
 2430TIP3    H228782   5.320   4.635  16.408 -0.1684 -0.1546 -1.0522
 2431TIP3   OH228783   4.009   4.329   1.537  0.5522 -0.1702 -0.4972
 2431TIP3    H128784   4.075   4.372   1.482  1.6417  1.2124  1.7297
 2431TIP3    H228785   3.973   4.399   1.591  1.8970 -1.8201  2.8119
 2432TIP3   OH228786   5.079   3.859  10.952 -0.4357  0.1403 -0.2401
 2432TIP3    H128787   5.174   3.859  10.939 -0.3602  0.3020  0.2644
 2432TIP3    H228788   5.044   3.910  10.879 -0.0313  1.0738  0.1922
 2433TIP3   OH228789   0.785   6.260  12.159 -0.2152  0.5485 -0.0295
 2433TIP3    H128790   0.735   6.319  12.102  0.6356  0.4533 -0.8989
 2433TIP3    H228791   0.772   6.173  12.121 -2.4865 -0.0905  1.9585
 2434TIP3   OH228792   5.152   2.067  15.616  0.5109 -0.2036  0.0079
 2434TIP3    H128793   5.135   2.153  15.579  1.0804 -0.0134  0.1773
 2434TIP3    H228794   5.230   2.035  15.570  0.5725 -0.4310  0.2627
 2435TIP3   OH228795   3.269   4.664   4.745 -0.0547 -0.2259 -0.5815
 2435TIP3    H128796   3.274   4.722   4.669 -2.3254  1.1652  0.2417
 2435TIP3    H228797   3.176   4.657   4.764  0.4447  0.0207  2.4657
 2436TIP3   OH228798   4.234   0.835  14.438 -0.2322 -0.0776  0.2723
 2436TIP3    H128799   4.197   0.754  14.405 -1.2451  0.1130  0.8836
 2436TIP3    H228800   4.160   0.880  14.480  0.5131  0.7142  0.7801
 2437TIP3   OH228801   2.242   0.657   2.893 -0.3089  0.2705  0.4066
 2437TIP3    H128802   2.252   0.584   2.833  1.5737  0.7539  0.0522
 2437TIP3    H228803   2.238   0.617   2.980 -0.2843 -0.2967  0.1466
 2438TIP3   OH228804   6.303   4.636   6.761 -0.1153  0.9122  0.2462
 2438TIP3    H128805   6.314   4.584   6.841  0.7078 -0.2069 -0.5677
 2438TIP3    H228806   6.285   4.724   6.793 -3.0915 -0.0668  1.7123
 2439TIP3   OH228807   4.854   3.220  11.770  0.3626 -0.2343  0.1857
 2439TIP3    H128808   4.915   3.146  11.773 -0.0883 -0.6601 -0.7288
 2439TIP3    H228809   4.908   3.296  11.751  0.5646 -0.6902 -1.1523
 2440TIP3   OH228810   0.345   2.544  15.759 -0.7085  0.4722  0.6807
 2440TIP3    H128811   0.273   2.513  15.704  0.2040  0.4950 -0.5566
 2440TIP3    H228812   0.325   2.636  15.776 -0.1488  0.9403 -1.0529
 2441TIP3   OH228813   4.492   6.653   5.861 -0.4279  0.4097 -0.2684
 2441TIP3    H128814   4.400   6.651   5.888 -0.5313  0.8911 -0.5634
 2441TIP3    H228815   4.536   6.592   5.920 -1.1930 -0.9768 -1.0725
 2442TIP3   OH228816   4.968   1.406  12.717  0.1598 -0.5773 -0.2943
 2442TIP3    H128817   4.875   1.426  12.712  0.4781  0.9901 -0.2392
 2442TIP3    H228818   5.005   1.441  12.637  0.8104 -0.6270 -0.0248
 2443TIP3   OH228819   6.082   3.495  12.366 -0.5075 -0.1363 -0.1125
 2443TIP3    H128820   6.178   3.500  12.367 -0.5370  0.5124  1.1691
 2443TIP3    H228821   6.055   3.570  12.313 -0.3544  1.7294  2.2805
 2444TIP3   OH228822   4.560   1.359   0.429 -0.1671  0.1603 -0.4647
 2444TIP3    H128823   4.496   1.293   0.401 -2.4797  2.0771 -0.0332
 2444TIP3    H228824   4.579   1.337   0.520  0.4505 -0.8993 -0.8370
 2445TIP3   OH228825   2.440   2.313   3.568 -0.2607  0.0135  0.3924
 2445TIP3    H128826   2.345   2.305   3.562 -0.1359 -0.7754 -0.7837
 2445TIP3    H228827   2.470   2.306   3.478  0.8503  1.2782  0.6375
 2446TIP3   OH228828   5.068   2.370   5.330 -0.0870 -0.4827 -0.1169
 2446TIP3    H128829   5.114   2.395   5.410  0.6938 -1.4314 -0.2467
 2446TIP3    H228830   5.072   2.274   5.330 -2.3531 -0.6178  0.0230
 2447TIP3   OH228831   5.984   0.725  14.816 -0.3253 -0.1068  0.0383
 2447TIP3    H128832   5.957   0.639  14.782  1.4900 -0.5880 -0.2626
 2447TIP3    H228833   5.951   0.726  14.906 -1.4496 -0.5815 -0.3398
 2448TIP3   OH228834   2.600   3.720   5.803 -0.0619 -0.2221  0.2613
 2448TIP3    H128835   2.569   3.785   5.739  0.1442  0.3908  0.7709
 2448TIP3    H228836   2.687   3.696   5.773  0.6725  1.2126  1.1196
 2449TIP3   OH228837   5.150   1.831   2.951 -0.5911 -0.2129 -0.1588
 2449TIP3    H128838   5.134   1.858   2.860 -1.1715  1.7452  0.4793
 2449TIP3    H228839   5.102   1.749   2.960 -0.7032 -0.3345 -1.5467
 2450TIP3   OH228840   5.243   1.787   0.573  0.7023 -0.2927  0.1292
 2450TIP3    H128841   5.323   1.761   0.618  0.5427  1.7671  1.8093
 2450TIP3    H228842   5.253   1.882   0.560 -1.0716 -0.1341 -0.3915
 2451TIP3   OH228843   1.446   1.670  17.194  0.7553 -0.1254 -0.0177
 2451TIP3    H128844   1.456   1.726  17.117 -2.2685 -0.1486 -0.5485
 2451TIP3    H228845   1.460   1.729  17.268  0.7131  0.5958 -0.5734
 2452TIP3   OH228846   4.458   2.946   5.687  0.2512 -0.1402  0.6357
 2452TIP3    H128847   4.416   2.943   5.773 -1.0080  0.0718  0.0532
 2452TIP3    H228848   4.451   3.037   5.660  1.6105  0.0168  0.7479
 2453TIP3   OH228849   5.111   2.371  14.190 -0.2411 -0.2316 -0.1997
 2453TIP3    H128850   5.155   2.421  14.121  1.1613 -0.4903  0.4661
 2453TIP3    H228851   5.045   2.432  14.225  1.0422  0.9847  0.2042
 2454TIP3   OH228852   4.812   3.101   5.006 -0.0367  0.1063  0.8423
 2454TIP3    H128853   4.781   3.189   4.984  0.3997  0.5031  1.7410
 2454TIP3    H228854   4.905   3.102   4.984 -0.0193 -0.1137  0.9019
 2455TIP3   OH228855   6.145   4.164   1.502  0.1883  0.1176 -0.5123
 2455TIP3    H128856   6.211   4.095   1.513  0.0132  0.1987  1.2200
 2455TIP3    H228857   6.075   4.141   1.563  0.0576  1.7318 -0.0010
 2456TIP3   OH228858   5.742   5.683  11.081 -0.1821  0.2371 -0.1603
 2456TIP3    H128859   5.733   5.601  11.033  3.0728 -1.1730  1.2947
 2456TIP3    H228860   5.725   5.659  11.172 -0.0622  1.3881  0.1852
 2457TIP3   OH228861   3.173   0.693   2.053  0.1515 -0.1462  0.1324
 2457TIP3    H128862   3.207   0.694   1.963 -1.2673 -0.1124 -0.4330
 2457TIP3    H228863   3.092   0.643   2.047  0.9163 -1.7099  1.7514
 2458TIP3   OH228864   3.742   4.186   2.906  0.7999  0.0143 -0.0066
 2458TIP3    H128865   3.705   4.208   2.992  0.5865  0.1456 -0.1301
 2458TIP3    H228866   3.678   4.220   2.844 -0.3339 -2.3239 -0.2019
 2459TIP3   OH228867   5.771   5.589   2.475  0.2806 -0.1574  0.4350
 2459TIP3    H128868   5.851   5.636   2.499  0.2992  0.3815 -0.6254
 2459TIP3    H228869   5.709   5.658   2.451 -0.0021 -0.6389 -0.2414
 2460TIP3   OH228870   0.700   1.205   3.788  0.4699  0.2366 -0.0531
 2460TIP3    H128871   0.728   1.291   3.757 -0.9437  0.3020 -1.2529
 2460TIP3    H228872   0.684   1.155   3.709  0.3807 -0.8283  0.6234
 2461TIP3   OH228873   1.337   6.524   2.595 -1.0984  0.1027  0.3622
 2461TIP3    H128874   1.267   6.514   2.660 -1.7122 -0.5164 -0.3710
 2461TIP3    H228875   1.291   6.531   2.512 -0.4450  2.9613  0.1242
 2462TIP3   OH228876   1.992   1.497  11.662 -0.0591  0.3893 -0.0045
 2462TIP3    H128877   1.980   1.416  11.711  0.8876  0.9813  1.2476
 2462TIP3    H228878   2.019   1.561  11.727 -0.8618  1.7506 -0.9535
 2463TIP3   OH228879   1.032   5.771   1.260  0.1524 -0.0666  0.0922
 2463TIP3    H128880   1.032   5.758   1.165 -0.4492 -0.8041  0.1818
 2463TIP3    H228881   1.099   5.838   1.275 -1.6634  2.1610 -1.1316
 2464TIP3   OH228882   2.443   6.154   3.745 -0.3709 -0.6353  0.3634
 2464TIP3    H128883   2.419   6.080   3.690 -0.2281 -1.1333  0.9614
 2464TIP3    H228884   2.528   6.130   3.783 -1.5669 -1.4472  2.7658
 2465TIP3   OH228885   1.153   5.005  16.104 -0.0882  0.2578  0.3969
 2465TIP3    H128886   1.245   5.006  16.079  0.2985  0.7469  1.7594
 2465TIP3    H228887   1.110   5.062  16.040  0.4485 -0.4049 -0.5743
 2466TIP3   OH228888   1.406   1.685  16.141  0.0620  0.4100  0.0303
 2466TIP3    H128889   1.486   1.633  16.134 -0.2560 -0.1278  0.3039
 2466TIP3    H228890   1.352   1.637  16.204 -0.5525  0.6628 -0.2938
 2467TIP3   OH228891   6.281   1.661  14.805 -0.0947 -0.2951  0.1756
 2467TIP3    H128892   6.352   1.703  14.756  1.2279  0.0573  2.3012
 2467TIP3    H228893   6.308   1.570  14.813 -0.4943 -0.4367 -0.0713
 2468TIP3   OH228894   4.836   2.638   2.270  0.6498  0.1874  0.1999
 2468TIP3    H128895   4.784   2.613   2.194 -1.2718 -0.4262  1.6373
 2468TIP3    H228896   4.801   2.723   2.296  0.8741  0.1083  0.7746
 2469TIP3   OH228897   6.115   6.785   0.240 -0.3400  0.1251  0.3150
 2469TIP3    H128898   6.058   6.760   0.167 -0.5882  0.7352  0.2950
 2469TIP3    H228899   6.152   6.869   0.214 -0.2271  0.2218  0.7841
 2470TIP3   OH228900   4.728   0.250   2.316  0.4072 -0.3559  0.0978
 2470TIP3    H128901   4.653   0.300   2.345  0.8504  1.9019 -2.2368
 2470TIP3    H228902   4.703   0.218   2.229  1.9923  0.2540 -0.6314
 2471TIP3   OH228903   4.725   1.181   3.074  0.3871  0.0737 -0.1134
 2471TIP3    H128904   4.701   1.137   2.992  2.3311  0.0443 -0.7239
 2471TIP3    H228905   4.718   1.274   3.054  2.8376  0.1206 -1.0340
 2472TIP3   OH228906   0.746   3.292  16.859  0.1643  0.2282  0.3825
 2472TIP3    H128907   0.703   3.221  16.907 -1.0387  0.4771 -0.2812
 2472TIP3    H228908   0.677   3.358  16.849  0.7652  0.7264 -0.5426
 2473TIP3   OH228909   5.696   2.617   3.730 -0.4386  0.8024 -0.2182
 2473TIP3    H128910   5.652   2.603   3.814 -0.8568 -0.8087 -0.6644
 2473TIP3    H228911   5.649   2.691   3.691 -1.0951  0.7323  0.3980
 2474TIP3   OH228912   2.208   5.422  15.302 -0.3581 -0.3174  0.0229
 2474TIP3    H128913   2.158   5.489  15.349 -0.5749  0.4288 -1.2232
 2474TIP3    H228914   2.180   5.340  15.341 -0.9440  0.2422  0.8167
 2475TIP3   OH228915   5.236   4.243  16.315 -0.0900 -0.4070 -0.0898
 2475TIP3    H128916   5.309   4.194  16.276 -0.2271 -0.3570 -0.4142
 2475TIP3    H228917   5.174   4.254  16.243 -1.3246 -2.1592  0.6339
 2476TIP3   OH228918   4.382   4.812   4.928  0.1400  0.1139 -0.2154
 2476TIP3    H128919   4.327   4.880   4.967 -0.5451  0.2087 -1.3128
 2476TIP3    H228920   4.344   4.796   4.842  0.2012 -1.7543  0.0413
 2477TIP3   OH228921   3.093   1.735   4.544  0.2704  0.1978  0.5437
 2477TIP3    H128922   3.189   1.733   4.549  0.2983  0.5604  0.2087
 2477TIP3    H228923   3.068   1.647   4.518  0.4958  0.0230  0.9044
 2478TIP3   OH228924   5.338   0.900  14.360 -1.0640  0.0570  0.6339
 2478TIP3    H128925   5.341   0.919  14.266 -0.4440 -0.4606  0.5426
 2478TIP3    H228926   5.301   0.811  14.365  0.6355 -0.6815  0.7504
 2479TIP3   OH228927   1.619   4.526  10.499  0.1153  0.1119 -0.4677
 2479TIP3    H128928   1.695   4.535  10.558 -0.7174 -1.0642  0.8276
 2479TIP3    H228929   1.622   4.435  10.469 -0.5897  0.1521 -0.6767
 2480TIP3   OH228930   3.173   5.178  17.054 -0.1576 -0.3893  0.1223
 2480TIP3    H128931   3.242   5.244  17.045 -0.7879  0.6912  2.5577
 2480TIP3    H228932   3.219   5.095  17.043  1.3022  0.3546  0.3645
 2481TIP3   OH228933   0.345   0.590  15.213 -0.1041 -0.8082 -0.2408
 2481TIP3    H128934   0.263   0.638  15.221  0.0670 -0.6658  0.9699
 2481TIP3    H228935   0.325   0.502  15.245  0.5641 -0.3082  1.7543
 2482TIP3   OH228936   5.736   1.673   2.768  0.2916 -0.4621  0.4159
 2482TIP3    H128937   5.660   1.625   2.801  0.4160 -0.8508  0.1484
 2482TIP3    H228938   5.784   1.699   2.847 -0.4318  0.3232  0.6116
 2483TIP3   OH228939   4.193   6.832  13.804 -0.1939  0.0388  0.3961
 2483TIP3    H128940   4.107   6.854  13.767 -0.0765 -0.2148 -0.0417
 2483TIP3    H228941   4.243   6.800  13.729  1.0786  2.3801  0.1586
 2484TIP3   OH228942   1.724   2.121  14.041  0.0469 -0.0944  0.7866
 2484TIP3    H128943   1.656   2.059  14.014 -1.3568  0.8737  1.9326
 2484TIP3    H228944   1.798   2.066  14.067  0.2825 -1.1407 -1.7913
 2485TIP3   OH228945   5.774   4.398  16.988  0.4192  0.1610  0.3384
 2485TIP3    H128946   5.790   4.489  16.966  1.0980 -0.3592 -1.5574
 2485TIP3    H228947   5.754   4.398  17.081  0.3143  2.2423  0.3520
 2486TIP3   OH228948   5.989   0.726   5.730 -0.2179 -0.0619 -0.2477
 2486TIP3    H128949   5.994   0.747   5.637 -1.2464  1.6924  0.0531
 2486TIP3    H228950   5.932   0.650   5.734  2.2988 -2.1742 -1.2407
 2487TIP3   OH228951   4.648   6.740   6.785  0.1838  0.4637 -0.5529
 2487TIP3    H128952   4.629   6.721   6.694 -0.2963  1.8712 -0.7679
 2487TIP3    H228953   4.582   6.690   6.835  0.2787 -0.0899 -0.9714
 2488TIP3   OH228954   6.011   5.844   1.375  0.4368 -0.1652 -0.3998
 2488TIP3    H128955   6.022   5.858   1.469 -2.4851 -2.6063  0.4559
 2488TIP3    H228956   6.099   5.828   1.342  1.4116 -0.4441  2.1730
 2489TIP3   OH228957   5.535   0.833   0.016 -1.1944 -0.0572 -0.2805
 2489TIP3    H128958   5.492   0.830  -0.070 -2.3353 -1.7996  0.3148
 2489TIP3    H228959   5.626   0.858  -0.004 -1.8685  1.4485 -1.7793
 2490TIP3   OH228960   0.273   5.488  12.091 -0.4218 -0.5185  0.4084
 2490TIP3    H128961   0.352   5.435  12.084 -1.0753 -1.5044  0.1890
 2490TIP3    H228962   0.212   5.434  12.141 -0.6617  0.6082  1.3877
 2491TIP3   OH228963   3.780   5.210  15.049 -0.3008 -0.0261 -0.4134
 2491TIP3    H128964   3.785   5.285  14.990 -2.3478  0.6918  0.2623
 2491TIP3    H228965   3.766   5.135  14.990 -2.3024  0.6790 -0.9163
 2492TIP3   OH228966   4.440   4.355  15.891  0.2657 -0.1574 -0.3064
 2492TIP3    H128967   4.448   4.433  15.945  1.3928 -1.1589  1.0703
 2492TIP3    H228968   4.491   4.374  15.812 -2.3542  1.7777 -1.6947
 2493TIP3   OH228969   6.572   6.769   4.854  0.3366  0.3553 -0.1638
 2493TIP3    H128970   6.648   6.827   4.851 -0.4308  1.4382  0.6662
 2493TIP3    H228971   6.544   6.761   4.763  1.3986 -0.0355 -0.4796
 2494TIP3   OH228972   3.009   3.607  16.945 -0.2192  0.2150  0.0077
 2494TIP3    H128973   2.961   3.639  17.021  0.8623 -0.4527  1.0002
 2494TIP3    H228974   2.953   3.539  16.908 -1.5025  1.6275 -0.7999
 2495TIP3   OH228975   5.270   0.745  12.315  0.0984 -0.3713 -0.8812
 2495TIP3    H128976   5.254   0.831  12.355  0.3917 -1.6348  2.2113
 2495TIP3    H228977   5.183   0.713  12.292 -0.0133  0.6990 -2.0758
 2496TIP3   OH228978   3.193   6.089   1.632 -0.4594  0.0529  0.3697
 2496TIP3    H128979   3.124   6.095   1.566 -0.4104 -1.8359  0.0906
 2496TIP3    H228980   3.251   6.164   1.613 -0.5634 -0.3144 -1.6103
 2497TIP3   OH228981   0.137   3.435   0.836 -0.2048 -0.9423  0.1367
 2497TIP3    H128982   0.120   3.412   0.745 -0.6637 -1.4999  0.3601
 2497TIP3    H228983   0.092   3.519   0.848 -0.2746 -0.9450 -0.1070
 2498TIP3   OH228984   2.986   3.364   0.667 -0.2165 -0.2039 -0.1453
 2498TIP3    H128985   3.078   3.347   0.684 -0.0882 -0.7246 -1.2769
 2498TIP3    H228986   2.983   3.456   0.639 -0.0587 -0.1572 -0.0088
 2499TIP3   OH228987   3.790   0.399   5.440 -0.3365 -0.5100 -0.2156
 2499TIP3    H128988   3.750   0.329   5.493  0.1657 -0.9797 -0.4414
 2499TIP3    H228989   3.719   0.433   5.387 -1.2463  1.0733  1.8830
 2500TIP3   OH228990   6.023   1.326   0.898 -0.3900 -0.0991  0.1741
 2500TIP3    H128991   6.109   1.332   0.940 -1.0145  2.7945  1.2960
 2500TIP3    H228992   6.039   1.353   0.807 -0.2718  2.0084  0.7671
 2501TIP3   OH228993   0.690   2.309  13.208 -0.2541  0.4182  0.0149
 2501TIP3    H128994   0.726   2.394  13.183  0.2663  0.2925  0.3271
 2501TIP3    H228995   0.651   2.275  13.127  0.1993  0.6217 -0.2966
 2502TIP3   OH228996   2.817   0.087  14.185  0.0543  0.6256  0.1334
 2502TIP3    H128997   2.764   0.046  14.253  0.5582  0.1665  0.2544
 2502TIP3    H228998   2.753   0.124  14.124 -0.4447 -0.7773 -0.2491
 2503TIP3   OH228999   0.416   2.157   3.721 -0.4552 -0.1967  0.0720
 2503TIP3    H129000   0.366   2.177   3.800  1.4821  0.5928  1.1726
 2503TIP3    H229001   0.418   2.239   3.672  0.1304 -0.0978  0.2569
 2504TIP3   OH229002   6.619   0.550   1.341 -0.0173 -0.4827 -0.6292
 2504TIP3    H129003   6.524   0.558   1.344  0.1405  1.8173  1.3665
 2504TIP3    H229004   6.651   0.622   1.395  2.9296 -0.2584 -2.4613
 2505TIP3   OH229005   5.458   0.398   2.342 -0.5745 -0.3738  0.3367
 2505TIP3    H129006   5.397   0.363   2.277  1.0976 -1.8090 -0.5456
 2505TIP3    H229007   5.452   0.493   2.332 -0.0549 -0.5478 -2.2599
 2506TIP3   OH229008   1.982   2.646   2.588 -0.1859 -0.3131  0.2276
 2506TIP3    H129009   2.013   2.717   2.531 -0.9605 -0.4207 -0.3445
 2506TIP3    H229010   1.887   2.648   2.580 -0.2381 -1.1905  0.4751
 2507TIP3   OH229011   6.480   1.774  14.295  0.3086 -0.2699 -0.2855
 2507TIP3    H129012   6.566   1.808  14.270  0.0969  0.6528  0.1970
 2507TIP3    H229013   6.447   1.734  14.215  0.9695 -0.1618 -0.6221
 2508TIP3   OH229014   4.852   3.028  13.572 -0.3971  0.2367  0.3913
 2508TIP3    H129015   4.910   3.080  13.628  2.8789  0.2231 -2.6668
 2508TIP3    H229016   4.877   3.051  13.483 -1.6390 -3.5671 -1.1437
 2509TIP3   OH229017   4.784   5.167   2.667 -0.7265 -0.3734 -0.2039
 2509TIP3    H129018   4.711   5.211   2.711 -0.4551  1.4747 -1.4763
 2509TIP3    H229019   4.821   5.235   2.610  2.3623 -1.0592  0.8107
 2510TIP3   OH229020   1.677   6.231  13.843 -0.0389  0.5924  0.3643
 2510TIP3    H129021   1.711   6.185  13.766  0.0012  1.1362  0.0495
 2510TIP3    H229022   1.699   6.174  13.917  2.2075  1.2386  0.2603
 2511TIP3   OH229023   6.391   0.364   3.785  0.0293 -0.1573 -0.7559
 2511TIP3    H129024   6.324   0.338   3.722 -0.1386 -0.4168 -0.4741
 2511TIP3    H229025   6.395   0.292   3.848  1.2355 -0.5818 -1.2915
 2512TIP3   OH229026   3.387   2.599   2.889 -0.1665  0.1815  0.1503
 2512TIP3    H129027   3.422   2.577   2.803 -2.5448 -0.4425 -0.7194
 2512TIP3    H229028   3.292   2.595   2.879 -0.6217  2.8046  2.0896
 2513TIP3   OH229029   1.179   3.142   2.729  0.0414 -0.2473  0.2043
 2513TIP3    H129030   1.144   3.078   2.791 -0.5014 -0.0000  0.1615
 2513TIP3    H229031   1.179   3.225   2.777 -2.4702  0.4206 -0.7484
 2514TIP3   OH229032   3.280   2.299   5.648 -0.3575  0.5529 -0.2541
 2514TIP3    H129033   3.273   2.258   5.562 -0.7662 -0.9447  0.4630
 2514TIP3    H229034   3.255   2.390   5.633 -1.5204  0.0579 -1.5201
 2515TIP3   OH229035   3.638   6.067   5.802  0.2099  0.2410  0.3337
 2515TIP3    H129036   3.641   6.134   5.870 -0.1084  0.8636 -0.2614
 2515TIP3    H229037   3.727   6.065   5.767 -0.0975  1.3161 -0.5588
 2516TIP3   OH229038   3.734   3.916  14.110  0.3618  0.4693 -0.2632
 2516TIP3    H129039   3.748   3.942  14.202  0.3729 -2.4602  0.6548
 2516TIP3    H229040   3.644   3.941  14.092 -0.3828 -0.8422  1.3276
 2517TIP3   OH229041   1.633   3.748   3.387  0.1913  0.1901 -0.2727
 2517TIP3    H129042   1.649   3.829   3.338 -0.8489 -1.0271 -2.8351
 2517TIP3    H229043   1.566   3.703   3.336  0.3744 -2.0713  1.3551
 2518TIP3   OH229044   3.276   3.099  11.835  0.7081  0.0969  0.7904
 2518TIP3    H129045   3.366   3.121  11.811  0.7601  0.3774  1.2354
 2518TIP3    H229046   3.279   3.007  11.859  1.1344  0.4117  2.0145
 2519TIP3   OH229047   0.209   2.810   3.182 -0.3880  0.2980  0.3897
 2519TIP3    H129048   0.230   2.755   3.258 -0.3504  0.0598  0.2061
 2519TIP3    H229049   0.290   2.857   3.163  0.1606 -1.0228 -0.6555
 2520TIP3   OH229050   5.508   1.607  15.272  0.5171 -0.1231  0.3218
 2520TIP3    H129051   5.459   1.575  15.348 -1.6218  1.1933 -0.4169
 2520TIP3    H229052   5.594   1.633  15.307 -0.7933  1.5322  2.5683
 2521TIP3   OH229053   1.157   5.588   3.243  0.9239 -0.1443  1.0164
 2521TIP3    H129054   1.067   5.562   3.260 -0.0246  2.4863  0.4962
 2521TIP3    H229055   1.163   5.591   3.147  1.1908  0.7631  1.0539
 2522TIP3   OH229056   0.478   1.494  12.597  0.0066 -0.8004 -0.4423
 2522TIP3    H129057   0.414   1.456  12.657  0.5297  2.0879  2.2156
 2522TIP3    H229058   0.472   1.440  12.518 -2.2343 -3.5575  1.4054
 2523TIP3   OH229059   0.956   5.601   3.769  0.4015  0.8281 -0.2219
 2523TIP3    H129060   1.027   5.547   3.805 -0.0402  0.8628  0.7291
 2523TIP3    H229061   0.986   5.623   3.681  0.5539 -1.0421 -0.6785
 2524TIP3   OH229062   5.750   5.315   1.268  0.7942 -0.3967  0.4995
 2524TIP3    H129063   5.698   5.354   1.197  1.4916  0.3052  0.3667
 2524TIP3    H229064   5.798   5.389   1.306  1.0289 -0.9000  1.1901
 2525TIP3   OH229065   1.056   5.305  15.039 -0.0089  0.1817  0.2082
 2525TIP3    H129066   1.140   5.340  15.009 -0.5129  1.8168  0.5710
 2525TIP3    H229067   1.012   5.380  15.079 -1.2619 -0.8597  0.8729
 2526TIP3   OH229068   0.370   2.477   5.575 -0.3977  0.6682 -0.5992
 2526TIP3    H129069   0.325   2.550   5.533  0.0369  2.2155  1.4382
 2526TIP3    H229070   0.462   2.502   5.575 -0.2237  0.0526 -0.0046
 2527TIP3   OH229071   3.293   2.538  17.054 -1.1842 -0.0661 -0.0556
 2527TIP3    H129072   3.315   2.505  17.142  2.0561 -0.2375 -0.7895
 2527TIP3    H229073   3.340   2.479  16.995 -2.1354  0.9288 -1.8572
 2528TIP3   OH229074   5.283   5.222   0.904  0.5110  0.4982  0.0555
 2528TIP3    H129075   5.257   5.311   0.880  0.7609  0.6663  0.3994
 2528TIP3    H229076   5.218   5.166   0.863 -0.7341  0.9442  1.3421
 2529TIP3   OH229077   6.044   2.675  17.103  0.2483  0.3590  0.3367
 2529TIP3    H129078   6.115   2.673  17.168  1.0761  0.1958 -0.5439
 2529TIP3    H229079   6.083   2.637  17.025 -0.8062  0.3410 -0.1923
 2530TIP3   OH229080   5.592   3.887   2.589 -0.6595  0.0708  0.5536
 2530TIP3    H129081   5.685   3.868   2.577 -0.0921  2.8414 -0.1955
 2530TIP3    H229082   5.586   3.982   2.579 -3.7334 -0.1331 -0.3578
 2531TIP3   OH229083   4.197   2.999  11.717  0.2020 -0.2995 -0.1707
 2531TIP3    H129084   4.232   3.068  11.661  0.6940  0.6131  1.2234
 2531TIP3    H229085   4.113   2.976  11.677  0.1602  0.9104 -0.8145
 2532TIP3   OH229086   1.744   3.389   0.821 -0.0665  0.6449 -0.8946
 2532TIP3    H129087   1.756   3.452   0.751  0.7586  0.0351 -1.3256
 2532TIP3    H229088   1.649   3.388   0.837 -0.1315  1.6635 -1.1624
 2533TIP3   OH229089   6.158   5.685   3.166  0.5344 -0.3273  0.5173
 2533TIP3    H129090   6.233   5.688   3.225  0.2266  0.2817  0.8770
 2533TIP3    H229091   6.082   5.689   3.223  0.2340  0.9583  0.0546
 2534TIP3   OH229092   1.126   5.507   1.422 -0.3166  0.4054 -0.3814
 2534TIP3    H129093   1.157   5.566   1.353 -0.8287 -0.4938 -1.4322
 2534TIP3    H229094   1.162   5.542   1.503  1.6656  0.6055 -1.2948
 2535TIP3   OH229095   1.438   1.193  15.074  0.3967 -0.0785  0.3394
 2535TIP3    H129096   1.502   1.145  15.125 -0.2881 -0.4927  0.8262
 2535TIP3    H229097   1.353   1.159  15.103 -0.0867  1.0706  0.3587
 2536TIP3   OH229098   5.286   3.710   0.890 -0.3799  0.6462  0.2074
 2536TIP3    H129099   5.209   3.662   0.921  0.4695 -0.3353  0.8474
 2536TIP3    H229100   5.258   3.749   0.807 -2.0862  1.6962  1.2232
 2537TIP3   OH229101   6.677   4.707  15.246 -0.1472 -0.3577  0.0938
 2537TIP3    H129102   6.717   4.773  15.304  0.1680 -0.5911  0.1432
 2537TIP3    H229103   6.747   4.644  15.230 -0.2381 -0.2953 -0.5442
 2538TIP3   OH229104   4.007   0.970  12.025 -0.2893  0.0779 -0.2830
 2538TIP3    H129105   4.026   0.912  11.951  0.7218  0.6313 -0.4753
 2538TIP3    H229106   3.932   0.930  12.069 -1.1817 -0.0375 -1.8489
 2539TIP3   OH229107   6.439   3.679   0.205 -0.1190  0.2322  0.3065
 2539TIP3    H129108   6.528   3.678   0.242  0.3654  2.0183 -0.6940
 2539TIP3    H229109   6.443   3.617   0.132  0.6688  1.0761 -0.4079
 2540TIP3   OH229110   0.786   2.799  11.323 -0.3192  0.0213 -0.6280
 2540TIP3    H129111   0.871   2.776  11.285  0.2713  0.5225  0.3629
 2540TIP3    H229112   0.807   2.845  11.404 -1.5287 -1.5777  0.6751
 2541TIP3   OH229113   5.137   0.962   0.860 -0.5015  0.5095 -0.0594
 2541TIP3    H129114   5.166   0.872   0.844 -0.1087  0.6408 -0.0952
 2541TIP3    H229115   5.176   1.013   0.789 -0.4755  0.7567  0.1298
 2542TIP3   OH229116   0.039   5.071   5.298 -0.6628  0.2010 -0.3120
 2542TIP3    H129117   0.071   5.067   5.389 -1.1136  0.4947 -0.1370
 2542TIP3    H229118  -0.055   5.059   5.305 -0.5174 -1.4720 -0.9064
 2543TIP3   OH229119   0.120   5.494  14.643 -0.0249 -0.2576  0.0686
 2543TIP3    H129120   0.162   5.572  14.606  0.5458 -0.0428  1.1253
 2543TIP3    H229121   0.070   5.528  14.718 -0.2198 -0.8353  0.2005
 2544TIP3   OH229122   4.184   3.132   1.611  0.1235  1.0000 -0.4180
 2544TIP3    H129123   4.262   3.160   1.564  0.0091  0.9159 -0.6576
 2544TIP3    H229124   4.111   3.155   1.553 -0.0076  0.7298 -0.3641
 2545TIP3   OH229125   0.196   4.415  13.070 -0.5589  0.0981 -0.3038
 2545TIP3    H129126   0.279   4.445  13.107 -0.3856  0.6133 -1.0748
 2545TIP3    H229127   0.190   4.461  12.986 -1.0312 -0.8779 -0.8166
 2546TIP3   OH229128   5.534   3.401  15.543  0.1079  0.0071  0.0752
 2546TIP3    H129129   5.570   3.424  15.457  0.2227 -0.3945  0.0127
 2546TIP3    H229130   5.538   3.482  15.593  0.2271  0.1957 -0.2379
 2547TIP3   OH229131   2.588   6.322  15.007  0.4333 -0.6758  0.7093
 2547TIP3    H129132   2.542   6.256  14.956  0.3642 -0.7364  0.8511
 2547TIP3    H229133   2.678   6.290  15.013  0.2468 -1.0751  1.3323
 2548TIP3   OH229134   1.992   1.984   0.302 -0.3909 -0.1696  0.6663
 2548TIP3    H129135   1.959   1.896   0.317  0.9010 -0.4348  2.2233
 2548TIP3    H229136   1.924   2.027   0.250 -1.4049 -1.8185  0.5695
 2549TIP3   OH229137   1.877   2.203  16.764 -0.3165  0.4653  0.2505
 2549TIP3    H129138   1.925   2.280  16.735 -0.3543  0.3966 -0.0014
 2549TIP3    H229139   1.907   2.133  16.705  0.5326  0.0313  1.1668
 2550TIP3   OH229140   0.335   1.415   5.636 -0.2398  0.0519 -0.6169
 2550TIP3    H129141   0.392   1.455   5.702  0.8174 -0.7962 -0.9950
 2550TIP3    H229142   0.384   1.422   5.554 -1.7257  1.5109 -1.4442
 2551TIP3   OH229143   6.733   2.966   4.644  0.0008  0.6452 -0.1051
 2551TIP3    H129144   6.648   2.962   4.688  0.2886 -0.4647  0.3742
 2551TIP3    H229145   6.789   3.014   4.705  0.4297 -0.9845  0.8616
 2552TIP3   OH229146   3.269   0.610   0.747  0.0477  0.1413 -0.2153
 2552TIP3    H129147   3.364   0.604   0.752 -0.0449 -1.3742  0.5766
 2552TIP3    H229148   3.238   0.526   0.782 -1.5447 -0.0481 -1.9087
 2553TIP3   OH229149   5.906   0.145  15.936  0.3488 -0.0852 -0.4607
 2553TIP3    H129150   5.903   0.111  16.026 -1.5390  0.1417 -0.3997
 2553TIP3    H229151   5.815   0.140  15.906  0.9574 -0.1894 -2.3839
 2554TIP3   OH229152   6.709   6.785   1.810  0.2853  0.1983 -0.2319
 2554TIP3    H129153   6.730   6.694   1.828 -1.0593 -0.1930 -0.5175
 2554TIP3    H229154   6.665   6.783   1.725 -1.8806  0.7643  0.7930
 2555TIP3   OH229155   5.489   6.229   3.612 -0.0407  0.7777 -0.2877
 2555TIP3    H129156   5.573   6.269   3.633  0.0305  0.2672  0.4208
 2555TIP3    H229157   5.435   6.301   3.580  0.3135  1.3081  0.2932
 2556TIP3   OH229158   3.782   1.180  17.174  0.4193 -0.6755  0.4505
 2556TIP3    H129159   3.819   1.104  17.218  0.7954 -0.7530  0.0065
 2556TIP3    H229160   3.847   1.249  17.184  0.4637 -0.6654  0.1025
 2557TIP3   OH229161   2.622   2.629  12.551  0.1035 -0.1349  0.0476
 2557TIP3    H129162   2.630   2.723  12.536  1.1939 -0.0274  1.1770
 2557TIP3    H229163   2.570   2.622  12.631 -0.2546 -0.5108 -0.2129
 2558TIP3   OH229164   3.276   5.345   0.733  0.4103  0.2636  0.0633
 2558TIP3    H129165   3.244   5.380   0.817 -3.4034 -0.8299 -0.7487
 2558TIP3    H229166   3.232   5.260   0.725  1.8621 -0.3231 -2.3835
 2559TIP3   OH229167   1.854   0.814   5.572  0.3748 -0.1141  0.1411
 2559TIP3    H129168   1.949   0.811   5.585  0.5090 -1.7618 -0.9430
 2559TIP3    H229169   1.838   0.900   5.532  1.6153 -0.3721 -1.0015
 2560TIP3   OH229170   1.215   5.670   4.943  0.8370 -0.3321 -0.5510
 2560TIP3    H129171   1.282   5.676   4.875 -0.1180  2.3783 -1.3961
 2560TIP3    H229172   1.137   5.709   4.904 -0.3302 -0.5017  1.4373
 2561TIP3   OH229173   5.283   6.320   1.782 -0.4318  0.1879  0.2254
 2561TIP3    H129174   5.369   6.360   1.798 -0.2424  0.3059 -0.9884
 2561TIP3    H229175   5.303   6.235   1.744 -0.8465  0.1746  0.0301
 2562TIP3   OH229176   1.957   6.808  12.580 -0.0501 -0.0030  0.1265
 2562TIP3    H129177   1.896   6.875  12.548  0.6191  0.4022 -0.3210
 2562TIP3    H229178   1.904   6.729  12.586 -1.2002  0.8303  1.8991
 2563TIP3   OH229179   2.810   4.715   2.613 -0.2688  0.0124  0.0038
 2563TIP3    H129180   2.821   4.638   2.669  1.3121 -1.2801 -1.9305
 2563TIP3    H229181   2.761   4.682   2.538 -0.7204  1.2295 -0.2429
 2564TIP3   OH229182   3.360   2.579   5.835 -0.1027  0.8767  0.3290
 2564TIP3    H129183   3.385   2.597   5.925 -1.8833 -0.3084  1.1270
 2564TIP3    H229184   3.271   2.614   5.827 -1.5770 -2.4659  0.3538
 2565TIP3   OH229185   4.340   2.759   0.171 -0.5836 -0.1921  1.1398
 2565TIP3    H129186   4.337   2.802   0.086  0.1001  0.5222  1.4678
 2565TIP3    H229187   4.260   2.787   0.215 -0.6898 -0.1633  0.9306
 2566TIP3   OH229188   2.625   5.083  11.573  0.0127  0.6268  0.1452
 2566TIP3    H129189   2.564   5.156  11.563 -0.8339 -0.0166  0.5160
 2566TIP3    H229190   2.672   5.079  11.489 -0.9551  0.6823 -0.4075
 2567TIP3   OH229191   0.705   2.373  12.851  0.2022 -0.1025  0.1031
 2567TIP3    H129192   0.637   2.433  12.822 -0.1882 -1.2723 -1.5543
 2567TIP3    H229193   0.659   2.306  12.901  0.0043 -1.1497 -1.4111
 2568TIP3   OH229194   0.235   2.866   1.532  0.0585  0.6008  0.2656
 2568TIP3    H129195   0.181   2.832   1.604  0.4023  0.8434  0.6478
 2568TIP3    H229196   0.216   2.960   1.530 -1.5308  0.2991 -1.3414
 2569TIP3   OH229197   5.065   2.103   0.343  0.5088 -0.4316  0.0567
 2569TIP3    H129198   5.091   2.080   0.432  0.9289  1.2717  0.4241
 2569TIP3    H229199   4.969   2.110   0.348  0.5617  0.1030  0.5151
 2570TIP3   OH229200   5.568   4.066   4.755  0.3628 -0.5134 -0.4929
 2570TIP3    H129201   5.480   4.033   4.741  0.1630 -0.6645  1.0041
 2570TIP3    H229202   5.594   4.101   4.669 -0.9434 -0.9112 -1.0774
 2571TIP3   OH229203   5.823   2.840  17.113  0.4526  0.0583 -0.3762
 2571TIP3    H129204   5.793   2.821  17.202 -1.7483  0.4455 -0.9811
 2571TIP3    H229205   5.901   2.785  17.102  0.8148  0.0577  1.7920
 2572TIP3   OH229206   4.648   2.093  11.040  0.2143  0.6743 -0.1145
 2572TIP3    H129207   4.666   2.179  11.002  1.7037  0.7015  0.5919
 2572TIP3    H229208   4.707   2.086  11.115  0.5200 -1.1706 -0.4638
 2573TIP3   OH229209   1.228   1.801   1.472 -0.5316 -0.4126 -0.2453
 2573TIP3    H129210   1.176   1.870   1.430 -1.2960 -0.9838 -0.2670
 2573TIP3    H229211   1.304   1.791   1.415 -0.6335  0.0980 -0.4844
 2574TIP3   OH229212   5.797   2.531  15.772  0.6627  0.0383 -0.5553
 2574TIP3    H129213   5.778   2.443  15.803  4.4312 -0.4070  1.1489
 2574TIP3    H229214   5.729   2.586  15.811 -0.6945 -1.8680 -0.1065
 2575TIP3   OH229215   3.855   2.840   1.777 -0.0484  0.0975  0.3247
 2575TIP3    H129216   3.854   2.914   1.838  1.1050  0.1230  0.3502
 2575TIP3    H229217   3.861   2.880   1.690 -1.6958  0.0615  0.1612
 2576TIP3   OH229218   2.398   2.929  13.795  0.1026  0.3140 -0.3556
 2576TIP3    H129219   2.382   2.929  13.889  1.1419 -1.0871 -0.1507
 2576TIP3    H229220   2.490   2.953  13.786 -0.4593  2.3755 -1.1614
 2577TIP3   OH229221   3.696   2.709   3.472  0.7050 -0.1005  0.1057
 2577TIP3    H129222   3.615   2.731   3.427  0.0767 -1.4104  0.5630
 2577TIP3    H229223   3.764   2.752   3.421 -0.0990 -0.5381 -1.3765
 2578TIP3   OH229224   6.210   1.894   1.242 -0.8872  0.2077  0.1888
 2578TIP3    H129225   6.126   1.888   1.286 -2.1485 -1.2978 -2.2055
 2578TIP3    H229226   6.249   1.807   1.252  0.4607  0.8872  1.2897
 2579TIP3   OH229227   6.256   3.877   0.265 -0.3729 -0.4985 -0.5700
 2579TIP3    H129228   6.324   3.827   0.220 -1.5530 -1.5406 -1.2918
 2579TIP3    H229229   6.236   3.950   0.207  1.6979  1.2008  0.7090
 2580TIP3   OH229230   4.008   6.744   6.102  0.0458  0.1480 -0.5762
 2580TIP3    H129231   4.014   6.668   6.161  0.3378  0.3113 -0.3896
 2580TIP3    H229232   4.054   6.813   6.149 -0.7757  0.6230 -0.4640
 2581TIP3   OH229233   1.693   2.275   1.030  0.4687 -0.1132  0.4501
 2581TIP3    H129234   1.782   2.240   1.023 -0.0863 -1.3261 -1.2249
 2581TIP3    H229235   1.696   2.357   0.981  0.9924  0.6515  1.6932
 2582TIP3   OH229236   5.646   5.021   0.850  0.5463 -0.0512 -0.2165
 2582TIP3    H129237   5.705   5.032   0.925  0.0024  3.3944 -0.1436
 2582TIP3    H229238   5.701   5.040   0.774 -0.0879  1.7566 -0.2499
 2583TIP3   OH229239   4.759   5.444  12.279 -0.2626  0.3861 -0.1165
 2583TIP3    H129240   4.762   5.509  12.350  1.9337  0.9146 -0.6078
 2583TIP3    H229241   4.719   5.367  12.319  0.5262  0.8105  1.6128
 2584TIP3   OH229242   6.815   5.993   2.536  0.4216 -0.1234  0.1192
 2584TIP3    H129243   6.828   6.078   2.576 -1.3257  0.7398 -1.0298
 2584TIP3    H229244   6.809   5.932   2.610 -0.4726  1.0847  1.0762
 2585TIP3   OH229245   1.129   5.120   3.388 -0.6626  0.3149 -0.0508
 2585TIP3    H129246   1.181   5.048   3.423 -1.6014  0.0563  0.8765
 2585TIP3    H229247   1.193   5.181   3.351  0.3906  0.4343  1.8330
 2586TIP3   OH229248   2.629   2.657   5.129  0.4556  0.9203  0.0377
 2586TIP3    H129249   2.651   2.662   5.036 -0.0140  1.3236 -0.0581
 2586TIP3    H229250   2.538   2.628   5.130 -0.0212  2.3346  0.3060
 2587TIP3   OH229251   1.397   5.111   5.698  0.5144 -0.4392 -0.4027
 2587TIP3    H129252   1.461   5.182   5.701  0.7811 -0.7071  1.1072
 2587TIP3    H229253   1.408   5.071   5.612  0.7233  1.0116 -1.0657
 2588TIP3   OH229254   5.323   4.831  13.327  0.5420 -0.0654 -0.1618
 2588TIP3    H129255   5.283   4.771  13.263 -1.2230 -0.4296  1.1922
 2588TIP3    H229256   5.413   4.801  13.334  0.0779 -1.7067 -0.5500
 2589TIP3   OH229257   1.298   2.355   1.245 -0.0027 -0.3950  0.4875
 2589TIP3    H129258   1.334   2.317   1.326 -0.1861 -1.0206  0.2846
 2589TIP3    H229259   1.206   2.371   1.266  0.0772 -0.0455  0.5760
 2590TIP3   OH229260   2.141   3.120  12.878 -0.1179  0.1862 -0.1215
 2590TIP3    H129261   2.222   3.070  12.879  0.1234  0.5226 -1.3134
 2590TIP3    H229262   2.099   3.100  12.962 -0.1235 -2.1674 -0.6091
 2591TIP3   OH229263   5.641   4.197  13.064 -0.0957 -0.2941 -0.4151
 2591TIP3    H129264   5.610   4.106  13.064 -1.4011  0.1027  1.0269
 2591TIP3    H229265   5.596   4.237  12.988 -0.1704 -0.6497 -0.5606
 2592TIP3   OH229266   6.536   2.397   5.816 -0.1229  0.0279 -0.4443
 2592TIP3    H129267   6.558   2.337   5.744  0.8591  2.1385 -2.0080
 2592TIP3    H229268   6.555   2.348   5.895  0.1558 -1.8978 -1.6409
 2593TIP3   OH229269   1.742   6.710   0.398 -0.5644  0.2747  0.4647
 2593TIP3    H129270   1.822   6.703   0.345 -0.2659  2.1295  0.5866
 2593TIP3    H229271   1.671   6.694   0.337 -0.1509 -2.5791  0.5793
 2594TIP3   OH229272   3.769   6.106  16.050 -0.1948  0.4197  0.4486
 2594TIP3    H129273   3.779   6.053  15.971 -0.3480  0.2601  0.5347
 2594TIP3    H229274   3.851   6.154  16.058 -0.1422  0.3647  0.2460
 2595TIP3   OH229275   2.815   1.155   1.982  0.1201 -0.1560  0.3454
 2595TIP3    H129276   2.868   1.227   2.013  1.5134 -1.4025  0.9828
 2595TIP3    H229277   2.874   1.105   1.925 -0.9570 -0.5309 -0.4758
 2596TIP3   OH229278   5.092   5.977  10.674 -0.3072 -0.5069  0.2290
 2596TIP3    H129279   5.121   6.034  10.603  2.4140 -1.8176  0.1501
 2596TIP3    H229280   5.141   6.008  10.750 -1.0552 -0.8757  0.8680
 2597TIP3   OH229281   2.084   1.573  14.787 -1.0020 -0.1962 -0.0684
 2597TIP3    H129282   2.115   1.663  14.776 -2.7443  0.4845  0.3151
 2597TIP3    H229283   2.024   1.559  14.714  0.0867 -1.4585 -0.7522
 2598TIP3   OH229284   4.554   6.647  12.996 -0.2189  0.3526  0.0719
 2598TIP3    H129285   4.496   6.687  13.061 -2.3971  1.0706 -2.1355
 2598TIP3    H229286   4.579   6.720  12.939  0.5977 -0.4554 -0.6433
 2599TIP3   OH229287   5.709   4.425   6.532  0.2084  0.5291  0.4492
 2599TIP3    H129288   5.660   4.354   6.573  2.9405 -1.8902 -0.1506
 2599TIP3    H229289   5.658   4.446   6.454 -0.6158 -0.9099  0.5587
 2600TIP3   OH229290   1.257   2.174   1.008  0.3206  0.3190 -0.1052
 2600TIP3    H129291   1.295   2.120   1.078 -1.1287  0.8109  1.1233
 2600TIP3    H229292   1.282   2.263   1.032 -2.4140  0.7825  1.3755
 2601TIP3   OH229293   0.915   1.321   3.080  0.4713 -0.1935  0.0287
 2601TIP3    H129294   0.842   1.383   3.088  1.4172  1.0107 -0.2609
 2601TIP3    H229295   0.955   1.343   2.995  2.2701  0.4463  0.9846
 2602TIP3   OH229296   6.085   3.734  13.302  0.2614 -0.0466 -0.1229
 2602TIP3    H129297   5.999   3.776  13.314 -0.1117 -1.3105  2.0058
 2602TIP3    H229298   6.068   3.665  13.237 -0.4245 -0.4614  0.4794
 2603TIP3   OH229299   1.239   0.088  16.443  0.2795  0.4563  0.6845
 2603TIP3    H129300   1.153   0.044  16.444 -0.3736  1.3335 -2.8937
 2603TIP3    H229301   1.302   0.016  16.445 -0.6878 -0.5189 -0.8568
 2604TIP3   OH229302   2.143   2.676   4.494 -0.2560 -0.5226 -0.1050
 2604TIP3    H129303   2.061   2.703   4.536 -0.1299 -2.8317  1.8377
 2604TIP3    H229304   2.124   2.679   4.400 -1.1014  3.1957  0.0415
 2605TIP3   OH229305   6.473   6.495  12.770 -0.4963 -0.1382  0.1833
 2605TIP3    H129306   6.524   6.529  12.697 -2.3574 -0.7366 -1.4921
 2605TIP3    H229307   6.389   6.470  12.731 -1.2445 -1.3259  2.3725
 2606TIP3   OH229308   2.239   2.318  14.950 -0.2594 -0.1834  0.5096
 2606TIP3    H129309   2.194   2.383  14.896 -0.1254 -1.7495 -1.6063
 2606TIP3    H229310   2.278   2.369  15.022 -2.9592  1.5972  0.8517
 2607TIP3   OH229311   6.214   5.002   4.669 -0.1202  0.3607 -0.4059
 2607TIP3    H129312   6.308   5.015   4.660 -0.2090  0.7994 -0.7361
 2607TIP3    H229313   6.175   5.077   4.624 -0.6211  0.5449  0.3146
 2608TIP3   OH229314   1.392   2.869  13.353 -0.2983 -0.2060 -0.1918
 2608TIP3    H129315   1.389   2.851  13.447  1.7341 -1.2349 -0.2689
 2608TIP3    H229316   1.368   2.962  13.346  0.3168  0.1185  1.4411
 2609TIP3   OH229317   0.481   4.206   2.323 -0.0000 -0.1892 -0.4430
 2609TIP3    H129318   0.525   4.185   2.241 -1.4502  0.3199 -1.3915
 2609TIP3    H229319   0.397   4.160   2.317 -1.2013  1.8714 -0.4119
 2610TIP3   OH229320   4.243   3.586  13.591 -0.0353  0.0256  0.1950
 2610TIP3    H129321   4.248   3.512  13.530  1.2235 -0.5339  0.9549
 2610TIP3    H229322   4.188   3.555  13.662 -0.1974  0.1269  0.1155
 2611TIP3   OH229323   0.401   4.540   4.632  0.5242  0.0078 -0.2755
 2611TIP3    H129324   0.369   4.629   4.647  2.1180  0.4313  0.8776
 2611TIP3    H229325   0.386   4.494   4.715 -1.9480 -1.4283 -1.3849
 2612TIP3   OH229326   4.136   4.513   3.573  0.0166 -0.2619  0.0407
 2612TIP3    H129327   4.162   4.459   3.648  0.4719 -1.3863 -0.8917
 2612TIP3    H229328   4.145   4.603   3.604 -1.2284 -0.6941  1.7967
 2613TIP3   OH229329   4.407   2.143  15.479 -0.7282 -0.5380 -0.2882
 2613TIP3    H129330   4.426   2.225  15.525 -2.6592 -0.4070  0.3961
 2613TIP3    H229331   4.476   2.083  15.506 -0.2709  0.3565  0.5848
 2614TIP3   OH229332   3.449   2.437  15.842 -0.3115  0.7271  0.4333
 2614TIP3    H129333   3.355   2.440  15.827 -0.3019 -0.1283  0.1721
 2614TIP3    H229334   3.459   2.393  15.926 -0.0419 -2.6487 -1.2157
 2615TIP3   OH229335   5.000   5.672   2.456  0.4976  0.2717 -0.4840
 2615TIP3    H129336   4.938   5.689   2.385 -0.1962  0.1602  0.0788
 2615TIP3    H229337   5.008   5.756   2.502 -1.3016 -0.3003  1.0255
 2616TIP3   OH229338   5.151   1.909  12.521  0.1326  0.1199 -0.0959
 2616TIP3    H129339   5.193   1.978  12.573  0.9621  0.0198 -0.6155
 2616TIP3    H229340   5.206   1.832  12.535 -0.7617 -0.4455  0.4475
 2617TIP3   OH229341   2.105   6.445  16.060 -0.3678  0.3953  0.3974
 2617TIP3    H129342   2.039   6.515  16.065 -1.3895 -0.5599  0.7114
 2617TIP3    H229343   2.180   6.480  16.107  0.0513  2.2209 -1.4916
 2618TIP3   OH229344   2.325   6.202   2.723 -0.2342  0.4231  0.6936
 2618TIP3    H129345   2.276   6.282   2.700 -0.1906  0.5884  1.1715
 2618TIP3    H229346   2.284   6.134   2.670 -2.3442  0.1445  2.5412
 2619TIP3   OH229347   1.838   5.030  13.704 -0.2276  0.1910  0.1657
 2619TIP3    H129348   1.837   5.091  13.630 -1.4587  1.7805  1.4094
 2619TIP3    H229349   1.877   4.950  13.669  0.4189  1.3161 -1.8369
 2620TIP3   OH229350   2.319   5.586  17.137 -0.2666 -0.0165  0.4658
 2620TIP3    H129351   2.242   5.582  17.080 -0.1618  2.0168  0.1007
 2620TIP3    H229352   2.287   5.625  17.218  0.3014  0.4932  0.4481
 2621TIP3   OH229353   3.880   4.359   4.169  0.4842  0.2250  0.2071
 2621TIP3    H129354   3.883   4.406   4.086 -0.2936 -0.4216 -0.2065
 2621TIP3    H229355   3.798   4.309   4.165  0.5481  0.0086  1.2668
 2622TIP3   OH229356   3.771   5.559   3.492  0.3245 -0.0115  0.4950
 2622TIP3    H129357   3.805   5.636   3.447  0.3162 -0.3601 -0.1381
 2622TIP3    H229358   3.675   5.567   3.485  0.3198 -0.6525 -0.6470
 2623TIP3   OH229359   0.763   3.390   4.064  0.4841 -0.1121 -0.1516
 2623TIP3    H129360   0.771   3.473   4.018 -2.8717  0.4793  0.0981
 2623TIP3    H229361   0.778   3.411   4.156  0.4128  0.0700 -0.1820
 2624TIP3   OH229362   4.027   4.715   6.361  0.2353 -1.3647  0.4086
 2624TIP3    H129363   4.103   4.663   6.334  0.5601 -2.2079  2.6845
 2624TIP3    H229364   4.059   4.805   6.362  0.4471 -1.4045 -1.0391
 2625TIP3   OH229365   3.778   4.022   5.655  0.7344 -0.1828 -0.2912
 2625TIP3    H129366   3.712   4.057   5.715  1.2317  0.7662 -0.2737
 2625TIP3    H229367   3.832   3.966   5.710  0.3298 -0.4521 -0.1652
 2626TIP3   OH229368   0.117   6.405   0.235 -0.1869  0.2068  0.1045
 2626TIP3    H129369   0.210   6.425   0.251 -0.1842  1.6834 -1.4584
 2626TIP3    H229370   0.078   6.490   0.212 -1.5859 -0.6353 -0.7843
 2627TIP3   OH229371   6.579   3.290   4.686  0.3174  0.0754 -0.0174
 2627TIP3    H129372   6.529   3.244   4.753  0.1283 -1.4100 -1.1314
 2627TIP3    H229373   6.538   3.264   4.603  0.0112  2.5111 -0.7048
 2628TIP3   OH229374   0.510   5.013   2.170  0.0344  0.2187 -0.0308
 2628TIP3    H129375   0.440   4.984   2.112  0.2265  0.6165 -0.4695
 2628TIP3    H229376   0.550   4.931   2.202 -1.8516 -0.0955  1.8013
 2629TIP3   OH229377   6.542   1.323  10.775 -0.3682 -0.1051 -0.3775
 2629TIP3    H129378   6.607   1.252  10.771 -0.1155  0.0332  0.7452
 2629TIP3    H229379   6.579   1.384  10.838  0.6844  2.3468 -3.1619
 2630TIP3   OH229380   0.608   4.157  13.701  0.2284  0.4133 -0.4193
 2630TIP3    H129381   0.620   4.062  13.692 -1.4845  0.0448  0.8038
 2630TIP3    H229382   0.663   4.181  13.776 -1.3789 -0.1242  0.9910
 2631TIP3   OH229383   2.578   3.629  14.860  0.2247  0.2177 -0.0635
 2631TIP3    H129384   2.558   3.642  14.953 -1.1608 -0.9047 -0.1718
 2631TIP3    H229385   2.595   3.718  14.827 -0.1862  0.7320  1.0502
 2632TIP3   OH229386   2.404   2.793   4.287 -0.3816 -0.1277  0.1248
 2632TIP3    H129387   2.424   2.834   4.372  1.0066 -0.0251 -0.2333
 2632TIP3    H229388   2.487   2.753   4.260 -0.4080  1.0651 -1.8653
 2633TIP3   OH229389   1.714   5.841  14.520 -0.3198  0.2124  0.2207
 2633TIP3    H129390   1.642   5.804  14.571  1.4995  0.2243  3.0401
 2633TIP3    H229391   1.703   5.935  14.528  0.0303  0.2154  0.7967
 2634TIP3   OH229392   1.157   0.450   4.998 -0.2582 -0.3020  0.1212
 2634TIP3    H129393   1.216   0.380   4.970 -2.2569 -2.2508  0.4610
 2634TIP3    H229394   1.085   0.446   4.935 -1.6104 -0.2596  1.6209
 2635TIP3   OH229395   1.745   5.150   2.995  0.2772 -0.2801 -0.0213
 2635TIP3    H129396   1.696   5.227   2.968 -0.0052 -0.6496 -0.5689
 2635TIP3    H229397   1.747   5.155   3.091 -1.9107 -0.9296  0.0948
 2636TIP3   OH229398   6.450   4.113   3.750  0.6108  0.8006 -0.3060
 2636TIP3    H129399   6.493   4.052   3.810 -0.6259 -0.4933 -0.6882
 2636TIP3    H229400   6.520   4.172   3.723  1.3292  1.0563  1.9151
 2637TIP3   OH229401   3.950   4.121  14.799 -0.1413 -0.4302  0.3177
 2637TIP3    H129402   4.004   4.042  14.804 -0.8727 -0.9527  0.2479
 2637TIP3    H229403   3.961   4.164  14.883 -0.1434 -0.8877  0.5537
 2638TIP3   OH229404   1.593   6.330   6.409  0.3133 -0.1550  0.3594
 2638TIP3    H129405   1.510   6.375   6.425  0.8224  0.4084  1.5540
 2638TIP3    H229406   1.634   6.379   6.338  0.6511  0.9949  1.3358
 2639TIP3   OH229407   3.846   5.301   1.350 -0.0372  0.5086  0.2674
 2639TIP3    H129408   3.784   5.368   1.380 -0.3084  0.9379 -1.1568
 2639TIP3    H229409   3.881   5.336   1.268  1.9230  0.1500  0.8943
 2640TIP3   OH229410   4.587   4.228   3.151  0.1733  0.2137  0.5291
 2640TIP3    H129411   4.652   4.214   3.220  1.2508 -0.1766 -0.5381
 2640TIP3    H229412   4.630   4.199   3.071 -0.9796  0.8453 -0.3521
 2641TIP3   OH229413   1.629   6.020  14.982  0.0221 -0.1322 -0.2574
 2641TIP3    H129414   1.615   5.993  15.073  2.1016 -1.4056 -0.2555
 2641TIP3    H229415   1.629   6.116  14.986  0.7078 -0.1629  1.2225
 2642TIP3   OH229416   6.302   0.455  14.969  0.1501  0.1065 -0.0830
 2642TIP3    H129417   6.367   0.427  15.034 -0.0268 -1.7336 -0.6370
 2642TIP3    H229418   6.317   0.397  14.894 -0.2734  1.5501 -1.3398
 2643TIP3   OH229419   1.449   4.718  16.260  0.2227  0.2627  0.0779
 2643TIP3    H129420   1.541   4.728  16.285  0.6993  1.6955 -1.9734
 2643TIP3    H229421   1.405   4.695  16.342  2.5645 -1.8343  0.8774
 2644TIP3   OH229422   2.650   2.032   2.437 -0.4736 -0.1074 -0.3100
 2644TIP3    H129423   2.583   2.049   2.372 -1.0991 -3.5400 -0.7510
 2644TIP3    H229424   2.731   2.022   2.386 -0.4228 -0.0530 -0.2408
 2645TIP3   OH229425   2.778   0.740  14.223  0.1984  0.3547  0.1942
 2645TIP3    H129426   2.837   0.678  14.179 -1.4304 -0.7874 -0.4862
 2645TIP3    H229427   2.724   0.775  14.152 -1.5909 -0.5234  1.0417
 2646TIP3   OH229428   3.009   2.943   2.316 -0.0777 -0.2504  0.2267
 2646TIP3    H129429   3.015   3.010   2.384 -2.3875 -0.6422  0.9207
 2646TIP3    H229430   3.013   2.991   2.234 -0.1985  0.5796  0.6945
 2647TIP3   OH229431   0.001   1.250   3.521 -0.2543 -0.0632  0.4094
 2647TIP3    H129432  -0.090   1.221   3.525 -0.4469  0.2308 -1.1502
 2647TIP3    H229433   0.008   1.297   3.438  0.8355  1.6508  1.4062
 2648TIP3   OH229434   6.795   6.331  11.489 -0.3664  0.1730 -0.7230
 2648TIP3    H129435   6.743   6.411  11.488 -1.0321 -0.2399 -1.8417
 2648TIP3    H229436   6.885   6.361  11.474 -0.3083  0.8630  0.8903
 2649TIP3   OH229437   4.957   3.988   0.688  0.5066  0.0465  0.4948
 2649TIP3    H129438   4.907   4.020   0.613  1.1011  0.6372  0.3415
 2649TIP3    H229439   5.040   3.957   0.650  0.2568 -0.9470  0.7392
 2650TIP3   OH229440   5.412   5.275   2.188  0.4453 -0.1845  0.5121
 2650TIP3    H129441   5.492   5.234   2.220  1.3401  1.5612  0.6089
 2650TIP3    H229442   5.360   5.202   2.153  1.0102 -1.6675  2.5951
 2651TIP3   OH229443   1.919   0.808  16.977  0.1584  0.3101  0.0337
 2651TIP3    H129444   1.920   0.717  16.945 -0.6392  0.6467 -1.0132
 2651TIP3    H229445   1.878   0.802  17.063 -0.2022 -0.2915 -0.1716
 2652TIP3   OH229446   2.544   4.768   0.467 -0.2600  0.0038  0.4127
 2652TIP3    H129447   2.494   4.697   0.427 -2.5043  1.5380  0.3398
 2652TIP3    H229448   2.500   4.785   0.550 -0.2308  1.7280  0.1256
 2653TIP3   OH229449   5.336   4.447   1.480 -0.9214 -1.0196 -0.1877
 2653TIP3    H129450   5.258   4.445   1.536 -0.7730 -0.2423  0.0581
 2653TIP3    H229451   5.328   4.369   1.425 -0.9406 -1.9345  1.0825
 2654TIP3   OH229452   3.287   4.396   4.507  0.3547  0.2714 -0.1019
 2654TIP3    H129453   3.193   4.398   4.522  0.2377 -0.4523 -0.6963
 2654TIP3    H229454   3.303   4.462   4.440  0.1315 -0.2460 -0.6771
 2655TIP3   OH229455   4.401   2.332  16.332 -0.7358  0.5184 -0.1984
 2655TIP3    H129456   4.451   2.381  16.397 -1.6493  0.7921  0.3134
 2655TIP3    H229457   4.421   2.240  16.350  0.2358  0.6523 -0.5497
 2656TIP3   OH229458   4.980   6.590  15.161 -0.2352  0.1149 -0.3352
 2656TIP3    H129459   4.948   6.612  15.074  2.2535  0.5475 -1.2137
 2656TIP3    H229460   4.990   6.675  15.205  2.7889  0.3270 -1.2797
 2657TIP3   OH229461   1.510   1.076   2.695  0.3217 -0.4997  0.1725
 2657TIP3    H129462   1.512   1.065   2.790  0.1362  0.2418  0.2660
 2657TIP3    H229463   1.575   1.143   2.677  0.3624 -0.6437 -0.2287
 2658TIP3   OH229464   2.829   4.545  17.106  0.8131  0.2420  0.7428
 2658TIP3    H129465   2.839   4.474  17.042  2.2051  0.2612  0.9036
 2658TIP3    H229466   2.798   4.619  17.055  0.0471 -0.2684  0.4462
 2659TIP3   OH229467   5.266   2.173  12.279  0.2996  0.3569 -0.7390
 2659TIP3    H129468   5.318   2.164  12.359  0.2953  1.8314 -0.5368
 2659TIP3    H229469   5.324   2.145  12.209  1.0079  0.9594 -0.4044
 2660TIP3   OH229470   0.019   6.446  13.665 -0.7872 -0.1962  0.6870
 2660TIP3    H129471  -0.045   6.377  13.682 -0.8486  0.0518  1.5135
 2660TIP3    H229472   0.033   6.487  13.751 -2.2053  2.0839 -0.0776
 2661TIP3   OH229473   4.244   5.136   4.131 -0.5488 -0.8248 -1.0904
 2661TIP3    H129474   4.184   5.115   4.060 -0.9071 -2.3623 -0.3829
 2661TIP3    H229475   4.215   5.221   4.163 -1.2716 -0.7698 -1.8572
 2662TIP3   OH229476   3.047   3.510  15.391  0.2690  0.6249 -0.3747
 2662TIP3    H129477   3.038   3.575  15.321  0.5393 -0.3910 -1.3945
 2662TIP3    H229478   3.141   3.506  15.408  0.3950 -0.3469 -1.1870
 2663TIP3   OH229479   6.389   0.659  14.007 -0.1702  1.1547  0.7468
 2663TIP3    H129480   6.411   0.602  13.934 -3.0226  2.2042 -1.0953
 2663TIP3    H229481   6.429   0.743  13.985 -0.8819  1.4246  0.4748
 2664TIP3   OH229482   4.602   4.058   2.259  0.0582  0.3775 -0.2597
 2664TIP3    H129483   4.549   4.137   2.245  2.3283  2.0704  0.1863
 2664TIP3    H229484   4.584   4.033   2.349 -1.1121  0.0119 -0.5798
 2665TIP3   OH229485   1.916   3.092  11.137  1.0000  0.8972  0.2325
 2665TIP3    H129486   1.900   3.155  11.066  2.8071  1.2588  0.0933
 2665TIP3    H229487   1.915   3.006  11.093  1.6370  1.0809 -0.1509
 2666TIP3   OH229488   4.542   2.474  12.229 -0.0072  0.0481  0.0665
 2666TIP3    H129489   4.638   2.472  12.222 -0.0967 -0.0601 -1.4197
 2666TIP3    H229490   4.514   2.387  12.200 -0.6526  0.8391 -1.8386
 2667TIP3   OH229491   3.472   4.066  10.335  0.3128 -0.0633  0.0159
 2667TIP3    H129492   3.479   3.980  10.292 -0.2386  0.2081 -0.6260
 2667TIP3    H229493   3.381   4.070  10.364  0.3490  0.2956  0.0737
 2668TIP3   OH229494   3.735   2.329  14.117 -0.2712  0.1724 -0.2832
 2668TIP3    H129495   3.741   2.366  14.205 -1.2538  0.9243 -0.5219
 2668TIP3    H229496   3.814   2.276  14.109  0.2960  0.8225  0.7156
 2669TIP3   OH229497   4.538   0.775  13.029  0.5408 -0.8972  0.0528
 2669TIP3    H129498   4.473   0.844  13.015  0.4942 -0.9361  0.0802
 2669TIP3    H229499   4.607   0.794  12.964  0.8694 -0.4046  0.5331
 2670TIP3   OH229500   3.244   6.594  14.228 -0.5389 -0.1726 -0.1979
 2670TIP3    H129501   3.237   6.565  14.137 -1.5196 -0.9833  0.1156
 2670TIP3    H229502   3.178   6.543  14.274 -1.7910  1.9476  0.5318
 2671TIP3   OH229503   2.135   0.697  12.373 -0.6427  0.3900 -0.7097
 2671TIP3    H129504   2.183   0.778  12.354  2.3439 -1.2433 -0.8104
 2671TIP3    H229505   2.081   0.682  12.296  0.8924  0.8980 -1.9391
 2672TIP3   OH229506   6.755   0.641  13.692  0.5148 -0.5715  0.1682
 2672TIP3    H129507   6.708   0.664  13.772  0.2506 -2.4438  0.6137
 2672TIP3    H229508   6.772   0.724  13.649 -1.3193  0.3249  1.0569
 2673TIP3   OH229509   3.030   1.058  11.760 -0.0482  0.2950  0.7960
 2673TIP3    H129510   3.102   1.099  11.711  0.0456 -1.2115 -0.4201
 2673TIP3    H229511   3.053   0.965  11.762  0.0017  0.2682  3.8907
 2674TIP3   OH229512   4.761   5.661  12.071  0.7670 -0.3875 -0.6418
 2674TIP3    H129513   4.749   5.616  12.155  0.8960  0.3882 -0.1987
 2674TIP3    H229514   4.851   5.643  12.046  0.6026 -0.9730 -0.8327
 2675TIP3   OH229515   3.884   0.718   3.959 -0.1307  0.1623 -0.6967
 2675TIP3    H129516   3.792   0.742   3.947 -0.5970  1.8312  4.0630
 2675TIP3    H229517   3.933   0.796   3.933 -0.4735  0.8411  0.5942
 2676TIP3   OH229518   2.253   5.306   1.691 -0.0737  0.5829 -0.1054
 2676TIP3    H129519   2.331   5.252   1.682  0.9266  1.6208  1.7080
 2676TIP3    H229520   2.184   5.257   1.646  1.5092 -0.5536 -1.4062
 2677TIP3   OH229521   0.830   0.390  15.083 -0.2132  0.6524 -0.2257
 2677TIP3    H129522   0.740   0.417  15.102 -0.1529  0.8957 -0.2822
 2677TIP3    H229523   0.854   0.442  15.006 -1.5215 -2.5013 -2.9741
 2678TIP3   OH229524   5.941   4.257  12.992 -0.2724 -0.1465 -0.2266
 2678TIP3    H129525   5.846   4.250  13.000 -0.3383 -0.1425 -0.9244
 2678TIP3    H229526   5.962   4.342  13.030 -0.5365 -0.1913  0.0241
 2679TIP3   OH229527   4.456   3.292  16.637 -0.4289 -0.1999  0.0045
 2679TIP3    H129528   4.451   3.371  16.583 -0.0634 -0.9283 -1.1391
 2679TIP3    H229529   4.520   3.313  16.705 -0.5861  0.6009 -0.0871
 2680TIP3   OH229530   6.234   0.313   5.007 -0.0184 -0.1408 -0.5019
 2680TIP3    H129531   6.164   0.286   5.067  0.6211  0.4499  0.5294
 2680TIP3    H229532   6.263   0.397   5.040 -0.6049  0.9114 -2.4965
 2681TIP3   OH229533   0.226   1.389  15.107 -0.2914  0.3665 -0.3331
 2681TIP3    H129534   0.216   1.320  15.173 -0.4167  0.9413  0.2690
 2681TIP3    H229535   0.283   1.454  15.149  1.3807 -0.2174 -1.5845
 2682TIP3   OH229536   6.322   2.064   4.352  0.4754  0.5968  0.4454
 2682TIP3    H129537   6.244   2.115   4.375  0.4370  0.5788  0.3555
 2682TIP3    H229538   6.392   2.105   4.402  0.4291  0.6864  0.4370
 2683TIP3   OH229539   5.046   2.336   0.876 -0.4315  0.3504  0.2077
 2683TIP3    H129540   4.974   2.358   0.818  0.3552  0.8223 -0.6049
 2683TIP3    H229541   5.112   2.404   0.861  0.8947 -0.9908 -0.3089
 2684TIP3   OH229542   3.333   6.835   2.541 -0.3041 -0.2653  0.1990
 2684TIP3    H129543   3.329   6.814   2.634  1.6483  0.1368  0.4088
 2684TIP3    H229544   3.254   6.795   2.504  0.2598 -2.8605  1.5555
 2685TIP3   OH229545   0.699   1.559  13.648  0.0278  0.0325  0.1678
 2685TIP3    H129546   0.643   1.512  13.711  0.9866 -0.6397  0.5463
 2685TIP3    H229547   0.743   1.626  13.700  1.1832 -0.8306  0.3389
 2686TIP3   OH229548   2.117   4.860   5.719 -0.4130 -0.3960 -0.1532
 2686TIP3    H129549   2.050   4.794   5.737 -0.6619 -0.2188 -0.4136
 2686TIP3    H229550   2.186   4.843   5.783 -1.1362  0.0389  0.7638
 2687TIP3   OH229551   0.071   5.544  11.795  0.4668 -0.4732  0.5585
 2687TIP3    H129552   0.039   5.486  11.725  1.2066 -0.7548  0.4379
 2687TIP3    H229553   0.014   5.526  11.869  0.1597 -0.7461  0.2608
 2688TIP3   OH229554   6.763   2.846  16.649  0.0390  0.3027 -0.3808
 2688TIP3    H129555   6.743   2.845  16.555  0.4961 -0.1852 -0.4724
 2688TIP3    H229556   6.810   2.929  16.662  1.4125 -0.3685 -0.8932
 2689TIP3   OH229557   0.098   4.037  11.176 -0.4045 -0.2572 -0.8583
 2689TIP3    H129558   0.030   4.037  11.243  0.5147  0.2576  0.1032
 2689TIP3    H229559   0.178   4.012  11.222 -0.2535 -3.0240 -2.3585
 2690TIP3   OH229560   1.960   4.456   0.156  0.1088 -0.0772 -0.2761
 2690TIP3    H129561   1.917   4.441   0.241 -1.8742  1.3968 -0.9430
 2690TIP3    H229562   2.053   4.440   0.173 -0.3899 -1.1161  1.8355
 2691TIP3   OH229563   4.121   6.105   2.868 -1.1119 -0.0063 -0.3870
 2691TIP3    H129564   4.213   6.101   2.892 -1.4826 -0.6657  1.0210
 2691TIP3    H229565   4.080   6.156   2.938 -2.0158 -0.8186 -0.2997
 2692TIP3   OH229566   0.880   2.972  15.450  0.2845  0.4503  0.0619
 2692TIP3    H129567   0.827   2.934  15.521 -0.4800 -0.3829 -0.9290
 2692TIP3    H229568   0.826   3.043  15.415  0.7777  1.0403  0.4772
 2693TIP3   OH229569   0.171   4.122   0.712 -0.4484  0.6945  0.0052
 2693TIP3    H129570   0.192   4.102   0.621 -1.1476 -1.4466  0.2388
 2693TIP3    H229571   0.244   4.085   0.763 -0.5646  0.9445  0.3597
 2694TIP3   OH229572   2.808   3.714   4.357  0.1687 -0.4028 -0.1945
 2694TIP3    H129573   2.864   3.657   4.410  0.4920 -0.0455 -0.1488
 2694TIP3    H229574   2.847   3.801   4.366  1.3296 -0.6212 -2.4754
 2695TIP3   OH229575   4.606   5.193   0.043 -0.0820  0.5669  0.2383
 2695TIP3    H129576   4.634   5.271  -0.004 -0.1708 -0.4152 -1.5662
 2695TIP3    H229577   4.516   5.177   0.012  0.6201 -1.3379 -1.0672
 2696TIP3   OH229578   5.639   0.000  16.848  0.3329  0.4902 -0.2255
 2696TIP3    H129579   5.635   0.009  16.753  0.5516 -0.9628 -0.3897
 2696TIP3    H229580   5.732   0.014  16.870  0.5216 -0.4939 -0.3810
 2697TIP3   OH229581   0.665   4.915  12.977  0.3649  0.5140  0.0938
 2697TIP3    H129582   0.731   4.944  13.041 -0.3487  1.5439  0.3881
 2697TIP3    H229583   0.589   4.892  13.030 -0.5526  2.2616 -0.4101
 2698TIP3   OH229584   1.656   2.551  16.946 -0.0342  0.6505 -0.2937
 2698TIP3    H129585   1.578   2.605  16.941 -0.5445 -0.1471 -1.1721
 2698TIP3    H229586   1.706   2.573  16.867  0.4736  0.9111  0.0930
 2699TIP3   OH229587   2.432   0.782  12.728  0.0634 -0.0824 -0.1986
 2699TIP3    H129588   2.495   0.835  12.681  0.3284 -0.4304 -0.2380
 2699TIP3    H229589   2.396   0.840  12.795  1.2183 -0.1890  0.5338
 2700TIP3   OH229590   5.835   1.944  16.684  0.3388 -0.1891  0.0583
 2700TIP3    H129591   5.903   2.011  16.692 -0.5032  0.9455 -1.6094
 2700TIP3    H229592   5.753   1.994  16.675 -0.3470 -1.4375 -0.9955
 2701TIP3   OH229593   3.048   0.739  14.399  0.0257  0.0925  0.1576
 2701TIP3    H129594   2.955   0.750  14.380 -0.5257  2.0592  3.3644
 2701TIP3    H229595   3.089   0.820  14.368 -0.2680  1.5487  3.2527
 2702TIP3   OH229596   3.529   6.336  12.984  0.7513 -0.2248 -0.3110
 2702TIP3    H129597   3.469   6.390  12.933  0.0768 -3.2621 -3.0987
 2702TIP3    H229598   3.488   6.250  12.985  2.6162 -1.1854  2.3105
 2703TIP3   OH229599   0.715   4.384  14.846 -0.4661  0.5757 -1.2085
 2703TIP3    H129600   0.690   4.301  14.805  0.4093  0.3767 -1.3586
 2703TIP3    H229601   0.785   4.361  14.907 -1.4852  0.9362  0.1315
 2704TIP3   OH229602   5.010   1.464  12.234 -0.3503  0.2231 -0.1811
 2704TIP3    H129603   5.042   1.387  12.187  0.1908  0.5765 -0.3978
 2704TIP3    H229604   4.988   1.527  12.165 -0.5384  0.3645  0.0042
 2705TIP3   OH229605   1.284   4.469   4.660  0.3338 -0.6193 -0.1389
 2705TIP3    H129606   1.223   4.543   4.661  0.3438 -0.5971  1.5457
 2705TIP3    H229607   1.368   4.507   4.638  0.2608 -0.1887  0.3158
 2706TIP3   OH229608   5.126   6.052   2.886 -0.2557  0.3989  0.2755
 2706TIP3    H129609   5.052   6.111   2.903  0.1897  1.0290  0.0841
 2706TIP3    H229610   5.178   6.055   2.966  0.0071  0.6295  0.0978
 2707TIP3   OH229611   3.309   3.426  16.995  0.2097 -0.0518  0.4336
 2707TIP3    H129612   3.370   3.356  16.970 -0.1649 -0.8126  1.5850
 2707TIP3    H229613   3.315   3.429  17.090 -0.1283  1.1811  0.4224
 2708TIP3   OH229614   0.238   5.892   2.125 -0.0053 -0.8963 -0.1833
 2708TIP3    H129615   0.173   5.882   2.194 -0.6171  1.6922 -0.2809
 2708TIP3    H229616   0.316   5.848   2.158 -0.0163  0.9629  2.5942
 2709TIP3   OH229617   1.299   5.832  11.080  0.6424 -0.5735  0.0101
 2709TIP3    H129618   1.371   5.861  11.025 -1.2458 -0.1395 -2.4086
 2709TIP3    H229619   1.248   5.912  11.096 -0.1899 -1.1385  0.2552
 2710TIP3   OH229620   2.369   4.753  11.644 -0.3647 -0.0615 -0.2358
 2710TIP3    H129621   2.329   4.704  11.571 -2.2070  0.3059  0.4906
 2710TIP3    H229622   2.363   4.693  11.719 -0.3701  0.3566  0.0983
 2711TIP3   OH229623   6.431   6.564   1.576  0.2984 -0.5105  0.5832
 2711TIP3    H129624   6.425   6.643   1.630  1.2433 -0.5896  0.8068
 2711TIP3    H229625   6.354   6.512   1.602 -0.0452  0.0943  0.8069
 2712TIP3   OH229626   4.406   2.371   2.119  0.2325  0.1276 -0.2346
 2712TIP3    H129627   4.448   2.402   2.039  0.9639 -1.7862 -0.6452
 2712TIP3    H229628   4.473   2.317   2.162 -0.4373  0.4112  1.2301
 2713TIP3   OH229629   2.045   0.071   3.319  0.0837  0.5598 -0.2577
 2713TIP3    H129630   2.071   0.163   3.312 -1.2753  1.2567  2.4173
 2713TIP3    H229631   1.953   0.070   3.293 -0.1464  0.1415  0.5296
 2714TIP3   OH229632   5.859   6.653  14.230  0.5059  0.3032 -0.4017
 2714TIP3    H129633   5.919   6.579  14.238 -0.3144 -0.3728 -0.3809
 2714TIP3    H229634   5.906   6.726  14.270  1.1193 -0.3266  0.0507
 2715TIP3   OH229635   5.438   4.753   1.033  0.3070  0.3137  0.5545
 2715TIP3    H129636   5.415   4.842   1.005 -1.9163 -0.8364 -1.7448
 2715TIP3    H229637   5.418   4.752   1.127  0.8449  2.3368  0.7405
 2716TIP3   OH229638   0.235   6.572   2.187 -0.0987 -0.3611 -0.0600
 2716TIP3    H129639   0.279   6.579   2.272 -0.3427 -0.0493  0.0389
 2716TIP3    H229640   0.307   6.554   2.125 -0.0919 -2.2552  0.4301
 2717TIP3   OH229641   3.914   1.368   5.679  0.0966 -0.1215 -0.0323
 2717TIP3    H129642   3.950   1.309   5.613  0.3703  0.2385 -0.2048
 2717TIP3    H229643   3.819   1.369   5.662 -0.0731 -1.3776  0.6685
 2718TIP3   OH229644   0.467   5.131  15.708  0.0878 -0.2704 -0.2938
 2718TIP3    H129645   0.548   5.087  15.734  0.5103  0.3392 -0.5615
 2718TIP3    H229646   0.485   5.224  15.721 -0.8277 -0.1733  0.3563
 2719TIP3   OH229647   4.583   0.132   3.865 -0.1615 -0.1767 -0.0200
 2719TIP3    H129648   4.660   0.080   3.888 -0.6142 -0.6382  0.5083
 2719TIP3    H229649   4.529   0.129   3.944 -0.6313  0.3003 -0.3207
 2720TIP3   OH229650   3.056   5.574   2.146  0.4450  0.2262  0.1940
 2720TIP3    H129651   3.118   5.505   2.168 -0.2174 -0.4873 -0.1467
 2720TIP3    H229652   2.973   5.529   2.132  0.6445  0.6938 -3.0874
 2721TIP3   OH229653   2.968   1.938  12.031  0.1813 -0.0584  0.4474
 2721TIP3    H129654   2.946   1.955  12.122 -0.7246  2.2215 -0.1329
 2721TIP3    H229655   2.889   1.899  11.994  1.1986 -2.8857  1.0195
 2722TIP3   OH229656   3.055   4.446  14.571 -0.0629  0.2570 -0.0217
 2722TIP3    H129657   3.095   4.487  14.494 -0.9880  1.0037 -0.1206
 2722TIP3    H229658   3.120   4.382  14.600  0.1688 -0.2749 -1.6102
 2723TIP3   OH229659   0.408   3.755   0.030  0.1835  0.3762 -0.9874
 2723TIP3    H129660   0.421   3.812  -0.045  0.0980  0.2200 -1.1228
 2723TIP3    H229661   0.409   3.666  -0.007  0.6235  0.2748 -0.7398
 2724TIP3   OH229662   0.433   3.656  13.767 -0.5330  0.2028  0.2697
 2724TIP3    H129663   0.443   3.561  13.774 -0.4408  0.1066 -0.9511
 2724TIP3    H229664   0.347   3.668  13.727  0.2442  0.5338 -1.3978
 2725TIP3   OH229665   4.843   0.587  11.799  0.4178  0.3230  0.0945
 2725TIP3    H129666   4.797   0.620  11.876  1.2150 -1.0926  1.2216
 2725TIP3    H229667   4.779   0.533  11.753  0.4320 -0.1973  0.6848
 2726TIP3   OH229668   4.372   2.753   5.485 -0.7549 -0.2106  0.1926
 2726TIP3    H129669   4.392   2.817   5.553  0.1769 -2.3262  2.0417
 2726TIP3    H229670   4.454   2.745   5.434 -0.9580  0.2433 -0.2112
 2727TIP3   OH229671   5.741   5.307  14.043  0.4641 -0.0369  0.1632
 2727TIP3    H129672   5.819   5.297  13.989 -0.0882  0.6796 -0.8094
 2727TIP3    H229673   5.735   5.226  14.092 -0.0480 -1.5675 -2.2451
 2728TIP3   OH229674   1.171   3.406   2.154 -0.2147 -0.0054 -0.5161
 2728TIP3    H129675   1.156   3.421   2.248  1.7166 -1.7408  0.1244
 2728TIP3    H229676   1.123   3.326   2.135  0.7061 -0.5366 -0.6181
 2729TIP3   OH229677   5.766   0.863   6.344 -0.3780  0.4636 -0.2150
 2729TIP3    H129678   5.782   0.815   6.426 -0.8346 -0.4832 -0.6614
 2729TIP3    H229679   5.719   0.800   6.289  1.9527  0.2495 -2.0965
 2730TIP3   OH229680   1.003   0.773  12.309  0.5407  0.6201 -0.6002
 2730TIP3    H129681   1.050   0.856  12.310 -0.6288  1.3141 -0.3940
 2730TIP3    H229682   0.987   0.752  12.401  0.6732  0.2545 -0.6583
 2731TIP3   OH229683   4.504   0.992  14.792  0.2660  0.3087 -0.1386
 2731TIP3    H129684   4.482   0.911  14.746 -0.7572 -0.5606  1.7700
 2731TIP3    H229685   4.438   1.055  14.761  1.2807  0.5913 -1.8980
 2732TIP3   OH229686   0.741   3.189  11.324 -0.0601 -0.4458  0.1203
 2732TIP3    H129687   0.731   3.261  11.386 -0.7829 -1.0319  0.6992
 2732TIP3    H229688   0.715   3.227  11.240 -0.6087 -0.0769  0.4491
 2733TIP3   OH229689   2.038   0.711   5.847 -0.2377  0.1264  0.4698
 2733TIP3    H129690   1.954   0.727   5.891 -0.8493  3.0613 -1.5039
 2733TIP3    H229691   2.071   0.798   5.825  1.3937 -1.0560 -2.2823
 2734TIP3   OH229692   4.733   2.950   4.455 -0.3586 -0.0890 -0.1552
 2734TIP3    H129693   4.693   2.926   4.538  1.2032 -2.4324  0.0083
 2734TIP3    H229694   4.667   2.927   4.389 -0.8398 -0.0914  0.3221
 2735TIP3   OH229695   2.159   5.368  13.401 -1.0192 -0.3221 -0.3391
 2735TIP3    H129696   2.202   5.354  13.316 -0.5885  0.3141 -0.2292
 2735TIP3    H229697   2.074   5.406  13.378 -1.6722 -1.8423 -0.5717
 2736TIP3   OH229698   2.162   2.101  11.748  0.4712 -0.1152  0.3127
 2736TIP3    H129699   2.127   2.132  11.831  0.9606 -3.0776  1.7528
 2736TIP3    H229700   2.191   2.180  11.703 -2.2681  1.8460  1.7344
 2737TIP3   OH229701   1.613   2.118   2.160 -0.0114 -0.1425  0.4902
 2737TIP3    H129702   1.559   2.040   2.155 -0.6217  0.3139 -0.3211
 2737TIP3    H229703   1.595   2.166   2.079 -0.1169  1.1319  1.2360
 2738TIP3   OH229704   1.505   5.732   3.296 -0.6369 -0.1537  0.0626
 2738TIP3    H129705   1.423   5.715   3.341 -0.6312  0.6362  0.3905
 2738TIP3    H229706   1.552   5.792   3.354  0.4267 -1.0616  0.1509
 2739TIP3   OH229707   1.443   0.840   3.514  0.0276  0.3399 -0.5778
 2739TIP3    H129708   1.413   0.857   3.425 -1.5549 -1.0910 -0.3485
 2739TIP3    H229709   1.499   0.916   3.534 -1.0978  1.6457 -2.0849
 2740TIP3   OH229710   3.042   3.029   4.416 -0.3780  0.1072 -0.4337
 2740TIP3    H129711   3.112   3.002   4.356  0.5417 -0.1064  0.6799
 2740TIP3    H229712   2.963   3.030   4.363  0.2149 -1.1239 -1.3948
 2741TIP3   OH229713   4.919   3.737  11.888 -0.1953 -0.3172 -0.5723
 2741TIP3    H129714   4.950   3.748  11.798  3.1478  0.4788  0.5337
 2741TIP3    H229715   4.906   3.826  11.921 -1.3021 -0.5987 -0.1935
 2742TIP3   OH229716   3.815   6.764  16.561 -0.4501  0.3461  0.6675
 2742TIP3    H129717   3.752   6.710  16.514  0.1506  2.5058 -3.0666
 2742TIP3    H229718   3.830   6.718  16.644 -2.9858 -2.9001 -0.4648
 2743TIP3   OH229719   2.018   5.598  10.785  0.2481  0.0370  0.3035
 2743TIP3    H129720   2.042   5.691  10.790  2.0931 -0.4135  0.4595
 2743TIP3    H229721   2.016   5.579  10.691 -0.5965  0.3164  0.2501
 2744TIP3   OH229722   6.798   2.488  14.826 -0.2588 -0.0030 -0.4765
 2744TIP3    H129723   6.708   2.477  14.793 -0.6475  2.5257 -0.4662
 2744TIP3    H229724   6.851   2.495  14.747 -0.4459  0.9124 -0.5324
 2745TIP3   OH229725   2.795   2.045  16.301  0.0402 -0.4705 -1.0911
 2745TIP3    H129726   2.881   2.006  16.316 -0.6005 -1.8627 -0.8168
 2745TIP3    H229727   2.813   2.126  16.254  1.5058 -0.6590 -0.9039
 2746TIP3   OH229728   5.341   3.574  16.291 -0.3240  0.1090  0.5040
 2746TIP3    H129729   5.380   3.659  16.312 -1.6097  0.3862  1.9249
 2746TIP3    H229730   5.393   3.541  16.217  0.7082  1.7512  0.4569
 2747TIP3   OH229731   5.241   2.792   3.673 -0.0033  0.0676  0.2439
 2747TIP3    H129732   5.262   2.718   3.616  1.4656  0.1149  0.7051
 2747TIP3    H229733   5.306   2.790   3.742 -0.0626  1.6589  0.3971
 2748TIP3   OH229734   0.225   0.038   0.976 -0.3330  0.3847 -0.1590
 2748TIP3    H129735   0.211   0.068   1.066 -0.0376 -1.0006  0.3784
 2748TIP3    H229736   0.320   0.044   0.964  0.0077 -2.0555  0.6598
 2749TIP3   OH229737   4.231   5.343   1.796 -0.3176 -0.0307  0.6303
 2749TIP3    H129738   4.318   5.323   1.761 -0.5670 -1.4832  0.7503
 2749TIP3    H229739   4.179   5.368   1.720 -0.3077 -1.1299  0.2449
 2750TIP3   OH229740   1.762   4.738  13.663 -0.7204 -0.0616  0.4708
 2750TIP3    H129741   1.855   4.741  13.685 -0.7310 -2.7877  1.2334
 2750TIP3    H229742   1.760   4.747  13.568  0.2446  0.8314  0.5168
 2751TIP3   OH229743   1.513   1.290   4.463  0.4439 -0.1227 -0.0608
 2751TIP3    H129744   1.471   1.227   4.521  0.9190  0.1591  0.5918
 2751TIP3    H229745   1.451   1.299   4.390  0.4259 -1.4303 -0.2288
 2752TIP3   OH229746   1.273   1.176  15.507  0.3204  0.3291 -0.3301
 2752TIP3    H129747   1.232   1.147  15.426  1.3575 -0.2742 -0.6421
 2752TIP3    H229748   1.203   1.168  15.573 -1.5243  3.6177 -1.5943
 2753TIP3   OH229749   2.443   1.311  15.402 -0.0890  0.0718 -1.1806
 2753TIP3    H129750   2.391   1.342  15.328  0.4624  2.5088 -0.6592
 2753TIP3    H229751   2.492   1.388  15.430 -0.2329 -0.7512  1.6969
 2754TIP3   OH229752   4.544   3.844   1.148  0.3415  0.1529  0.3167
 2754TIP3    H129753   4.471   3.861   1.089  0.1971  1.1140  0.7471
 2754TIP3    H229754   4.543   3.918   1.209  3.0155  1.4115 -1.0215
 2755TIP3   OH229755   4.177   4.342  16.854  0.0120  0.3083 -0.2911
 2755TIP3    H129756   4.200   4.298  16.772  0.7340  2.2265 -1.1731
 2755TIP3    H229757   4.250   4.403  16.870 -0.2709  0.2050  1.6198
 2756TIP3   OH229758   1.676   5.656   2.624 -0.0169  0.2016  0.5018
 2756TIP3    H129759   1.611   5.628   2.688  1.0339 -0.5774  1.2783
 2756TIP3    H229760   1.651   5.613   2.543  0.4264 -1.4252  1.1918
 2757TIP3   OH229761   1.858   4.181  14.095 -0.4017  0.5487  0.1626
 2757TIP3    H129762   1.875   4.267  14.132  1.3025  1.7640 -3.0401
 2757TIP3    H229763   1.783   4.194  14.037 -0.1906 -0.1303 -0.2754
 2758TIP3   OH229764   6.626   1.904   4.511 -0.6735 -0.1209  0.0031
 2758TIP3    H129765   6.567   1.969   4.550  0.3701  0.9576 -0.1688
 2758TIP3    H229766   6.667   1.861   4.587 -0.9495 -0.2035  0.1083
 2759TIP3   OH229767   5.751   6.834   6.296 -0.1772 -0.0058  0.4389
 2759TIP3    H129768   5.709   6.839   6.382  1.9193 -2.4275  1.7378
 2759TIP3    H229769   5.751   6.924   6.264 -1.1728  0.9448  2.8842
 2760TIP3   OH229770   2.654   3.469  11.063 -0.4207 -0.3643  0.0481
 2760TIP3    H129771   2.637   3.454  10.970 -1.0402 -0.3514  0.1551
 2760TIP3    H229772   2.576   3.436  11.107 -1.3418  2.0565  0.3891
 2761TIP3   OH229773   3.667   3.347  14.698 -0.0660 -0.0009 -0.0256
 2761TIP3    H129774   3.645   3.426  14.748 -0.7596  0.7523 -1.4651
 2761TIP3    H229775   3.599   3.342  14.631  0.0520 -1.7608 -0.0514
 2762TIP3   OH229776   4.634   5.224  13.253  0.2812  0.4863  0.2033
 2762TIP3    H129777   4.691   5.292  13.218  0.1826  1.2950  1.5370
 2762TIP3    H229778   4.694   5.158  13.288  0.4110  0.9864  0.9458
 2763TIP3   OH229779   1.405   6.510  15.748  0.5161  0.4764  0.0921
 2763TIP3    H129780   1.312   6.484  15.747  0.7281 -1.1704 -4.7447
 2763TIP3    H229781   1.444   6.456  15.816 -1.7899  0.0298  1.1722
 2764TIP3   OH229782   4.515   1.606   4.033 -0.4812 -0.5112  0.4849
 2764TIP3    H129783   4.475   1.563   3.958 -0.6162  0.3975  0.0205
 2764TIP3    H229784   4.455   1.587   4.106 -0.9877 -0.3929  0.1061
 2765TIP3   OH229785   1.272   5.675   6.381  0.4128 -0.2318  0.2446
 2765TIP3    H129786   1.244   5.757   6.421  3.2625 -0.4556  3.1184
 2765TIP3    H229787   1.229   5.606   6.432  0.6079 -0.5242  0.0215
 2766TIP3   OH229788   0.412   3.822   2.623 -0.4154  0.5015  0.2103
 2766TIP3    H129789   0.467   3.809   2.545 -0.5092  1.2765  0.0061
 2766TIP3    H229790   0.470   3.800   2.696  0.2927  1.6300  0.0158
 2767TIP3   OH229791   1.981   6.629   2.178 -0.3648 -0.2572  0.0924
 2767TIP3    H129792   1.956   6.715   2.145 -3.2372 -1.2843 -0.7325
 2767TIP3    H229793   2.005   6.580   2.100 -0.7767 -0.7986  0.3031
 2768TIP3   OH229794   5.607   4.082   4.011  0.3242 -0.2896  0.2864
 2768TIP3    H129795   5.512   4.072   4.009  0.3764 -0.8485  0.5198
 2768TIP3    H229796   5.636   4.046   3.927  0.4503 -1.4836  0.8265
 2769TIP3   OH229797   5.255   6.526   4.179 -0.0845  0.2564 -0.6399
 2769TIP3    H129798   5.314   6.600   4.197  1.1662 -0.8381 -0.0474
 2769TIP3    H229799   5.173   6.551   4.221  0.8122  0.6250  1.0244
 2770TIP3   OH229800   0.506   0.372   4.382  0.8273  0.0783 -0.5563
 2770TIP3    H129801   0.529   0.375   4.289  0.7815  0.2961 -0.5607
 2770TIP3    H229802   0.450   0.448   4.395  0.3197 -0.3003 -0.4864
 2771TIP3   OH229803   4.549   5.277  15.928 -0.0137  0.6321  0.4494
 2771TIP3    H129804   4.565   5.226  15.848 -1.8805 -0.1797  0.5336
 2771TIP3    H229805   4.588   5.362  15.910 -0.1850  0.3954 -1.2514
 2772TIP3   OH229806   5.531   1.050   4.180 -0.1612 -0.5159 -0.3718
 2772TIP3    H129807   5.543   0.956   4.170 -0.3572 -0.3907 -2.3703
 2772TIP3    H229808   5.437   1.064   4.167 -0.3164 -0.1277  1.0184
 2773TIP3   OH229809   0.630   1.698   5.195  0.2942  0.1026  0.8239
 2773TIP3    H129810   0.662   1.779   5.235  0.5782 -0.9558  2.9036
 2773TIP3    H229811   0.580   1.726   5.119  0.0622  2.2470  1.7136
 2774TIP3   OH229812   2.236   3.472  12.367  0.0041  0.2510  0.5605
 2774TIP3    H129813   2.207   3.534  12.435  0.9102  0.5416  0.6919
 2774TIP3    H229814   2.229   3.386  12.409 -2.6156  0.0550 -0.0665
 2775TIP3   OH229815   4.841   5.105   6.085  0.2630 -0.0068 -0.0165
 2775TIP3    H129816   4.763   5.057   6.056 -0.2500  0.5396  0.4264
 2775TIP3    H229817   4.908   5.085   6.019 -0.1709 -0.7011 -0.2552
 2776TIP3   OH229818   2.946   1.094  15.153 -0.0184  0.1573 -0.3732
 2776TIP3    H129819   2.924   1.117  15.063 -2.0631  0.7678  0.2216
 2776TIP3    H229820   2.886   1.146  15.206 -0.0441 -1.4731  1.2843
 2777TIP3   OH229821   0.185   4.029   5.629  0.3220 -0.0661 -0.2118
 2777TIP3    H129822   0.208   3.975   5.705  1.1737 -1.0643 -1.1468
 2777TIP3    H229823   0.089   4.024   5.624  0.2316  0.2559  0.9589
 2778TIP3   OH229824   1.879   1.667   2.082  0.1387  0.4602 -0.2694
 2778TIP3    H129825   1.885   1.579   2.044 -1.5299 -0.3832  1.2589
 2778TIP3    H229826   1.906   1.655   2.173 -2.4433  0.9640  0.6316
 2779TIP3   OH229827   0.623   2.171   0.707  0.4608 -0.1802 -0.0886
 2779TIP3    H129828   0.647   2.226   0.781  0.1484  1.5044 -1.1589
 2779TIP3    H229829   0.687   2.100   0.707  0.2238 -0.4395  1.9900
 2780TIP3   OH229830   5.046   0.712   2.763  1.0547  0.0607  0.4182
 2780TIP3    H129831   5.085   0.795   2.791 -0.1036  0.2930  1.4630
 2780TIP3    H229832   5.005   0.678   2.843  0.4694 -0.9209 -0.2885
 2781TIP3   OH229833   2.266   4.444   5.146 -0.0929  0.3981 -0.6273
 2781TIP3    H129834   2.342   4.436   5.088 -0.8305  1.0142 -1.7192
 2781TIP3    H229835   2.258   4.358   5.187 -1.0368 -0.9534 -3.3912
 2782TIP3   OH229836   5.327   1.031  10.648 -0.3741 -0.3134  0.1960
 2782TIP3    H129837   5.420   1.050  10.649 -0.4958  0.2882  1.9442
 2782TIP3    H229838   5.297   1.064  10.563  0.6219  1.3743  0.4639
 2783TIP3   OH229839   0.795   2.683  10.218 -0.4117  0.3465  0.8126
 2783TIP3    H129840   0.721   2.703  10.162  0.7240  1.2006 -0.4536
 2783TIP3    H229841   0.831   2.769  10.241 -0.4746 -0.0136  2.3476
 2784TIP3   OH229842   3.761   3.720  12.363  0.6824  0.1429  0.4658
 2784TIP3    H129843   3.710   3.792  12.401 -0.4350 -0.5390  0.3125
 2784TIP3    H229844   3.776   3.661  12.436 -0.9851 -0.8957  0.0261
 2785TIP3   OH229845   6.475   1.369  16.656  0.4222 -0.5293  0.0225
 2785TIP3    H129846   6.493   1.462  16.642  2.1743 -1.0647 -1.6413
 2785TIP3    H229847   6.485   1.357  16.750 -1.8044  1.2966  0.5940
 2786TIP3   OH229848   2.742   4.314   4.302 -0.0427  0.2699 -0.0521
 2786TIP3    H129849   2.692   4.303   4.221  0.6682 -1.8823 -0.2421
 2786TIP3    H229850   2.819   4.365   4.276  0.7800 -1.3963 -1.0356
 2787TIP3   OH229851   6.350   3.499   1.738  0.0728 -0.0786 -0.0250
 2787TIP3    H129852   6.335   3.476   1.646  0.1493  0.2841 -0.1296
 2787TIP3    H229853   6.425   3.558   1.735 -0.3491  0.4737  0.2038
 2788TIP3   OH229854   2.283   1.557   2.122 -0.7109 -0.3881  0.0197
 2788TIP3    H129855   2.299   1.598   2.037 -0.0402  0.3131  0.4739
 2788TIP3    H229856   2.262   1.466   2.101  2.9693 -1.2318 -0.7626
 2789TIP3   OH229857   5.774   2.035  13.611 -0.3474 -0.6214 -0.3153
 2789TIP3    H129858   5.756   2.129  13.614 -1.8534 -0.9210  1.9918
 2789TIP3    H229859   5.858   2.026  13.656 -0.6574 -0.4512  0.3116
 2790TIP3   OH229860   5.762   6.284   5.053 -0.0636 -0.0170  0.0556
 2790TIP3    H129861   5.701   6.240   4.994 -0.6562  1.9363 -0.8737
 2790TIP3    H229862   5.849   6.263   5.019 -0.2529 -1.3996  0.3528
 2791TIP3   OH229863   1.020   2.984   4.164 -0.2178  0.1053  0.2762
 2791TIP3    H129864   0.975   2.921   4.221 -1.6070  1.0747  0.3127
 2791TIP3    H229865   1.111   2.980   4.191 -0.5554 -0.7376  1.3745
 2792TIP3   OH229866   5.849   6.551   1.254 -0.2202  0.0122  0.1836
 2792TIP3    H129867   5.823   6.641   1.232  0.1168  0.0914  0.0891
 2792TIP3    H229868   5.896   6.560   1.337 -1.3773 -0.2689  0.8841
 2793TIP3   OH229869   5.276   4.761  15.279  0.3586 -0.3660 -0.4626
 2793TIP3    H129870   5.190   4.751  15.238  0.9205 -0.6187 -1.6135
 2793TIP3    H229871   5.261   4.824  15.350 -1.0231 -1.3370  0.1422
 2794TIP3   OH229872   1.010   3.065  17.163  0.1574  0.3025 -0.7714
 2794TIP3    H129873   1.007   3.023  17.077 -1.6242  0.2099 -0.6890
 2794TIP3    H229874   0.972   3.000  17.223  2.2080 -0.0079  0.2911
 2795TIP3   OH229875   3.810   2.201  11.748  0.3959  0.2608 -0.0520
 2795TIP3    H129876   3.745   2.194  11.818 -2.0555  0.7813 -2.1656
 2795TIP3    H229877   3.783   2.277  11.697  0.9314 -1.2192 -2.7024
 2796TIP3   OH229878   0.220   4.390   0.748 -0.0703 -0.0387 -0.0305
 2796TIP3    H129879   0.234   4.374   0.654 -0.8617  1.5259 -0.4456
 2796TIP3    H229880   0.205   4.303   0.785  2.9962 -1.0347 -0.8342
 2797TIP3   OH229881   6.121   5.049   0.946  0.5141 -0.0039  0.4134
 2797TIP3    H129882   6.055   4.998   0.995  0.6424  0.1262  0.7246
 2797TIP3    H229883   6.188   4.985   0.923 -0.2807 -0.3808 -0.9280
 2798TIP3   OH229884   1.225   1.675   0.235  0.3137 -0.5780 -0.5916
 2798TIP3    H129885   1.157   1.620   0.275  0.8954 -0.5387  0.4786
 2798TIP3    H229886   1.201   1.679   0.142 -1.6202  0.1459 -0.0922
 2799TIP3   OH229887   1.923   2.977  12.615 -0.4071 -0.4089  0.6068
 2799TIP3    H129888   1.841   2.934  12.592  1.1859 -3.0132 -0.6031
 2799TIP3    H229889   1.990   2.931  12.564  1.9748  0.8512  2.3875
 2800TIP3   OH229890   4.743   0.796   0.821 -0.5295  0.1943 -0.0805
 2800TIP3    H129891   4.728   0.883   0.857  0.5008  0.7080 -0.8352
 2800TIP3    H229892   4.820   0.763   0.868  0.4371  0.6170 -1.3112
 2801TIP3   OH229893   3.609   6.311   0.504  0.2809 -0.4475  0.3287
 2801TIP3    H129894   3.611   6.385   0.565  0.2877 -0.8827  0.8672
 2801TIP3    H229895   3.546   6.251   0.542 -0.4796 -0.2838 -0.6320
 2802TIP3   OH229896   2.457   3.982   4.141 -0.0828  0.1972 -0.2093
 2802TIP3    H129897   2.515   3.987   4.065 -1.9000 -2.4703 -1.9537
 2802TIP3    H229898   2.475   3.895   4.178 -1.1566  0.3520  0.7121
 2803TIP3   OH229899   2.978   3.631  11.695 -0.3899  0.2390 -0.1735
 2803TIP3    H129900   3.000   3.642  11.603 -1.5542  1.4827 -0.3350
 2803TIP3    H229901   3.045   3.571  11.729  0.6574  0.5679 -1.5689
 2804TIP3   OH229902   5.077   6.768  11.166  0.0418 -0.2296 -0.1206
 2804TIP3    H129903   4.986   6.763  11.195  0.0399 -0.7344 -0.2137
 2804TIP3    H229904   5.102   6.859  11.182 -0.4978 -0.0732 -0.1569
 2805TIP3   OH229905   0.128   2.019  10.550 -0.2012 -0.1197 -0.1867
 2805TIP3    H129906   0.171   1.956  10.492  0.7880  2.3127 -2.3186
 2805TIP3    H229907   0.035   2.008  10.533 -0.0571 -1.0773 -0.4181
 2806TIP3   OH229908   6.614   5.607  14.566 -0.2214  0.0376  0.1241
 2806TIP3    H129909   6.644   5.575  14.651 -1.2149 -0.6244  0.2412
 2806TIP3    H229910   6.635   5.701  14.566 -1.1752  0.2776  1.5464
 2807TIP3   OH229911   0.497   6.012  16.213  0.2314 -0.3694  0.8036
 2807TIP3    H129912   0.513   5.924  16.180  0.5652  0.0387 -0.1717
 2807TIP3    H229913   0.519   6.069  16.139  0.6459  0.5647  1.6284
 2808TIP3   OH229914   1.878   4.508  15.248 -0.6927 -0.3612  0.0589
 2808TIP3    H129915   1.834   4.499  15.163 -1.0721 -0.8256  0.3062
 2808TIP3    H229916   1.872   4.602  15.268  1.7825  0.2717 -1.7136
 2809TIP3   OH229917   3.266   5.798  16.505  0.1383  0.1886  0.2852
 2809TIP3    H129918   3.196   5.733  16.493  2.0791 -2.0936  0.6450
 2809TIP3    H229919   3.316   5.795  16.423  0.5921  0.8087  0.5335
 2810TIP3   OH229920   1.221   2.967  15.519 -0.1113 -0.1566 -0.1891
 2810TIP3    H129921   1.147   2.955  15.460  1.7098 -0.7048 -2.4733
 2810TIP3    H229922   1.222   2.888  15.573  0.7643 -1.8474 -2.5020
 2811TIP3   OH229923   2.295   2.032   5.851 -0.1284  0.3307  0.7399
 2811TIP3    H129924   2.306   2.079   5.769 -2.0896  0.6717  0.6109
 2811TIP3    H229925   2.363   2.068   5.909  2.0841 -0.8053 -1.0387
 2812TIP3   OH229926   0.862   1.237  16.638 -0.2494 -0.1031  0.1771
 2812TIP3    H129927   0.893   1.150  16.662  1.3652  0.4537  0.2506
 2812TIP3    H229928   0.768   1.227  16.628 -0.1286 -1.8017  0.4087
 2813TIP3   OH229929   2.270   3.350   0.402 -0.1498  0.0493 -0.1622
 2813TIP3    H129930   2.186   3.326   0.441 -0.6219  1.7803 -0.0383
 2813TIP3    H229931   2.323   3.383   0.474 -0.0578  0.7431 -0.5345
 2814TIP3   OH229932   0.520   6.200  15.629 -0.4062 -0.2056 -0.0890
 2814TIP3    H129933   0.534   6.196  15.535 -2.2588  1.2084 -0.4798
 2814TIP3    H229934   0.582   6.266  15.660 -1.1354  0.7702 -0.6551
 2815TIP3   OH229935   4.371   4.796   1.893  0.8102  0.4212  0.4769
 2815TIP3    H129936   4.416   4.878   1.914 -1.0157  1.8675 -0.9029
 2815TIP3    H229937   4.304   4.821   1.830 -0.8891 -1.8730  1.2387
 2816TIP3   OH229938   2.112   5.351  14.152  0.4450  0.0075  0.3491
 2816TIP3    H129939   2.167   5.351  14.231 -2.0978 -0.8716  2.2933
 2816TIP3    H229940   2.042   5.414  14.171  0.8844  1.3884 -2.1792
 2817TIP3   OH229941   2.018   6.245   2.370  0.5160  0.1579 -0.3417
 2817TIP3    H129942   2.095   6.188   2.373  0.7106  0.4398  0.0804
 2817TIP3    H229943   2.054   6.334   2.369  0.2112  0.2750 -0.8843
 2818TIP3   OH229944   3.793   6.127   2.799  0.4692 -0.3487 -0.1346
 2818TIP3    H129945   3.749   6.081   2.727  1.1754  0.9057 -1.4238
 2818TIP3    H229946   3.886   6.107   2.786  0.5123 -1.1586  1.2382
 2819TIP3   OH229947   1.254   6.343  13.941 -0.7077  0.2117  0.2292
 2819TIP3    H129948   1.296   6.338  13.855 -0.7339 -1.2301  0.2780
 2819TIP3    H229949   1.301   6.280  13.995 -3.7919 -2.7469 -0.1380
 2820TIP3   OH229950   0.739   1.738   5.994  0.1974 -0.6651 -0.0466
 2820TIP3    H129951   0.752   1.818   6.045 -1.5799 -0.2547 -0.1733
 2820TIP3    H229952   0.782   1.670   6.046  2.2254  0.3974 -0.2003
 2821TIP3   OH229953   1.053   6.062   5.977 -0.0337  0.1179 -0.5961
 2821TIP3    H129954   0.985   6.117   6.016 -1.2056 -0.0861 -2.2094
 2821TIP3    H229955   1.086   6.009   6.050 -1.6072  0.2368  0.2598
 2822TIP3   OH229956   2.403   4.115   1.114  0.3142  0.0723  0.4151
 2822TIP3    H129957   2.471   4.086   1.175  1.2713 -0.1932 -0.7561
 2822TIP3    H229958   2.323   4.071   1.144  0.5559  0.6555  2.0124
 2823TIP3   OH229959   3.716   2.309  16.475 -0.1208 -0.6532 -0.4142
 2823TIP3    H129960   3.795   2.266  16.441  0.6767  0.9472 -0.6558
 2823TIP3    H229961   3.725   2.401  16.449 -1.9453 -0.3809 -0.2086
 2824TIP3   OH229962   6.752   3.822   5.823 -0.5306  0.0356 -0.3233
 2824TIP3    H129963   6.730   3.852   5.911 -1.4600 -1.7805  0.1223
 2824TIP3    H229964   6.685   3.757   5.802 -0.3316  0.4117 -2.3900
 2825TIP3   OH229965   6.238   3.223  12.223 -0.4359  0.0291  0.3103
 2825TIP3    H129966   6.248   3.131  12.200  1.1143 -0.0624  1.2199
 2825TIP3    H229967   6.289   3.270  12.157  0.4086  0.0814  0.9932
 2826TIP3   OH229968   4.986   0.893  14.319 -0.1155 -0.4738  0.2144
 2826TIP3    H129969   4.929   0.924  14.248  0.0730  2.0503  1.0730
 2826TIP3    H229970   5.068   0.869  14.276 -0.1997  0.4752 -0.4964
 2827TIP3   OH229971   4.221   4.503  14.225  0.0675 -0.5423  0.0734
 2827TIP3    H129972   4.239   4.595  14.204 -1.6472 -0.2497 -0.2414
 2827TIP3    H229973   4.136   4.505  14.270  0.1470 -1.9447  0.3132
 2828TIP3   OH229974   6.172   4.492  12.820 -0.0774 -0.3405  0.1559
 2828TIP3    H129975   6.084   4.514  12.851  0.0875 -1.5049  1.5905
 2828TIP3    H229976   6.231   4.542  12.876  0.1978 -1.4636  0.9116
 2829TIP3   OH229977   0.883   3.606  15.855  0.7268  0.5263 -0.0690
 2829TIP3    H129978   0.807   3.649  15.894  1.1277  1.3543 -0.1674
 2829TIP3    H229979   0.942   3.591  15.929  0.5070 -0.0394 -0.0058
 2830TIP3   OH229980   6.657   0.657  13.192  0.2541 -0.4408 -0.2479
 2830TIP3    H129981   6.619   0.602  13.124 -0.8838 -0.1697  0.1579
 2830TIP3    H229982   6.634   0.613  13.274  1.5104 -0.7000 -0.0012
 2831TIP3   OH229983   2.329   3.902   2.674 -1.0805 -0.1256  0.1680
 2831TIP3    H129984   2.337   3.862   2.588 -1.3083  0.5179 -0.1629
 2831TIP3    H229985   2.300   3.831   2.731 -0.5753 -0.6437 -0.2035
 2832TIP3   OH229986   2.061   5.826  10.477 -0.5145  0.0356 -0.1969
 2832TIP3    H129987   2.142   5.850  10.430 -0.4256 -0.1760 -0.1564
 2832TIP3    H229988   2.026   5.909  10.509  2.7783 -0.1627  4.9775
 2833TIP3   OH229989   0.821   5.753  12.635  0.0542  0.0752  0.1597
 2833TIP3    H129990   0.905   5.775  12.595  0.5988 -1.8597  0.1630
 2833TIP3    H229991   0.756   5.772  12.566  0.7245 -0.6087 -0.6827
 2834TIP3   OH229992   3.980   3.044  15.941 -0.1989 -0.1140  0.4492
 2834TIP3    H129993   3.921   3.058  15.867  2.1932  2.2332 -1.1874
 2834TIP3    H229994   3.927   3.066  16.018 -2.4461 -1.6097 -0.5514
 2835TIP3   OH229995   0.612   6.283   0.370 -0.2145  0.3611  0.4555
 2835TIP3    H129996   0.636   6.283   0.277  0.0456 -0.3061  0.5170
 2835TIP3    H229997   0.549   6.211   0.379  0.0209  0.2000  0.8552
 2836TIP3   OH229998   6.557   0.275  11.613 -0.5513 -0.4198  0.4172
 2836TIP3    H129999   6.480   0.224  11.591 -0.6376 -0.9485  1.8291
 2836TIP3    H230000   6.593   0.231  11.690  1.5203 -0.5552 -0.5701
 2837TIP3   OH230001   5.551   4.244   1.311 -0.9567 -0.5698 -0.6352
 2837TIP3    H130002   5.456   4.249   1.324 -0.9250 -0.9635 -0.2272
 2837TIP3    H230003   5.568   4.151   1.299 -0.6120 -0.5005 -0.6806
 2838TIP3   OH230004   1.429   3.762   2.056  0.3178  0.3565  0.3487
 2838TIP3    H130005   1.348   3.720   2.083 -0.1426  1.3058  0.4858
 2838TIP3    H230006   1.438   3.838   2.113  2.5104 -0.9420  1.9097
 2839TIP3   OH230007   1.403   3.301   0.459  0.3633 -0.0507 -0.4141
 2839TIP3    H130008   1.495   3.300   0.434  1.3544 -2.3803  2.7408
 2839TIP3    H230009   1.375   3.209   0.453 -0.7682  0.0811  1.6807
 2840TIP3   OH230010   6.049   2.277   6.252  0.5634  0.3981 -0.4823
 2840TIP3    H130011   5.966   2.280   6.205 -0.1711 -0.3687  0.7080
 2840TIP3    H230012   6.035   2.212   6.322  1.6147  1.4567  0.7652
 2841TIP3   OH230013   2.017   2.935  15.268  0.6301  0.4850 -0.0293
 2841TIP3    H130014   2.047   2.848  15.293 -0.1578  0.7154  1.9300
 2841TIP3    H230015   1.936   2.919  15.220  0.5076  0.1245  0.2873
 2842TIP3   OH230016   2.215   1.388  16.857 -0.0686 -0.4216 -0.0711
 2842TIP3    H130017   2.296   1.337  16.862  1.0592  1.2383 -0.4638
 2842TIP3    H230018   2.194   1.408  16.948  0.5825  0.0589 -0.0206
 2843TIP3   OH230019   2.374   3.764  11.721 -0.2858  0.1214  0.0679
 2843TIP3    H130020   2.344   3.744  11.809 -1.4369  1.1864 -0.0555
 2843TIP3    H230021   2.469   3.770  11.728 -0.3629  0.0590  1.2075
 2844TIP3   OH230022   2.185   1.839  11.619 -0.1210 -0.3200  0.0788
 2844TIP3    H130023   2.178   1.923  11.665 -2.6410  0.2122 -1.0558
 2844TIP3    H230024   2.207   1.863  11.529 -1.6193 -0.7309 -0.4397
 2845TIP3   OH230025   2.202   2.898   0.450 -0.3065  0.1360  0.1473
 2845TIP3    H130026   2.161   2.913   0.364 -0.5304 -0.8260  0.0769
 2845TIP3    H230027   2.129   2.875   0.507  0.0536 -1.0447  0.1553
 2846TIP3   OH230028   5.311   0.434  13.272 -0.2572 -0.2638 -0.2927
 2846TIP3    H130029   5.262   0.516  13.263 -0.8081 -0.2803  1.9902
 2846TIP3    H230030   5.246   0.366  13.258 -0.3951 -0.2905  0.4489
 2847TIP3   OH230031   5.927   6.679   5.234 -0.5681  0.1284 -0.1564
 2847TIP3    H130032   5.999   6.717   5.283  0.3224  0.8904 -1.9574
 2847TIP3    H230033   5.943   6.584   5.236 -0.7525  0.1126  1.2728
 2848TIP3   OH230034   4.774   3.454   3.774 -0.4122 -0.3070  0.3736
 2848TIP3    H130035   4.807   3.512   3.706 -1.5116  1.7122  1.4723
 2848TIP3    H230036   4.805   3.493   3.856 -3.0549  0.1005  1.2792
 2849TIP3   OH230037   0.479   5.726  14.653 -0.2514  0.0148  0.2131
 2849TIP3    H130038   0.525   5.656  14.698  2.3742  1.1011 -0.6346
 2849TIP3    H230039   0.520   5.731  14.567 -1.7002  1.3422 -0.4665
 2850TIP3   OH230040   3.021   2.419   0.028  0.2077 -0.2726 -0.1659
 2850TIP3    H130041   2.987   2.473  -0.044 -0.3454  0.0178  0.3082
 2850TIP3    H230042   2.992   2.463   0.107  0.2768 -0.9336  0.2358
 2851TIP3   OH230043   4.970   0.068  11.978  0.1364 -0.1409 -0.0985
 2851TIP3    H130044   5.023   0.145  11.997  1.0673 -0.2120 -2.1302
 2851TIP3    H230045   4.973   0.060  11.883  1.3956 -3.6001  0.0854
 2852TIP3   OH230046   0.864   0.433   2.059  0.0369 -0.3638 -0.6704
 2852TIP3    H130047   0.782   0.426   2.010 -0.6565  0.9443  0.2360
 2852TIP3    H230048   0.922   0.483   2.002 -0.8797  1.4475 -0.0820
 2853TIP3   OH230049   5.920   3.283  12.544 -0.2657 -0.1486  0.3044
 2853TIP3    H130050   5.911   3.296  12.639  1.1591 -0.8159  0.5620
 2853TIP3    H230051   5.832   3.264  12.513 -0.7337 -0.0322  1.5193
 2854TIP3   OH230052   1.201   0.889   0.493  0.2786  0.3802  0.2172
 2854TIP3    H130053   1.178   0.797   0.496  0.3624  0.3425 -0.2036
 2854TIP3    H230054   1.121   0.935   0.516 -0.1402  0.2402 -0.8805
 2855TIP3   OH230055   1.286   4.105   4.123  0.2641 -0.6158 -0.5911
 2855TIP3    H130056   1.216   4.163   4.152  1.0832  0.4688 -0.7206
 2855TIP3    H230057   1.337   4.158   4.062  1.1602 -1.3985 -0.5377
 2856TIP3   OH230058   5.355   0.282  14.377 -0.2923 -0.1026  0.2568
 2856TIP3    H130059   5.358   0.373  14.408 -0.8786  0.8491 -2.2524
 2856TIP3    H230060   5.441   0.267  14.337 -1.0229  0.2217 -1.5024
 2857TIP3   OH230061   6.340   4.152   5.165 -0.1884 -0.1363  0.0679
 2857TIP3    H130062   6.258   4.112   5.133 -0.4109  1.1971 -1.1014
 2857TIP3    H230063   6.313   4.200   5.243 -0.1604 -1.1486  0.7276
 2858TIP3   OH230064   3.647   6.362  15.855  0.0243  0.3610  0.5437
 2858TIP3    H130065   3.559   6.382  15.823  0.5143  0.3233 -0.9011
 2858TIP3    H230066   3.663   6.427  15.924 -0.8648  0.8027  0.3476
 2859TIP3   OH230067   2.863   4.481   1.778  0.4991 -0.3023 -0.6684
 2859TIP3    H130068   2.897   4.418   1.715  1.0854  0.1146 -0.7732
 2859TIP3    H230069   2.775   4.502   1.746  0.4516 -0.7718 -0.8475
 2860TIP3   OH230070   3.416   0.662   1.109  0.6331  0.3730 -0.2733
 2860TIP3    H130071   3.324   0.674   1.087  0.6468 -1.0690 -1.2091
 2860TIP3    H230072   3.464   0.698   1.034  0.8412  0.7619  0.0376
 2861TIP3   OH230073   1.453   0.170  13.145 -0.3544  0.3283  0.2600
 2861TIP3    H130074   1.506   0.159  13.066 -0.9426  0.6949 -0.1967
 2861TIP3    H230075   1.455   0.265  13.162 -0.1833  0.2453  0.7225
 2862TIP3   OH230076   0.104   1.914  16.754  0.3128 -0.0189  0.5577
 2862TIP3    H130077   0.165   1.964  16.700  0.7849 -0.1512  0.9655
 2862TIP3    H230078   0.160   1.860  16.809 -0.1739 -0.1087  0.9658
 2863TIP3   OH230079   4.049   2.245  15.167 -0.1820  0.1851 -0.1602
 2863TIP3    H130080   3.971   2.227  15.219 -0.2690  0.6333 -0.1308
 2863TIP3    H230081   4.069   2.338  15.184  2.5458 -0.7501  2.8111
 2864TIP3   OH230082   2.558   0.706  15.887 -0.2935 -0.4447  0.1230
 2864TIP3    H130083   2.598   0.622  15.865 -1.3945 -0.8669 -0.3675
 2864TIP3    H230084   2.478   0.709  15.834 -0.5992  0.6247  0.6130
 2865TIP3   OH230085   0.962   2.596  16.382 -0.0690 -0.9062  0.0707
 2865TIP3    H130086   1.031   2.660  16.403 -0.5472  0.2058 -1.4818
 2865TIP3    H230087   0.988   2.516  16.427  1.4796 -0.0980  0.6897
 2866TIP3   OH230088   4.431   2.764  12.093  0.0411  0.3693  0.0974
 2866TIP3    H130089   4.345   2.786  12.130 -0.9244  0.5941 -2.0989
 2866TIP3    H230090   4.416   2.681  12.048  0.7579  0.8126 -0.9894
 2867TIP3   OH230091   1.318   0.057  14.094 -0.1528 -0.0214  0.3366
 2867TIP3    H130092   1.379   0.015  14.155 -0.7376 -0.1100  0.8666
 2867TIP3    H230093   1.273  -0.016  14.051 -0.8850  0.0444  0.9704
 2868TIP3   OH230094   0.856   0.730  15.468  0.0213 -0.1515  0.1185
 2868TIP3    H130095   0.784   0.699  15.523 -0.0006  1.8297  1.3187
 2868TIP3    H230096   0.826   0.716  15.378 -0.8594 -1.4843  0.5919
 2869TIP3   OH230097   1.482   2.374  15.942 -0.1525 -0.0174 -0.4916
 2869TIP3    H130098   1.540   2.390  15.868  0.4723  1.0785  0.2104
 2869TIP3    H230099   1.537   2.388  16.019 -1.0595 -0.1179  0.1858
 2870TIP3   OH230100   1.224   2.191  14.499  0.1058 -0.0994 -0.2391
 2870TIP3    H130101   1.166   2.120  14.470 -0.9358  0.2126  0.9866
 2870TIP3    H230102   1.184   2.270  14.463  0.7039 -0.0282 -0.7592
 2871TIP3   OH230103   0.018   4.864   5.987  0.2848  0.2025 -0.5052
 2871TIP3    H130104   0.085   4.800   6.009  2.1193  1.3619 -2.3284
 2871TIP3    H230105  -0.026   4.883   6.070  0.7556 -2.1568  0.3451
 2872TIP3   OH230106   4.954   6.245   2.967 -0.5138  0.7680 -0.1778
 2872TIP3    H130107   4.911   6.191   3.034  0.7174  1.2793  1.0642
 2872TIP3    H230108   4.939   6.335   2.995  1.0186  0.9639  0.0766
 2873TIP3   OH230109   1.717   6.519  15.228 -0.5168 -0.2509 -0.4989
 2873TIP3    H130110   1.731   6.535  15.135 -0.6845  0.1400 -0.4585
 2873TIP3    H230111   1.656   6.588  15.255  0.1034  0.0942  0.0588
 2874TIP3   OH230112   5.606   5.480   1.107 -0.2934 -0.3620  0.2378
 2874TIP3    H130113   5.590   5.567   1.144 -2.3166 -0.3288 -0.5789
 2874TIP3    H230114   5.587   5.490   1.013 -0.2479 -1.6127  0.0737
 2875TIP3   OH230115   5.161   5.700  17.161 -0.4883 -0.5861 -0.4770
 2875TIP3    H130116   5.177   5.784  17.203 -1.8154 -0.4487 -0.2001
 2875TIP3    H230117   5.245   5.675  17.123  0.5822 -0.3635  1.5989
 2876TIP3   OH230118   2.953   4.754  13.224 -0.4399  0.5480  0.4359
 2876TIP3    H130119   2.956   4.785  13.315  0.4281  1.2195  0.1913
 2876TIP3    H230120   2.859   4.752  13.202 -0.6773  0.0802  1.4317
 2877TIP3   OH230121   4.650   1.908  14.240  0.2905 -0.5886 -0.0295
 2877TIP3    H130122   4.645   1.919  14.145  0.9932 -3.5537 -0.5169
 2877TIP3    H230123   4.743   1.897  14.257  0.2263  0.5334  1.1216
 2878TIP3   OH230124   6.311   1.820  16.437  0.0184  0.1313  0.5324
 2878TIP3    H130125   6.321   1.844  16.345  0.9098  3.3852  1.3346
 2878TIP3    H230126   6.262   1.738  16.436 -2.6667  1.5430 -2.7711
 2879TIP3   OH230127   4.408   6.280   0.943  0.7065 -0.1256  0.2304
 2879TIP3    H130128   4.321   6.242   0.955  1.0786 -0.3608  2.6110
 2879TIP3    H230129   4.397   6.372   0.967  1.2935 -0.3810  1.5554
 2880TIP3   OH230130   6.502   4.498   2.261  0.0403 -0.3589  0.0076
 2880TIP3    H130131   6.416   4.475   2.226 -0.3895 -1.6449  1.7718
 2880TIP3    H230132   6.485   4.520   2.353  1.5080  0.0934  0.1900
 2881TIP3   OH230133   2.782   1.208   6.681  0.0198  0.0735 -0.0057
 2881TIP3    H130134   2.728   1.242   6.609 -1.6997  1.6232  1.9083
 2881TIP3    H230135   2.748   1.120   6.696 -0.8642  0.4174  0.0757
 2882TIP3   OH230136   3.887   5.061  16.667 -0.6533 -0.0612  0.1692
 2882TIP3    H130137   3.946   5.128  16.632  0.8566 -1.5995 -0.3660
 2882TIP3    H230138   3.907   4.983  16.616 -1.4079 -1.2737  1.6514
 2883TIP3   OH230139   6.045   6.011   6.199  0.3999 -0.5189  0.0310
 2883TIP3    H130140   6.117   6.024   6.260 -0.6656  0.0164  1.2036
 2883TIP3    H230141   6.015   5.921   6.216 -0.7016  0.0392  1.2326
 2884TIP3   OH230142   0.160   1.277   5.364  0.1558  0.1604 -0.1231
 2884TIP3    H130143   0.238   1.324   5.335  0.1191  0.6245  0.5159
 2884TIP3    H230144   0.123   1.332   5.433  1.0698 -1.6165  1.8938
 2885TIP3   OH230145   2.685   0.067   2.028 -0.3761 -0.3241  0.2820
 2885TIP3    H130146   2.605   0.038   2.072 -0.1610  0.2154  1.0274
 2885TIP3    H230147   2.745  -0.008   2.036 -1.0947 -1.0983 -1.0909
 2886TIP3   OH230148   6.138   1.198  14.819  0.2469  0.1037  0.0784
 2886TIP3    H130149   6.153   1.104  14.824  0.7784  0.2312  2.7860
 2886TIP3    H230150   6.140   1.227  14.911 -0.4767  2.6648 -0.6304
 2887TIP3   OH230151   6.710   2.360  13.258  0.4119 -0.1890 -0.5419
 2887TIP3    H130152   6.696   2.300  13.185 -1.7389 -0.8358  0.3355
 2887TIP3    H230153   6.667   2.318  13.333 -0.9324  2.2669  0.1794
 2888TIP3   OH230154   2.450   3.896   6.058 -0.7893  0.6051  0.4835
 2888TIP3    H130155   2.385   3.854   6.000 -2.9109 -2.2385  4.4523
 2888TIP3    H230156   2.533   3.856   6.033 -1.7652 -1.1651 -0.1150
 2889TIP3   OH230157   5.214   2.606  13.024  0.0584  0.0736  0.3812
 2889TIP3    H130158   5.144   2.568  13.078 -1.3288 -0.8802 -1.9325
 2889TIP3    H230159   5.259   2.530  12.988  2.3718  0.6822  1.8410
 2890TIP3   OH230160   4.443   6.705   2.683  0.1657 -0.1515  0.4087
 2890TIP3    H130161   4.538   6.716   2.689  0.3035 -1.3578  0.6720
 2890TIP3    H230162   4.408   6.760   2.753  0.4337  2.7650 -1.5813
 2891TIP3   OH230163   2.019   6.698   1.005 -0.0136 -0.2882 -0.2404
 2891TIP3    H130164   2.029   6.658   0.919  1.9657 -1.1711  0.3455
 2891TIP3    H230165   1.984   6.628   1.061  0.7772 -0.3801  0.1515
 2892TIP3   OH230166   1.417   2.266  14.257 -0.1276 -0.7472 -0.0563
 2892TIP3    H130167   1.420   2.355  14.294  0.8643 -1.3153  1.2934
 2892TIP3    H230168   1.474   2.215  14.314  0.6603 -1.8967 -1.8194
 2893TIP3   OH230169   2.801   2.154  15.118  0.2440  0.1413  0.0313
 2893TIP3    H130170   2.737   2.105  15.169  1.4658 -0.2800  1.2513
 2893TIP3    H230171   2.762   2.240  15.105  0.0038  0.3842  2.0295
 2894TIP3   OH230172   4.016   6.378  15.029  0.0568 -0.1287 -0.6517
 2894TIP3    H130173   4.008   6.430  15.108  1.8887 -1.3227  0.4166
 2894TIP3    H230174   4.073   6.430  14.972  0.9997 -0.4528 -0.0289
 2895TIP3   OH230175   3.268   3.995   2.182  0.1145 -0.6313 -0.4299
 2895TIP3    H130176   3.272   3.900   2.187  0.9512 -0.6675 -1.3218
 2895TIP3    H230177   3.360   4.022   2.177 -0.0574  0.3058  0.8874
 2896TIP3   OH230178   6.548   3.951   5.228  0.6139  0.0152  0.0146
 2896TIP3    H130179   6.502   4.024   5.186  2.0660  0.8980 -0.1208
 2896TIP3    H230180   6.491   3.923   5.299 -1.6692 -1.1484 -2.1222
 2897TIP3   OH230181   5.811   3.590  17.155 -0.0803  0.0285  0.0550
 2897TIP3    H130182   5.770   3.510  17.189 -0.7440  0.2124 -0.2966
 2897TIP3    H230183   5.828   3.571  17.062  0.0053  0.1986  0.0351
 2898TIP3   OH230184   4.489   3.650   0.113 -0.1784 -0.1434  0.4496
 2898TIP3    H130185   4.467   3.710   0.041 -0.5026 -1.9313 -1.0499
 2898TIP3    H230186   4.411   3.595   0.122  0.9747 -1.9791 -0.0487
 2899TIP3   OH230187   0.890   5.236   3.243 -0.0358 -0.0253  0.3684
 2899TIP3    H130188   0.914   5.213   3.153 -0.2722  0.3044  0.2187
 2899TIP3    H230189   0.940   5.175   3.297  1.9955  1.3347  0.1379
 2900TIP3   OH230190   3.414   4.386   3.586  0.4065 -0.1101  0.0302
 2900TIP3    H130191   3.453   4.395   3.499  2.0514  1.4829  0.8747
 2900TIP3    H230192   3.432   4.469   3.630 -0.2092 -0.9338  1.9693
 2901TIP3   OH230193   5.802   1.271   2.015 -0.2780  0.1140  0.3234
 2901TIP3    H130194   5.763   1.284   1.928  0.7261 -0.9687 -0.3140
 2901TIP3    H230195   5.803   1.359   2.054 -0.6825  0.6294 -0.7761
 2902TIP3   OH230196   0.377   2.269   4.591 -0.0999  0.0099 -0.2744
 2902TIP3    H130197   0.463   2.253   4.630 -0.3728  0.2721  0.4434
 2902TIP3    H230198   0.368   2.365   4.592 -2.2800 -0.0091  3.9426
 2903TIP3   OH230199   1.795   5.766  15.821 -0.0926  0.1801 -0.4687
 2903TIP3    H130200   1.829   5.677  15.806 -0.6624 -0.6000  2.2304
 2903TIP3    H230201   1.706   5.764  15.786 -1.0556 -1.2539  1.7789
 2904TIP3   OH230202   3.999   6.266   1.462  0.1179 -0.7254 -0.2123
 2904TIP3    H130203   3.923   6.227   1.505  0.6452 -1.6838 -0.1408
 2904TIP3    H230204   3.966   6.294   1.376 -1.5112  3.1390  1.4354
 2905TIP3   OH230205   2.706   0.416  15.868  0.3928  0.1787  0.4101
 2905TIP3    H130206   2.766   0.359  15.915  0.7368 -0.3763 -0.6793
 2905TIP3    H230207   2.698   0.377  15.781  0.4068  1.6176 -0.2783
 2906TIP3   OH230208   0.817   5.633  14.990  0.1734 -0.4168  0.3854
 2906TIP3    H130209   0.749   5.568  14.970 -0.6025  0.3718  0.4151
 2906TIP3    H230210   0.773   5.717  14.979  1.5310  0.1492 -1.0276
 2907TIP3   OH230211   3.219   1.959   0.136 -0.1229  0.1506  0.0621
 2907TIP3    H130212   3.271   1.917   0.067 -0.0877  0.0229  0.1669
 2907TIP3    H230213   3.255   2.047   0.143  0.2363 -0.0180  0.3062
 2908TIP3   OH230214   1.505   6.074  16.356 -0.2035  0.5018 -0.0235
 2908TIP3    H130215   1.527   5.986  16.387 -0.5567 -0.4870 -2.3886
 2908TIP3    H230216   1.570   6.094  16.289  0.1087  2.2533  0.7267
 2909TIP3   OH230217   0.699   4.352   4.062  0.4783  0.2458  0.2818
 2909TIP3    H130218   0.719   4.419   3.996  2.3669  0.6472  1.1701
 2909TIP3    H230219   0.771   4.360   4.125  0.1825 -1.9385  0.9605
 2910TIP3   OH230220   5.991   5.763   3.377 -0.6919  1.0098 -0.9976
 2910TIP3    H130221   5.975   5.734   3.467 -2.1931  0.8064 -1.2970
 2910TIP3    H230222   6.015   5.855   3.385  2.5345  0.2306 -0.1545
 2911TIP3   OH230223   2.333   3.180  13.479 -0.2456  0.0093 -0.0851
 2911TIP3    H130224   2.339   3.092  13.443  0.3705 -0.5328  1.2559
 2911TIP3    H230225   2.276   3.171  13.555  2.6460 -0.0560  2.2603
 2912TIP3   OH230226   5.012   3.795   4.665 -0.1448  0.0171 -0.0625
 2912TIP3    H130227   4.978   3.710   4.692  0.0741  0.7351  2.7856
 2912TIP3    H230228   4.998   3.797   4.570 -0.3910 -3.0469 -0.1974
 2913TIP3   OH230229   5.254   4.257   4.459 -0.2382  0.2349  0.6004
 2913TIP3    H130230   5.297   4.341   4.476 -1.9751  1.1372  0.8041
 2913TIP3    H230231   5.238   4.256   4.365 -1.1679  0.6611  0.7345
 2914TIP3   OH230232   6.537   2.469   2.239 -0.3618 -0.5342  0.2736
 2914TIP3    H130233   6.475   2.526   2.285 -2.6054 -2.9535  0.4548
 2914TIP3    H230234   6.527   2.493   2.147  0.9767  1.3735  0.5725
 2915TIP3   OH230235   4.608   3.647  14.136 -0.0104  0.0139 -0.0782
 2915TIP3    H130236   4.662   3.718  14.103 -0.6294  0.9031  0.7492
 2915TIP3    H230237   4.656   3.567  14.114  0.1197  0.6061 -2.0997
 2916TIP3   OH230238   6.406   1.880   2.478  0.0437 -0.0948  0.2896
 2916TIP3    H130239   6.407   1.785   2.487  0.2835  0.0387  1.8389
 2916TIP3    H230240   6.493   1.908   2.506  0.4020  0.5108 -1.3264
 2917TIP3   OH230241   3.679   5.067  16.332  0.2004 -0.1252  0.4958
 2917TIP3    H130242   3.746   4.999  16.331 -0.3098 -0.6317  0.1885
 2917TIP3    H230243   3.618   5.042  16.261 -1.4424 -0.8194  2.0758
 2918TIP3   OH230244   0.033   6.025  14.468  0.2858 -0.0085  0.1970
 2918TIP3    H130245   0.039   5.954  14.404 -0.4091  0.5550 -0.5193
 2918TIP3    H230246  -0.003   6.099  14.419  3.1127  1.6128  0.3312
 2919TIP3   OH230247   4.524   4.854   0.111  0.2178 -0.1037 -0.5008
 2919TIP3    H130248   4.435   4.830   0.084  0.9008 -1.0719 -2.0428
 2919TIP3    H230249   4.511   4.918   0.181 -1.6941 -1.8297  0.8650
 2920TIP3   OH230250   6.104   3.405  11.233 -0.1385  0.3196  0.3269
 2920TIP3    H130251   6.032   3.345  11.249 -0.0839  0.4112  0.9130
 2920TIP3    H230252   6.146   3.417  11.318  2.3057 -1.9122 -0.4309
 2921TIP3   OH230253   0.366   4.675  16.555  0.7553  0.0070  0.0450
 2921TIP3    H130254   0.299   4.629  16.504 -0.0229  1.0877  0.0466
 2921TIP3    H230255   0.317   4.745  16.599  2.0420  1.3937 -0.6650
 2922TIP3   OH230256   1.435   1.777   2.381 -0.2441  0.2376  0.2862
 2922TIP3    H130257   1.380   1.804   2.308 -1.7929 -1.5442  0.7098
 2922TIP3    H230258   1.468   1.691   2.356  2.9524  1.4722 -0.2063
 2923TIP3   OH230259   0.856   5.012  11.732 -0.3752 -0.2858  0.0491
 2923TIP3    H130260   0.774   4.982  11.692  0.3740 -0.0988 -1.7071
 2923TIP3    H230261   0.849   4.985  11.823 -2.2952 -0.4671 -0.1091
 2924TIP3   OH230262   5.938   5.898   2.211  0.2476 -0.4595 -0.2284
 2924TIP3    H130263   5.856   5.859   2.242  0.1362  0.2865  0.4256
 2924TIP3    H230264   5.937   5.882   2.116 -0.9149 -0.0127 -0.3116
 2925TIP3   OH230265   2.987   1.446   5.903 -0.1364  0.7689 -0.2143
 2925TIP3    H130266   2.929   1.509   5.946  1.8837  1.1536  2.1492
 2925TIP3    H230267   3.025   1.495   5.830  3.0722  3.3553  2.8068
 2926TIP3   OH230268   1.497   6.817  12.293  0.0263 -0.5262  0.8053
 2926TIP3    H130269   1.443   6.858  12.361  0.4421  0.7161  0.4245
 2926TIP3    H230270   1.576   6.871  12.290 -0.1336 -0.3269 -0.8916
 2927TIP3   OH230271   0.921   4.944   0.232  0.0794  0.6648 -0.6682
 2927TIP3    H130272   1.001   4.979   0.273  0.5158  0.6826 -1.5173
 2927TIP3    H230273   0.953   4.897   0.155 -0.1498 -3.7833  1.6157
 2928TIP3   OH230274   1.738   4.021  15.031  0.3026  0.0507  0.1849
 2928TIP3    H130275   1.731   3.925  15.035 -0.6198  0.1017  0.0486
 2928TIP3    H230276   1.648   4.052  15.041  0.6986  0.9449  1.1537
 2929TIP3   OH230277   6.707   2.931   0.700  0.6748 -0.2636  0.5721
 2929TIP3    H130278   6.637   2.916   0.635  0.0781  0.9556  0.9006
 2929TIP3    H230279   6.670   2.900   0.782  0.0895  1.2892  0.9357
 2930TIP3   OH230280   4.520   1.650  13.905 -0.4195 -0.1671 -0.5477
 2930TIP3    H130281   4.613   1.671  13.911 -0.2075 -0.6509 -1.7596
 2930TIP3    H230282   4.478   1.704  13.972  0.8856 -0.9479  0.9723
 2931TIP3   OH230283   2.063   6.160   5.663  0.3612  0.1422  0.0753
 2931TIP3    H130284   1.994   6.097   5.682 -0.0512  0.7952  0.8161
 2931TIP3    H230285   2.065   6.218   5.739  0.2045  1.4783 -0.8919
 2932TIP3   OH230286   2.934   1.159   0.097 -0.6589  0.0845 -0.6686
 2932TIP3    H130287   2.936   1.080   0.044  2.1078 -1.6352  1.6760
 2932TIP3    H230288   3.026   1.178   0.116 -1.3014 -0.3604  4.4870
 2933TIP3   OH230289   6.433   6.017  11.392 -0.0133 -0.3598  0.5841
 2933TIP3    H130290   6.432   6.105  11.356 -0.4025 -0.7109 -0.2864
 2933TIP3    H230291   6.426   5.960  11.315  0.6485 -1.1541  1.1011
 2934TIP3   OH230292   5.754   3.624  12.742 -0.2193  0.2973  0.3346
 2934TIP3    H130293   5.835   3.606  12.694 -0.0212 -0.5001  0.9494
 2934TIP3    H230294   5.730   3.541  12.782 -1.1064  0.6307  0.5390
 2935TIP3   OH230295   0.465   5.517   3.359  0.0163  0.2344  0.0415
 2935TIP3    H130296   0.445   5.535   3.267  1.9766 -1.0447 -0.6887
 2935TIP3    H230297   0.400   5.452   3.385  0.9581 -1.2958 -1.2467
 2936TIP3   OH230298   3.784   3.647  13.530 -0.3157  0.2184 -0.4924
 2936TIP3    H130299   3.876   3.669  13.519 -0.4957  2.6764  1.9799
 2936TIP3    H230300   3.785   3.561  13.572  0.7671 -0.3217 -1.5730
 2937TIP3   OH230301   4.443   4.034  13.913  0.9358 -1.0787  0.0216
 2937TIP3    H130302   4.359   3.990  13.899  0.7726 -1.1970  1.2333
 2937TIP3    H230303   4.496   4.011  13.837 -0.9906  1.1835 -2.1470
 2938TIP3   OH230304   2.633   2.499  12.253  0.2740  0.0642 -0.2299
 2938TIP3    H130305   2.629   2.522  12.345  2.0109  0.0177 -0.1054
 2938TIP3    H230306   2.543   2.505  12.222 -0.3924 -0.3361  1.5567
 2939TIP3   OH230307   5.909   1.275  13.139  0.1591 -0.6133  0.3184
 2939TIP3    H130308   5.957   1.195  13.161  0.4839 -0.6421 -0.4706
 2939TIP3    H230309   5.831   1.245  13.093  0.1175 -0.4936  0.3092
 2940TIP3   OH230310   2.559   0.430  15.563  0.9925  0.4622  0.0672
 2940TIP3    H130311   2.474   0.456  15.599 -0.7153  0.4919 -3.5175
 2940TIP3    H230312   2.595   0.510  15.525  0.2540 -0.3413 -2.5691
 2941TIP3   OH230313   4.581   1.397   4.931 -0.2118  0.2690  0.1234
 2941TIP3    H130314   4.583   1.408   5.026  1.0850  0.0065  0.1517
 2941TIP3    H230315   4.644   1.326   4.914  0.5572  1.1907 -1.0242
 2942TIP3   OH230316   3.863   5.935   1.928 -0.3677  0.4701 -0.1016
 2942TIP3    H130317   3.856   5.919   2.022 -1.8899  1.0017 -0.1000
 2942TIP3    H230318   3.805   5.870   1.888  0.2379  0.2709 -0.6929
 2943TIP3   OH230319   2.636   3.430   1.023 -0.3441 -0.2528  0.3995
 2943TIP3    H130320   2.699   3.401   0.958  0.3574 -0.3370  1.0931
 2943TIP3    H230321   2.673   3.402   1.107 -0.6391  0.8473  0.9317
 2944TIP3   OH230322   2.989   5.745  15.496 -0.2614 -0.1937  0.8099
 2944TIP3    H130323   3.073   5.774  15.462 -0.3932 -2.1856 -1.4745
 2944TIP3    H230324   2.924   5.797  15.449 -0.3954  1.0772  2.3001
 2945TIP3   OH230325   3.104   6.366   1.616 -0.0003 -0.2099 -0.7684
 2945TIP3    H130326   3.013   6.339   1.628 -0.0790  0.7270  1.1403
 2945TIP3    H230327   3.103   6.424   1.540 -0.8924 -0.6557 -1.1000
 2946TIP3   OH230328   4.383   5.606  16.628  0.0134  0.5237 -0.5531
 2946TIP3    H130329   4.329   5.529  16.644  1.6546 -0.3637  1.1872
 2946TIP3    H230330   4.450   5.576  16.567  0.6136  0.5765  0.0696
 2947TIP3   OH230331   4.015   1.685   5.176  0.3841  0.2687  0.2948
 2947TIP3    H130332   4.086   1.686   5.241  1.3274 -0.0944 -0.7006
 2947TIP3    H230333   3.968   1.767   5.191  1.1542  0.6293  0.8207
 2948TIP3   OH230334   5.223   0.862  11.552 -0.0892 -0.2548 -0.1022
 2948TIP3    H130335   5.149   0.839  11.609 -0.6216 -0.7834 -0.9882
 2948TIP3    H230336   5.295   0.808  11.583 -0.8656 -1.9062 -1.0660
 2949TIP3   OH230337   2.681   2.036  16.580  0.1133  0.2398  0.0315
 2949TIP3    H130338   2.738   2.035  16.503 -0.0447 -0.6226 -0.0839
 2949TIP3    H230339   2.739   2.060  16.653  0.1234  1.7661 -0.4460
 2950TIP3   OH230340   0.906   1.726   0.260 -0.5795 -0.1397 -0.6342
 2950TIP3    H130341   0.962   1.792   0.301 -3.5611  1.0981  1.8308
 2950TIP3    H230342   0.951   1.643   0.275  0.7823  0.8336  0.8678
 2951TIP3   OH230343   0.106   0.484  16.145  0.6172 -0.2199  0.5627
 2951TIP3    H130344   0.012   0.471  16.134  0.7910 -1.1322  0.1228
 2951TIP3    H230345   0.124   0.565  16.098 -0.4340  1.7065  3.1925
 2952TIP3   OH230346   1.937   0.132  13.123 -0.0815  0.0612  0.3265
 2952TIP3    H130347   1.933   0.138  13.219 -1.7047  2.6152  0.2022
 2952TIP3    H230348   2.015   0.182  13.100  0.2299 -0.4354  0.2849
 2953TIP3   OH230349   5.444   1.143   0.247 -0.3951  0.4332 -0.0481
 2953TIP3    H130350   5.372   1.202   0.270  0.0610  0.5370  1.2337
 2953TIP3    H230351   5.403   1.057   0.240 -0.5428  0.3358  1.5774
 2954TIP3   OH230352   3.571   2.847   5.327  0.0601  0.0759  0.3888
 2954TIP3    H130353   3.629   2.814   5.396 -1.0044 -0.2330  1.1629
 2954TIP3    H230354   3.559   2.940   5.348 -1.3783 -0.3130  1.4897
 2955TIP3   OH230355   1.271   4.041  14.303  0.3236 -0.7747 -0.0654
 2955TIP3    H130356   1.318   4.028  14.221  0.7087 -1.8348  0.3084
 2955TIP3    H230357   1.254   3.953  14.336 -4.1910 -0.6522 -1.4108
 2956TIP3   OH230358   0.471   3.699  15.568 -0.2561  0.0745  0.5189
 2956TIP3    H130359   0.456   3.780  15.617 -0.9409  0.9016 -0.9985
 2956TIP3    H230360   0.383   3.664  15.554 -0.1940  0.5293 -1.1953
 2957TIP3   OH230361   1.115   1.948  16.198  0.4006  0.2139 -0.3756
 2957TIP3    H130362   1.028   1.914  16.221  0.0980  0.8470 -0.5621
 2957TIP3    H230363   1.176   1.891  16.245 -0.0249 -1.4137 -1.7292
 2958TIP3   OH230364   3.363   5.349  13.894  0.5776  0.2855 -1.0628
 2958TIP3    H130365   3.432   5.332  13.830  0.6186 -0.2072 -0.8983
 2958TIP3    H230366   3.317   5.265  13.902  0.8950  0.1872 -0.0699
 2959TIP3   OH230367   4.111   6.034  14.646  0.0600 -0.3695  0.8402
 2959TIP3    H130368   4.180   6.047  14.581 -0.3231  0.2995  0.5486
 2959TIP3    H230369   4.105   5.939  14.657 -0.9433 -0.6249 -1.3347
 2960TIP3   OH230370   5.308   6.546  13.016  0.3535  0.1055  0.2562
 2960TIP3    H130371   5.274   6.582  12.934  0.1993  1.0537  0.7230
 2960TIP3    H230372   5.330   6.623  13.068  0.2296 -0.4851  1.1996
 2961TIP3   OH230373   1.034   5.290  17.010 -0.5657 -0.3648 -0.0363
 2961TIP3    H130374   0.946   5.313  16.978  0.6276  2.6293 -1.5930
 2961TIP3    H230375   1.058   5.212  16.959 -1.9414 -0.6481 -0.2968
 2962TIP3   OH230376   0.393   1.421   5.346 -0.5202  0.5114  0.4702
 2962TIP3    H130377   0.461   1.445   5.283  0.0044 -2.1924 -0.1516
 2962TIP3    H230378   0.360   1.504   5.380  2.9286  1.9905  0.6397
 2963TIP3   OH230379   3.690   2.041  13.215 -0.4252  0.4490  0.2633
 2963TIP3    H130380   3.719   1.997  13.296 -2.7032 -0.2798  0.7483
 2963TIP3    H230381   3.737   2.124  13.215  0.7182 -0.1491  1.5773
 2964TIP3   OH230382   2.092   5.515   5.558  0.6692 -0.4334  0.2210
 2964TIP3    H130383   2.109   5.436   5.506 -0.1265 -0.7846  0.4869
 2964TIP3    H230384   2.009   5.548   5.525  0.8546  0.1382  0.3135
 2965TIP3   OH230385   6.670   3.522  12.299  0.1640  0.2372 -0.5991
 2965TIP3    H130386   6.648   3.577  12.374 -0.2367 -0.5735 -0.1057
 2965TIP3    H230387   6.609   3.548  12.230 -0.9596 -0.5198  0.0743
 2966TIP3   OH230388   6.343   3.075  16.381  0.1833 -0.0517  0.1862
 2966TIP3    H130389   6.409   3.093  16.314  1.0373  1.9726  1.4490
 2966TIP3    H230390   6.373   2.995  16.424  0.8691 -0.1089 -0.3824
 2967TIP3   OH230391   5.276   1.143  16.687  0.5716 -0.4382  0.1475
 2967TIP3    H130392   5.242   1.194  16.614  2.0236 -0.0221 -0.2647
 2967TIP3    H230393   5.265   1.200  16.763  1.9336  0.4173 -0.2667
 2968TIP3   OH230394   6.470   2.018  10.651 -0.5448 -0.3610 -0.4164
 2968TIP3    H130395   6.419   2.078  10.596 -0.2443  0.4039  0.1164
 2968TIP3    H230396   6.548   1.998  10.598  1.1530  2.5968  0.7170
 2969TIP3   OH230397   1.631   0.516   5.763 -0.2903 -0.0323 -0.1007
 2969TIP3    H130398   1.701   0.451   5.766  1.0035  1.3290  0.4545
 2969TIP3    H230399   1.564   0.481   5.822  0.4748 -0.7588  0.3604
 2970TIP3   OH230400   2.578   4.291   0.028 -0.5589  0.3157  0.0764
 2970TIP3    H130401   2.562   4.318   0.119 -1.7847  1.6873 -0.5121
 2970TIP3    H230402   2.491   4.283  -0.010 -0.2098 -3.1731 -0.2390
 2971TIP3   OH230403   4.910   1.664   3.750  0.5936  0.1125 -0.2964
 2971TIP3    H130404   4.925   1.754   3.722 -1.2040  0.8576  0.9775
 2971TIP3    H230405   4.864   1.623   3.677 -0.1179  0.7431 -0.2058
 2972TIP3   OH230406   2.612   0.385  13.252 -1.0323 -0.2927  0.4955
 2972TIP3    H130407   2.624   0.470  13.210 -1.5387 -1.1228 -1.4515
 2972TIP3    H230408   2.536   0.347  13.209  0.5329 -2.6945 -0.4094
 2973TIP3   OH230409   3.774   5.597  14.628  0.1619 -0.2006  0.2447
 2973TIP3    H130410   3.830   5.519  14.633 -0.5040 -0.7146 -0.1764
 2973TIP3    H230411   3.685   5.563  14.640 -0.0899  0.5748  0.6465
 2974TIP3   OH230412   1.218   2.708   3.063  0.0189  0.0028 -0.7602
 2974TIP3    H130413   1.190   2.701   2.972  1.8322 -1.0138 -1.2962
 2974TIP3    H230414   1.261   2.793   3.069  1.4067 -0.6261 -1.3472
 2975TIP3   OH230415   0.072   5.226   0.512  0.3183  0.3280  0.5832
 2975TIP3    H130416   0.164   5.242   0.493  0.0881  0.2267 -0.6715
 2975TIP3    H230417   0.057   5.136   0.485 -0.2994  0.5402  0.2038
 2976TIP3   OH230418   5.613   4.707   4.830  0.2618 -0.0229 -0.1498
 2976TIP3    H130419   5.534   4.657   4.849  1.3050 -1.4535  0.6393
 2976TIP3    H230420   5.595   4.750   4.746 -1.2791 -0.4118 -0.0467
 2977TIP3   OH230421   4.630   3.223  11.460  0.8164 -0.2125 -0.5851
 2977TIP3    H130422   4.638   3.149  11.521 -0.5746 -0.2613 -0.4248
 2977TIP3    H230423   4.717   3.264  11.461  0.7272  0.0522  1.7857
 2978TIP3   OH230424   3.520   3.388   2.238  0.4055  0.4007 -1.0705
 2978TIP3    H130425   3.442   3.333   2.246  1.8989 -1.6908  0.0317
 2978TIP3    H230426   3.487   3.477   2.249 -1.5889 -0.5116  1.5855
 2979TIP3   OH230427   2.154   0.992  11.489 -0.0149 -0.1728  0.4687
 2979TIP3    H130428   2.114   0.922  11.438  0.6889 -1.4211  1.5709
 2979TIP3    H230429   2.199   1.046  11.424 -1.5676 -0.0205 -0.5316
 2980TIP3   OH230430   5.466   6.265   4.992  0.2405 -0.4131  0.1934
 2980TIP3    H130431   5.449   6.356   5.018  0.8408 -0.2063 -0.1259
 2980TIP3    H230432   5.471   6.217   5.075 -1.2463 -0.3779  0.3317
 2981TIP3   OH230433   3.161   4.737   6.247  0.2137  0.0614 -0.3007
 2981TIP3    H130434   3.169   4.831   6.231  1.3335 -0.2265 -1.5470
 2981TIP3    H230435   3.238   4.714   6.298 -0.1278 -0.1644  0.1208
 2982TIP3   OH230436   2.991   2.940  12.015 -0.2431  0.0024 -0.1218
 2982TIP3    H130437   3.055   2.903  11.954  0.6188 -2.3396  2.0438
 2982TIP3    H230438   3.044   2.993  12.075 -0.4444 -1.1288  1.0756
 2983TIP3   OH230439   1.497   1.845   0.211 -0.2904 -0.3886 -0.2786
 2983TIP3    H130440   1.444   1.871   0.286 -1.1677  1.2967 -1.4117
 2983TIP3    H230441   1.581   1.819   0.249 -0.9220 -0.2066  1.3229
 2984TIP3   OH230442   1.117   3.405   3.110 -0.2621  0.4889  0.1467
 2984TIP3    H130443   1.039   3.357   3.139  0.4765 -1.1399 -0.4320
 2984TIP3    H230444   1.183   3.386   3.176  0.4570 -0.5499 -0.8145
 2985TIP3   OH230445   4.231   0.204  11.712  0.2023 -0.3604 -0.5220
 2985TIP3    H130446   4.254   0.282  11.661  0.0990  0.8952  1.2624
 2985TIP3    H230447   4.293   0.203  11.784 -1.7756 -0.0567  1.2850
 2986TIP3   OH230448   3.511   4.522  13.106 -0.5256 -0.3399 -0.3378
 2986TIP3    H130449   3.559   4.603  13.122  0.4532 -0.7772 -0.9861
 2986TIP3    H230450   3.536   4.496  13.018 -1.3975 -0.9670 -0.4072
 2987TIP3   OH230451   6.249   4.231  16.526  0.1059 -0.2128  0.1104
 2987TIP3    H130452   6.226   4.203  16.438 -1.3056  1.4159 -0.1017
 2987TIP3    H230453   6.337   4.268  16.518  1.5693 -3.3608  0.1972
 2988TIP3   OH230454   1.244   4.212  11.542  0.4265 -0.1834 -0.1773
 2988TIP3    H130455   1.152   4.203  11.568  0.4038 -1.2209 -0.5627
 2988TIP3    H230456   1.275   4.122  11.532  1.7569  0.1210  0.8526
 2989TIP3   OH230457   5.472   4.212  11.608  0.4471 -0.4355 -0.0887
 2989TIP3    H130458   5.422   4.191  11.530 -1.9525  1.9218  0.6873
 2989TIP3    H230459   5.436   4.156  11.676 -0.2892  0.3480  0.1821
 2990TIP3   OH230460   2.991   4.961   3.428  0.0037  0.1746  0.0587
 2990TIP3    H130461   2.926   5.029   3.412  0.1120  0.6758  1.6191
 2990TIP3    H230462   3.063   4.982   3.368 -1.2399 -0.4365 -1.7425
 2991TIP3   OH230463   1.088   6.250  12.231  0.8144 -0.9510  0.5875
 2991TIP3    H130464   1.121   6.169  12.193 -0.9417 -0.9068 -1.2229
 2991TIP3    H230465   0.992   6.241  12.226  0.5749  0.8913  1.0954
 2992TIP3   OH230466   3.341   3.548   3.167  0.0189  0.2378  0.5077
 2992TIP3    H130467   3.312   3.509   3.084 -0.3892 -0.0449  0.7789
 2992TIP3    H230468   3.436   3.552   3.159  0.1611 -1.7023  0.8466
 2993TIP3   OH230469   6.204   5.034   6.062  0.1711  0.3637  0.2201
 2993TIP3    H130470   6.247   5.089   6.128 -2.2488  0.2207  2.0565
 2993TIP3    H230471   6.215   4.945   6.094  1.7120 -0.0422 -1.3122
 2994TIP3   OH230472   0.804   0.827   2.847 -0.1138 -0.0571 -0.1982
 2994TIP3    H130473   0.716   0.797   2.824 -1.1547  0.9025  2.1841
 2994TIP3    H230474   0.822   0.784   2.931 -0.5800  3.5803  2.0217
 2995TIP3   OH230475   1.319   1.896   6.062 -0.1882  0.2769  0.2594
 2995TIP3    H130476   1.333   1.838   5.987 -1.1375  0.1095  0.1980
 2995TIP3    H230477   1.379   1.864   6.129 -0.2944 -0.4159  0.0328
 2996TIP3   OH230478   4.975   1.086  11.403 -0.0865 -0.2151  0.3398
 2996TIP3    H130479   4.906   1.145  11.370 -0.6739 -0.8578  0.3963
 2996TIP3    H230480   4.978   1.015  11.338  0.3291 -0.3325  0.4884
 2997TIP3   OH230481   3.733   4.500   4.812  0.5388  0.3670  0.1342
 2997TIP3    H130482   3.656   4.508   4.756 -0.3273  0.1614  1.2675
 2997TIP3    H230483   3.800   4.463   4.755 -1.3608 -3.4405  0.0815
 2998TIP3   OH230484   0.518   2.381   2.685  1.0723 -0.5157 -0.6644
 2998TIP3    H130485   0.435   2.363   2.639 -0.2586  2.0699  0.5324
 2998TIP3    H230486   0.548   2.464   2.647  2.5409 -0.8535 -0.2721
 2999TIP3   OH230487   4.835   4.841  15.627  0.4046  0.3303  0.0514
 2999TIP3    H130488   4.854   4.901  15.554 -0.0048  0.3597 -0.0311
 2999TIP3    H230489   4.763   4.883  15.674  0.7723  0.3935  0.5694
 3000TIP3   OH230490   0.394   2.988   1.222 -0.6119 -0.1260 -0.0791
 3000TIP3    H130491   0.429   3.006   1.310 -0.8562  1.2363 -0.2396
 3000TIP3    H230492   0.453   2.921   1.187 -0.8157 -1.0827  1.3033
 3001TIP3   OH230493   6.683   3.183   5.540 -0.3174 -0.6126 -0.3461
 3001TIP3    H130494   6.747   3.120   5.572 -0.3221  0.4488  1.9224
 3001TIP3    H230495   6.725   3.268   5.552 -1.6198  0.0170 -0.0639
 3002TIP3   OH230496   1.063   3.918   4.988  0.2530  0.6311  0.5140
 3002TIP3    H130497   1.046   3.941   4.896  1.5821 -0.5353 -0.0599
 3002TIP3    H230498   0.999   3.970   5.037 -2.2045 -0.5664 -1.1966
 3003TIP3   OH230499   2.995   6.831  12.387  0.0575  0.0558 -0.0730
 3003TIP3    H130500   3.031   6.855  12.302 -0.5012 -0.9087 -0.5997
 3003TIP3    H230501   2.916   6.780  12.366  0.3596 -0.8974  0.9912
 3004TIP3   OH230502   0.713   3.264   1.963 -0.0438 -0.3655  0.6480
 3004TIP3    H130503   0.782   3.198   1.949  1.9339  1.3039  1.9558
 3004TIP3    H230504   0.675   3.240   2.047  0.4676 -0.0530  0.9771
 3005TIP3   OH230505   3.913   3.841  11.122 -0.6627  0.2036 -0.3494
 3005TIP3    H130506   3.913   3.782  11.047 -2.5144  1.2676 -1.2652
 3005TIP3    H230507   3.912   3.929  11.083 -0.4349  0.7975  0.9389
 3006TIP3   OH230508   5.939   4.938  13.134 -0.1055 -0.1131 -0.0939
 3006TIP3    H130509   5.867   4.998  13.115 -1.0996 -1.7218 -1.8145
 3006TIP3    H230510   5.982   4.975  13.211 -1.9686  1.6046  0.2090
 3007TIP3   OH230511   0.460   1.082  10.597  0.3300  0.1047  0.0622
 3007TIP3    H130512   0.470   1.070  10.692  0.5701  1.6245  0.2499
 3007TIP3    H230513   0.387   1.024  10.574  0.7858 -0.8965  1.0202
 3008TIP3   OH230514   0.151   1.946   1.487 -0.2278 -0.0874 -0.1883
 3008TIP3    H130515   0.097   1.869   1.471  0.3063 -0.7725  1.1267
 3008TIP3    H230516   0.120   1.980   1.571  0.4558  0.2971 -0.0821
 3009TIP3   OH230517   1.004   3.331  15.074  0.4296 -0.2024  0.0633
 3009TIP3    H130518   1.004   3.413  15.123  2.4752  0.1286 -0.3738
 3009TIP3    H230519   0.940   3.344  15.004  1.1081  1.2568 -0.3191
 3010TIP3   OH230520   3.833   1.494  11.622 -0.1651  0.5958  0.3787
 3010TIP3    H130521   3.782   1.464  11.698 -0.0107  0.4396  0.4222
 3010TIP3    H230522   3.831   1.420  11.561  0.4784  0.3740  0.6168
 3011TIP3   OH230523   2.276   3.307   5.629  0.0987 -0.5231  0.3110
 3011TIP3    H130524   2.265   3.257   5.710  1.4330 -1.1284  0.1517
 3011TIP3    H230525   2.350   3.366   5.646 -0.9974  0.9085  0.2474
 3012TIP3   OH230526   2.400   1.670   0.591  0.2272 -0.3280 -0.1145
 3012TIP3    H130527   2.383   1.680   0.685  1.4173  1.7936 -0.0611
 3012TIP3    H230528   2.489   1.635   0.586  0.6913  0.8200 -0.4054
 3013TIP3   OH230529   2.309   3.066   1.028 -0.5732  0.0748 -0.0511
 3013TIP3    H130530   2.263   3.027   0.954 -0.9365  0.3295  0.0350
 3013TIP3    H230531   2.339   2.992   1.081 -1.5909 -0.0813  0.3191
 3014TIP3   OH230532   6.632   0.848   4.069  0.5131 -0.4684 -0.8884
 3014TIP3    H130533   6.722   0.881   4.063  0.0797  1.0841  0.5002
 3014TIP3    H230534   6.640   0.765   4.115  1.3984 -1.2995 -2.4459
 3015TIP3   OH230535   0.677   1.135  11.369  0.0676 -0.8369  0.2803
 3015TIP3    H130536   0.603   1.127  11.309  0.7681  0.1134 -0.7465
 3015TIP3    H230537   0.664   1.220  11.411  0.3417 -0.8609  0.4114
 3016TIP3   OH230538   3.402   1.543  12.094 -0.2727 -0.6072 -0.0848
 3016TIP3    H130539   3.474   1.590  12.137  1.4823 -4.1603  1.2380
 3016TIP3    H230540   3.325   1.564  12.145  0.7939 -0.5376  1.5581
 3017TIP3   OH230541   1.601   0.791  12.724 -0.1134 -0.7840  0.4826
 3017TIP3    H130542   1.550   0.844  12.663  0.0432  1.0483  1.8542
 3017TIP3    H230543   1.678   0.763  12.674 -0.5423 -0.2801 -0.4761
 3018TIP3   OH230544   2.218   5.213  15.884 -0.7401 -0.5031 -0.2867
 3018TIP3    H130545   2.251   5.151  15.949  0.8842 -0.0479 -0.6423
 3018TIP3    H230546   2.296   5.253  15.847 -1.7250  1.5225 -0.3004
 3019TIP3   OH230547   4.554   2.029  12.591 -0.0241  0.3288 -0.0203
 3019TIP3    H130548   4.460   2.029  12.606  0.2139  0.8262  1.6487
 3019TIP3    H230549   4.591   2.077  12.665  1.5508  0.1272 -0.6223
 3020TIP3   OH230550   4.254   1.115  11.628  0.0404 -0.3994 -0.0783
 3020TIP3    H130551   4.301   1.091  11.548 -0.8158 -0.1157 -0.6758
 3020TIP3    H230552   4.319   1.104  11.698  1.6035  1.7475 -1.0774
 3021TIP3   OH230553   5.939   4.115  11.460  0.1936 -0.2145 -0.4331
 3021TIP3    H130554   5.925   4.116  11.366  1.0806 -3.1511 -0.6829
 3021TIP3    H230555   6.010   4.178  11.475  1.5328 -1.2664 -2.0517
 3022TIP3   OH230556   2.733   3.878  14.756 -0.3977  0.1263  0.2395
 3022TIP3    H130557   2.659   3.924  14.795  0.2099  0.6049  0.8588
 3022TIP3    H230558   2.783   3.947  14.712 -0.5345 -0.2569 -0.5360
 3023TIP3   OH230559   0.061   4.171  10.367 -0.2722  0.2340 -0.3675
 3023TIP3    H130560   0.117   4.218  10.429 -1.2525  2.8374 -1.3273
 3023TIP3    H230561   0.121   4.126  10.309  0.6805 -1.1669  1.5842
 3024TIP3   OH230562   2.777   1.117   6.360  0.6013  0.4721  0.0372
 3024TIP3    H130563   2.840   1.081   6.421  1.0495  2.1998  0.6535
 3024TIP3    H230564   2.694   1.076   6.383  1.2392 -0.8316  0.0822
 3025TIP3   OH230565   3.024   4.725  16.842  0.5727 -0.0577 -0.4805
 3025TIP3    H130566   3.005   4.730  16.748  0.1043  1.0325 -0.3421
 3025TIP3    H230567   2.964   4.788  16.882  2.1681  1.0205  0.3334
 3026TIP3   OH230568   4.759   1.271  13.627 -0.2433  0.2929 -0.3881
 3026TIP3    H130569   4.730   1.355  13.590  0.3439 -0.0929 -1.7943
 3026TIP3    H230570   4.855   1.278  13.629 -0.2392  0.1576  0.7791
 3027TIP3   OH230571   4.453   1.108  12.118 -0.1179 -0.2158 -0.1746
 3027TIP3    H130572   4.405   1.190  12.113 -0.6259 -0.5538 -1.1046
 3027TIP3    H230573   4.527   1.127  12.177 -0.6097  0.6954  0.1712
 3028TIP3   OH230574   6.369   6.599   2.927  0.1128 -0.0218 -0.1370
 3028TIP3    H130575   6.384   6.532   2.994 -1.8744  0.0419  0.4487
 3028TIP3    H230576   6.371   6.551   2.844  0.4537 -0.4967  0.1408
 3029TIP3   OH230577   2.741   1.160   3.063 -0.1248  0.8057 -0.4583
 3029TIP3    H130578   2.826   1.126   3.034 -1.0015 -0.3509 -1.7795
 3029TIP3    H230579   2.753   1.174   3.157  1.5369  0.7068 -0.6159
 3030TIP3   OH230580   0.333   1.536  13.238  0.2689  0.5943 -0.1710
 3030TIP3    H130581   0.301   1.624  13.222  1.4618  0.7890 -1.8458
 3030TIP3    H230582   0.371   1.509  13.154  0.2662 -1.3635  0.4048
 3031TIP3   OH230583   5.478   6.760  10.364 -0.4149 -0.2407 -0.1169
 3031TIP3    H130584   5.403   6.702  10.369 -0.6370  0.0442 -0.0793
 3031TIP3    H230585   5.513   6.762  10.453 -1.3270  0.8690  0.2479
 3032TIP3   OH230586   2.864   2.887   0.701 -0.6903 -0.6067  0.1174
 3032TIP3    H130587   2.786   2.875   0.755  0.0630  0.0515  1.4072
 3032TIP3    H230588   2.857   2.977   0.668 -0.8927 -0.8364 -0.4809
 3033TIP3   OH230589   4.693   5.612  15.278  1.0564 -0.1467  0.2832
 3033TIP3    H130590   4.771   5.645  15.322 -0.4113  1.4564  1.8640
 3033TIP3    H230591   4.663   5.540  15.334  0.9991 -0.2888  0.0708
 3034TIP3   OH230592   4.795   5.864   4.858 -0.1715 -0.2179  0.2408
 3034TIP3    H130593   4.755   5.778   4.869 -1.5119  0.4371  0.6780
 3034TIP3    H230594   4.821   5.867   4.766  1.2914 -1.6540  0.5728
 3035TIP3   OH230595   2.800   4.717   4.255  0.2237  0.4364 -0.4105
 3035TIP3    H130596   2.750   4.708   4.337 -0.0387 -1.1779 -0.7158
 3035TIP3    H230597   2.766   4.798   4.216 -1.4731 -0.0942 -0.1300
 3036TIP3   OH230598   3.897   4.444  11.950  0.3249  0.1255 -0.1450
 3036TIP3    H130599   3.874   4.529  11.987  2.0675 -0.3564  2.2459
 3036TIP3    H230600   3.814   4.410  11.915 -1.0405  1.5132  1.5528
 3037TIP3   OH230601   3.571   6.488   6.128  0.4016 -0.0584 -0.5714
 3037TIP3    H130602   3.483   6.486   6.165  0.4565  0.9944 -0.3622
 3037TIP3    H230603   3.572   6.565   6.071  1.1559 -0.1046 -0.6355
 3038TIP3   OH230604   4.012   4.143   2.918 -0.6867  0.2564 -0.0297
 3038TIP3    H130605   3.918   4.151   2.931 -0.8964  2.7051 -2.1775
 3038TIP3    H230606   4.022   4.117   2.827  0.7521 -1.9633  0.6869
 3039TIP3   OH230607   5.706   5.164   4.298 -0.4065 -0.2035 -0.2641
 3039TIP3    H130608   5.741   5.249   4.324 -0.3510 -0.6716  1.2983
 3039TIP3    H230609   5.733   5.153   4.207 -0.0809  1.2662 -0.3623
 3040TIP3   OH230610   0.447   2.278   2.135  0.1792 -0.2844  0.4709
 3040TIP3    H130611   0.369   2.224   2.123  0.5845 -1.3601  2.1928
 3040TIP3    H230612   0.432   2.356   2.082 -0.9249 -1.5947 -1.2393
 3041TIP3   OH230613   4.842   1.158   5.570 -0.2838  0.3294  0.0841
 3041TIP3    H130614   4.751   1.164   5.600 -0.2915  0.1102  0.1078
 3041TIP3    H230615   4.850   1.069   5.537 -0.7051  0.9953 -1.9920
 3042TIP3   OH230616   3.737   5.236   0.630 -0.4600 -0.3353 -0.6396
 3042TIP3    H130617   3.675   5.308   0.640 -0.8160 -0.6539 -0.4881
 3042TIP3    H230618   3.796   5.244   0.705  1.0739  1.2841 -1.9602
 3043TIP3   OH230619   3.457   1.956  14.534  0.1391 -0.3641  0.2495
 3043TIP3    H130620   3.502   1.874  14.513 -1.0433 -0.8667 -0.4204
 3043TIP3    H230621   3.399   1.971  14.460  1.6451  2.0737 -0.5537
 3044TIP3   OH230622   6.219   2.513   6.179 -0.1784  0.3824  0.4654
 3044TIP3    H130623   6.202   2.422   6.201 -1.6390  0.0950 -1.4848
 3044TIP3    H230624   6.131   2.552   6.171  0.2157  0.9289 -2.4031
 3045TIP3   OH230625   2.296   0.109  16.112 -0.4678  0.5940  0.3846
 3045TIP3    H130626   2.338   0.028  16.141 -0.5438  0.1434 -0.7035
 3045TIP3    H230627   2.325   0.175  16.174  0.6240 -0.0180  0.5438
 3046TIP3   OH230628   3.886   2.107  12.074 -0.5304 -0.1160  0.3386
 3046TIP3    H130629   3.909   2.189  12.118 -0.2916  0.9107 -1.5809
 3046TIP3    H230630   3.798   2.123  12.039 -1.5082 -1.5893  1.9285
 3047TIP3   OH230631   5.473   1.118  10.276  0.1924 -0.1050 -0.0012
 3047TIP3    H130632   5.522   1.103  10.195  1.5595  0.9732  0.5652
 3047TIP3    H230633   5.491   1.210  10.297 -2.3525  0.4282  0.1119
 3048TIP3   OH230634   4.068   4.050   0.678  0.0361  0.4412  0.3187
 3048TIP3    H130635   4.113   4.064   0.762  1.1680 -0.4618 -0.1199
 3048TIP3    H230636   3.998   3.989   0.699  0.0443  0.5529  0.6893
 3049TIP3   OH230637   6.308   0.602   3.556  0.3280 -0.0546 -0.6820
 3049TIP3    H130638   6.323   0.603   3.461  0.3761 -0.0903 -0.6745
 3049TIP3    H230639   6.311   0.510   3.580  1.8817  0.0490 -0.3891
 3050TIP3   OH230640   4.273   3.745  15.298 -0.5299  0.1421  0.3203
 3050TIP3    H130641   4.293   3.654  15.319 -0.8607 -0.3979 -1.5735
 3050TIP3    H230642   4.199   3.740  15.238 -1.7313  1.7637  1.5833
 3051TIP3   OH230643   5.118   0.528   2.076  0.0246 -0.6587  0.2348
 3051TIP3    H130644   5.208   0.507   2.052  0.4684  0.1707  1.1118
 3051TIP3    H230645   5.065   0.459   2.035  1.0649 -1.2228 -0.1807
 3052TIP3   OH230646   3.699   6.436  16.995 -0.1244  0.2034  0.0748
 3052TIP3    H130647   3.703   6.524  17.032  0.6536  0.0654  0.3415
 3052TIP3    H230648   3.677   6.380  17.070 -0.4068  0.1452 -0.0503
 3053TIP3   OH230649   4.477   5.485   0.940  0.0179  0.5434 -0.1421
 3053TIP3    H130650   4.520   5.418   0.888 -2.2455  0.7976 -2.5610
 3053TIP3    H230651   4.483   5.564   0.886 -0.1467  1.4981  1.1915
 3054TIP3   OH230652   3.870   3.722   4.733 -0.3279 -0.6050  0.0961
 3054TIP3    H130653   3.908   3.642   4.696 -1.1690 -1.9973  2.0683
 3054TIP3    H230654   3.779   3.722   4.702 -0.1032  0.1202 -0.6259
 3055TIP3   OH230655   2.215   2.547  15.112  0.3632  0.0172  0.3135
 3055TIP3    H130656   2.205   2.554  15.017 -0.7671 -0.7415  0.3535
 3055TIP3    H230657   2.280   2.613  15.135  0.8070  0.0614 -1.0121
 3056TIP3   OH230658   3.591   1.719  12.223  0.0883 -0.2700 -0.0046
 3056TIP3    H130659   3.587   1.678  12.310  3.2101 -1.5867 -0.3519
 3056TIP3    H230660   3.646   1.796  12.236  0.7599 -0.5977 -0.8146
 3057TIP3   OH230661   1.991   1.314   6.196 -0.4008  0.3879 -0.3166
 3057TIP3    H130662   2.019   1.267   6.275 -0.1444  0.5472 -0.3134
 3057TIP3    H230663   2.066   1.368   6.173 -1.6541  3.0420  1.3470
 3058TIP3   OH230664   1.371   3.133   4.155 -0.0186  0.2485  0.4758
 3058TIP3    H130665   1.429   3.106   4.084  1.8005  1.9213  1.2498
 3058TIP3    H230666   1.349   3.224   4.134  0.3932  0.7051  1.9400
 3059TIP3   OH230667   6.551   5.568   1.095  0.4923  0.4103 -0.0808
 3059TIP3    H130668   6.511   5.638   1.044  1.3823  0.7495 -0.3311
 3059TIP3    H230669   6.587   5.508   1.029  2.0089  1.0570  0.1308
 3060TIP3   OH230670   3.029   1.272   6.413  0.3360 -0.5285  0.0362
 3060TIP3    H130671   2.980   1.354   6.410  0.2757 -0.5885 -1.5750
 3060TIP3    H230672   2.961   1.204   6.414  0.3801 -0.5801 -0.3477
 3061TIP3   OH230673   1.024   4.567   0.154 -0.0957  0.0837  0.5995
 3061TIP3    H130674   1.086   4.637   0.170  1.3372 -1.3204  1.5134
 3061TIP3    H230675   1.072   4.487   0.176 -1.8358 -1.1487  0.1384
 3062TIP3   OH230676   2.220   1.916  11.361  0.3794 -0.5797 -0.1859
 3062TIP3    H130677   2.158   1.967  11.308  0.7144 -2.1533 -2.1785
 3062TIP3    H230678   2.302   1.965  11.355 -0.3715  1.1258  1.8754
 3063TIP3   OH230679   6.221   1.292  16.463  0.4295  0.2578  0.1325
 3063TIP3    H130680   6.286   1.339  16.516  0.2095 -0.0343  0.6674
 3063TIP3    H230681   6.260   1.206  16.448  0.1051  0.0297  0.5821
 3064TIP3   OH230682   0.864   4.026  14.613  0.0460  0.4124 -0.0370
 3064TIP3    H130683   0.794   4.056  14.671 -0.8890  0.0781 -0.9611
 3064TIP3    H230684   0.924   3.979  14.671 -1.1725 -0.4288  0.5887
 3065TIP3   OH230685   2.690   2.922  13.699 -0.6580 -0.0941 -0.3957
 3065TIP3    H130686   2.772   2.944  13.743 -1.7048  0.5297  1.3669
 3065TIP3    H230687   2.667   3.002  13.651 -1.2684  0.5031  0.8429
 3066TIP3   OH230688   1.412   2.713  12.524 -0.8025 -0.1279  0.2654
 3066TIP3    H130689   1.395   2.669  12.607 -0.0559  0.7671  0.9148
 3066TIP3    H230690   1.480   2.777  12.544  1.5223 -1.7839 -1.5982
 3067TIP3   OH230691   3.915   0.057  15.078  0.1941  0.0893  0.0912
 3067TIP3    H130692   3.881   0.118  15.012  1.7690  1.0453  0.1135
 3067TIP3    H230693   4.009   0.074  15.080  0.3584 -0.8301  1.6842
 3068TIP3   OH230694   6.305   0.543  10.908  1.1068 -0.3409 -0.4424
 3068TIP3    H130695   6.377   0.480  10.920  0.6177 -0.9979 -0.8661
 3068TIP3    H230696   6.238   0.513  10.969  0.1379 -1.3657 -1.9512
 3069TIP3   OH230697   4.269   3.131   0.409  0.1528  0.8886 -0.1072
 3069TIP3    H130698   4.328   3.067   0.449  0.5957  0.4638 -1.3945
 3069TIP3    H230699   4.278   3.209   0.464  2.0673  0.9002 -0.3459
 3070TIP3   OH230700   2.171   6.367   6.068  0.6611  0.3216 -0.1798
 3070TIP3    H130701   2.261   6.336   6.079  0.8923  0.2893 -1.8683
 3070TIP3    H230702   2.122   6.324   6.138  1.9922  0.5354  0.9184
 3071TIP3   OH230703   4.273   5.011  16.999 -1.2363  0.0977  0.0673
 3071TIP3    H130704   4.347   4.951  17.012 -0.4962  0.4725 -2.0421
 3071TIP3    H230705   4.289   5.082  17.061  1.8586  1.6464 -2.2596
 3072TIP3   OH230706   5.312   2.828  15.985  0.2711 -0.3351  0.4601
 3072TIP3    H130707   5.363   2.803  16.062  1.3066 -0.1011 -0.1398
 3072TIP3    H230708   5.232   2.775  15.991  0.7269 -0.9463  1.2327
 3073TIP3   OH230709   2.637   4.229  13.098  0.3579  0.2606  0.7225
 3073TIP3    H130710   2.584   4.263  13.025  2.3880  0.3853 -0.7628
 3073TIP3    H230711   2.604   4.140  13.111 -1.1747  0.8093  0.8192
 3074TIP3   OH230712   2.784   4.373  14.542 -0.3330  0.9118 -0.6553
 3074TIP3    H130713   2.753   4.463  14.549 -1.6315  0.4647 -0.2573
 3074TIP3    H230714   2.878   4.379  14.555 -0.5852  2.0413  1.0533
 3075TIP3   OH230715   4.167   5.875   2.108  0.0067  0.2102  0.3298
 3075TIP3    H130716   4.109   5.899   2.180 -0.4088 -0.8150  0.3485
 3075TIP3    H230717   4.158   5.780   2.100 -1.0117  0.4398 -1.9637
 3076TIP3   OH230718   2.544   5.117   2.225 -0.3427  0.1630  0.6030
 3076TIP3    H130719   2.573   5.097   2.136  0.3176  1.0449  0.6072
 3076TIP3    H230720   2.449   5.121   2.219 -0.2289  1.8296 -0.4324
 3077TIP3   OH230721   5.154   0.352  15.283  0.2101  0.5181 -0.5587
 3077TIP3    H130722   5.066   0.317  15.272  0.0090  1.4894 -2.3788
 3077TIP3    H230723   5.184   0.371  15.194  1.7380  1.4633  0.1133
 3078TIP3   OH230724   4.592   0.499  15.393 -0.1565 -0.2858 -0.2492
 3078TIP3    H130725   4.613   0.407  15.382  0.1025 -0.4372  1.2956
 3078TIP3    H230726   4.677   0.543  15.396 -0.2706 -0.0291 -0.6963
 3079TIP3   OH230727   0.062   6.413   0.508  0.0803 -0.2237 -0.1670
 3079TIP3    H130728  -0.003   6.355   0.548  0.5853  0.0883  1.1713
 3079TIP3    H230729   0.057   6.395   0.414 -1.7262 -0.4120 -0.0633
 3080TIP3   OH230730   2.116   0.777   5.509 -0.3771 -0.6688  0.5054
 3080TIP3    H130731   2.163   0.713   5.562  1.4820 -1.1742 -1.5997
 3080TIP3    H230732   2.185   0.823   5.461 -1.8286  1.3364  0.2069
 3081TIP3   OH230733   5.090   3.569  11.033  0.4920 -0.1840 -0.3837
 3081TIP3    H130734   5.059   3.660  11.029  0.9615 -0.0668 -2.7811
 3081TIP3    H230735   5.018   3.522  11.075 -0.0246  1.1597  0.3392
 3082TIP3   OH230736   2.576   0.866  16.458 -0.4782 -0.0275  0.1139
 3082TIP3    H130737   2.546   0.892  16.371 -2.6512  0.7562  1.0357
 3082TIP3    H230738   2.672   0.864  16.451 -0.6047  0.0054 -2.2735
 3083TIP3   OH230739   3.567   1.784   1.327  0.7481 -0.2612 -0.4682
 3083TIP3    H130740   3.556   1.793   1.422  0.2430  0.3124 -0.5725
 3083TIP3    H230741   3.518   1.858   1.291 -1.1236 -1.8265 -1.2963
 3084TIP3   OH230742   4.840   0.005  13.026  0.1588  0.1815  0.0338
 3084TIP3    H130743   4.887  -0.045  12.959  0.7609 -0.2018  0.7240
 3084TIP3    H230744   4.819   0.088  12.983 -1.3274 -0.8244 -1.3099
 3085TIP3   OH230745   0.897   4.926  11.309 -0.2855 -0.0039 -1.1503
 3085TIP3    H130746   0.856   4.999  11.355 -2.0468 -0.3520 -2.0523
 3085TIP3    H230747   0.902   4.856  11.374 -0.1859  0.3756 -0.7488
 3086TIP3   OH230748   1.326   4.761   5.083 -0.1580 -0.2261 -0.7552
 3086TIP3    H130749   1.262   4.807   5.138  0.3791  0.0942 -0.3965
 3086TIP3    H230750   1.293   4.671   5.080 -0.3497 -0.1836 -0.1443
 3087TIP3   OH230751   3.868   6.541  12.743  0.0043  0.8088  0.0229
 3087TIP3    H130752   3.886   6.476  12.675 -1.8260  0.7431 -0.4387
 3087TIP3    H230753   3.894   6.625  12.705  1.4010  0.4956  0.2341
 3088TIP3   OH230754   5.555   6.294  15.543 -0.3480  0.0001 -0.0136
 3088TIP3    H130755   5.546   6.209  15.586 -0.2080 -0.3581 -0.6795
 3088TIP3    H230756   5.594   6.274  15.458  1.5482  0.9141  0.5774
 3089TIP3   OH230757   0.100   6.262  12.706 -0.3303 -0.0073  0.0212
 3089TIP3    H130758   0.025   6.278  12.649  1.1074 -1.4470 -2.4682
 3089TIP3    H230759   0.100   6.167  12.720  2.1449 -0.4224 -1.9392
 3090TIP3   OH230760   5.721   3.611  13.227 -0.0593  0.6882 -0.1462
 3090TIP3    H130761   5.710   3.703  13.200 -0.2452  0.9373  0.7512
 3090TIP3    H230762   5.674   3.561  13.161 -1.1912  1.3416  0.1359
 3091TIP3   OH230763   0.157   4.968   5.561  0.2317 -0.3441 -0.5146
 3091TIP3    H130764   0.251   4.985   5.549  0.2513 -0.2918 -0.2921
 3091TIP3    H230765   0.153   4.878   5.593  0.1754 -0.5070 -0.9777
 3092TIP3   OH230766   5.655   3.207   4.183 -0.8850 -0.4717 -0.1232
 3092TIP3    H130767   5.601   3.269   4.232  0.0995  1.5733 -1.4683
 3092TIP3    H230768   5.594   3.140   4.152 -2.5244  1.3129 -0.9140
 3093TIP3   OH230769   2.869   2.776   2.900 -0.1940  0.2217 -0.8588
 3093TIP3    H130770   2.813   2.727   2.961 -0.9464  0.6020 -1.2256
 3093TIP3    H230771   2.939   2.714   2.878 -0.9601 -0.5996 -1.0748
 3094TIP3   OH230772   1.586   5.574  12.739  0.2593 -0.0779 -0.0091
 3094TIP3    H130773   1.644   5.510  12.698 -1.2806 -1.7976  0.3960
 3094TIP3    H230774   1.636   5.608  12.813  2.3278  1.6454 -2.0336
 3095TIP3   OH230775   0.358   6.752  12.857  0.1243  0.1839 -0.1215
 3095TIP3    H130776   0.269   6.772  12.827 -1.0884 -2.3680  1.4716
 3095TIP3    H230777   0.357   6.770  12.951  2.0837  2.3947 -0.4308
 3096TIP3   OH230778   5.894   4.570  10.706 -0.3729 -0.0377  0.3408
 3096TIP3    H130779   5.892   4.485  10.660 -0.5829 -0.5623  1.2887
 3096TIP3    H230780   5.802   4.592  10.719 -0.3332 -0.7196  1.9592
 3097TIP3   OH230781   6.001   1.855  12.017 -0.0323  0.3165 -0.0237
 3097TIP3    H130782   6.006   1.948  12.037 -1.2547  0.5049 -0.5103
 3097TIP3    H230783   6.092   1.824  12.025  0.4873  1.6525 -0.3947
 3098TIP3   OH230784   1.054   4.528  14.830  0.5089  0.0536 -0.5622
 3098TIP3    H130785   1.140   4.491  14.850  0.5864 -0.8497 -2.4061
 3098TIP3    H230786   0.992   4.460  14.859  0.4813  0.0647 -0.5955
 3099TIP3   OH230787   2.916   4.027   3.311 -0.0836 -0.1519  0.3892
 3099TIP3    H130788   2.962   3.969   3.371 -0.1934 -0.9311 -0.2671
 3099TIP3    H230789   2.985   4.072   3.262 -0.0001  0.2785  0.8849
 3100TIP3   OH230790   5.145   3.235   1.588  0.0815  0.2131  0.0183
 3100TIP3    H130791   5.225   3.234   1.640 -0.7339 -0.1944  1.3023
 3100TIP3    H230792   5.170   3.195   1.504  0.7066 -1.9918  1.1997
 3101TIP3   OH230793   1.946   5.675  14.561  0.6452 -0.3172 -0.6386
 3101TIP3    H130794   1.901   5.751  14.599 -2.2799 -3.3634  2.7176
 3101TIP3    H230795   2.022   5.662  14.617  0.7915 -0.2430 -0.8186
 3102TIP3   OH230796   5.797   4.351  15.390 -0.6595 -0.2052 -0.4620
 3102TIP3    H130797   5.755   4.339  15.475 -0.3809  1.7875  0.0136
 3102TIP3    H230798   5.755   4.429  15.353  1.4868  0.9549 -0.6320
 3103TIP3   OH230799   4.582   4.729   5.982 -0.0207 -0.2024 -0.1161
 3103TIP3    H130800   4.536   4.770   6.056 -0.5907 -1.7546  0.4304
 3103TIP3    H230801   4.575   4.635   5.999 -0.7406 -0.6401 -2.4848
 3104TIP3   OH230802   2.214   4.153   5.236  0.4565  0.5547 -0.4168
 3104TIP3    H130803   2.126   4.187   5.251  0.3001  0.3211 -0.7784
 3104TIP3    H230804   2.222   4.078   5.295  0.2974  0.3935 -0.5946
 3105TIP3   OH230805   0.287   2.799   5.191 -0.0323 -0.5206  0.4283
 3105TIP3    H130806   0.278   2.800   5.095 -0.9921 -0.8971  0.5027
 3105TIP3    H230807   0.376   2.767   5.206 -0.6647 -2.8844 -0.3330
 3106TIP3   OH230808   4.076   4.123   5.867  0.0373  0.4343 -1.3635
 3106TIP3    H130809   4.033   4.054   5.817  3.4621 -1.1046 -2.4586
 3106TIP3    H230810   4.092   4.193   5.803 -0.0130  0.6231 -1.1728
 3107TIP3   OH230811   2.595   2.405   3.297  0.2678 -0.3769  0.0745
 3107TIP3    H130812   2.660   2.361   3.242  1.2619  2.0594 -0.8685
 3107TIP3    H230813   2.570   2.483   3.247  2.1780  2.7299  3.4235
 3108TIP3   OH230814   4.448   6.391  11.953  0.1807 -0.1175 -0.6078
 3108TIP3    H130815   4.510   6.320  11.936 -0.4042 -0.3637 -1.8104
 3108TIP3    H230816   4.416   6.374  12.042  2.5313  0.5904  0.4465
 3109TIP3   OH230817   2.643   0.540   0.678 -0.1502 -0.1641  0.0594
 3109TIP3    H130818   2.671   0.550   0.769  1.2122  2.1228 -0.5334
 3109TIP3    H230819   2.549   0.521   0.683 -0.1657  0.2276  1.9223
 3110TIP3   OH230820   5.975   6.401  12.633 -0.7109  0.1697 -0.1625
 3110TIP3    H130821   6.010   6.460  12.700 -0.1143 -1.3693  0.9322
 3110TIP3    H230822   5.887   6.379  12.663 -1.3236  1.2270 -1.0813
 3111TIP3   OH230823   6.102   5.624  14.524  0.1723  0.9158 -0.0836
 3111TIP3    H130824   6.169   5.581  14.470 -0.6412  1.6699 -1.7915
 3111TIP3    H230825   6.152   5.667  14.593  1.0708 -2.1564  1.3729
 3112TIP3   OH230826   4.770   5.090   5.662  0.4214 -0.5163  0.1195
 3112TIP3    H130827   4.686   5.096   5.708  0.4081 -0.4832  0.0903
 3112TIP3    H230828   4.791   5.181   5.638 -0.1724 -0.6760 -1.0257
 3113TIP3   OH230829   5.397   4.264  13.651  0.6152 -0.3162  0.4092
 3113TIP3    H130830   5.393   4.200  13.721 -0.4056  0.1839  0.8296
 3113TIP3    H230831   5.305   4.288  13.636  0.7354 -0.8982 -1.5441
 3114TIP3   OH230832   6.136   1.554   3.470 -0.1730 -0.3271 -0.0203
 3114TIP3    H130833   6.153   1.543   3.377  0.2387 -0.1113  0.0285
 3114TIP3    H230834   6.192   1.626   3.497 -0.1000 -0.5540  0.4495
 3115TIP3   OH230835   3.444   4.404   3.099  0.3713 -0.4898  0.0038
 3115TIP3    H130836   3.431   4.424   3.191  2.0099  0.8204 -0.0088
 3115TIP3    H230837   3.412   4.314   3.089  0.2918 -0.6981  1.8666
 3116TIP3   OH230838   3.894   0.810   4.306  0.0353  0.1312 -0.3806
 3116TIP3    H130839   3.928   0.755   4.236 -0.1644 -1.1656  0.4911
 3116TIP3    H230840   3.929   0.897   4.288  0.7065 -0.3653 -1.5780
 3117TIP3   OH230841   3.879   5.368   5.590  0.2123  0.0467 -0.2769
 3117TIP3    H130842   3.809   5.338   5.533 -0.8168  1.1678  0.3623
 3117TIP3    H230843   3.924   5.288   5.618 -1.7091 -0.8297  0.4557
 3118TIP3   OH230844   2.206   5.122   3.038  0.5078  0.4180 -0.6792
 3118TIP3    H130845   2.249   5.066   3.102 -1.6768 -0.9034 -0.2503
 3118TIP3    H230846   2.113   5.102   3.048 -0.5999  4.8233  0.1872
 3119TIP3   OH230847   0.226   2.862  16.525  0.0836 -0.4186 -0.6197
 3119TIP3    H130848   0.235   2.880  16.618  0.6394 -0.6222 -0.6339
 3119TIP3    H230849   0.175   2.936  16.491 -3.0171 -1.9145  0.3929
 3120TIP3   OH230850   6.442   2.611   5.964 -0.0330 -0.3880 -0.6950
 3120TIP3    H130851   6.415   2.560   6.041 -0.1524  0.0607 -0.4309
 3120TIP3    H230852   6.488   2.549   5.909  0.7506 -0.5452  0.1086
 3121TIP3   OH230853   0.272   2.464  16.448 -0.4574 -0.1573  0.1786
 3121TIP3    H130854   0.329   2.535  16.477 -0.6789 -0.2287  0.8085
 3121TIP3    H230855   0.203   2.459  16.514 -1.0412 -0.2612 -0.4206
 3122TIP3   OH230856   1.938   2.083   1.040 -0.4832  0.5482  0.2244
 3122TIP3    H130857   2.006   2.148   1.057  0.2017 -0.2117  0.4256
 3122TIP3    H230858   1.984   2.008   1.004 -0.9520 -0.6799  2.0546
 3123TIP3   OH230859   4.317   6.108  14.476  0.3230 -0.0858 -0.6939
 3123TIP3    H130860   4.306   6.193  14.434  0.5459 -0.9555 -2.6505
 3123TIP3    H230861   4.412   6.094  14.480  0.2834 -0.3465 -0.5972
 3124TIP3   OH230862   1.641   1.487  15.733 -0.1949 -0.1333  0.0443
 3124TIP3    H130863   1.623   1.443  15.816 -0.4786 -0.8148 -0.3701
 3124TIP3    H230864   1.652   1.416  15.670 -2.3359  0.3540 -0.9845
 3125TIP3   OH230865   3.091   5.968  10.590  0.0513 -0.7438 -0.0146
 3125TIP3    H130866   3.146   5.946  10.665 -0.2105 -0.1096  0.3766
 3125TIP3    H230867   3.153   5.998  10.523  0.1671  0.7840  0.7117
 3126TIP3   OH230868   6.595   1.045   2.419  0.3920 -0.0741 -0.4979
 3126TIP3    H130869   6.655   1.117   2.437  0.9325 -0.0306 -2.2538
 3126TIP3    H230870   6.523   1.086   2.370 -0.8134 -0.2264  1.0794
 3127TIP3   OH230871   5.533   5.611   4.914  0.2604  0.1690  0.1145
 3127TIP3    H130872   5.489   5.681   4.866  0.2425  0.5337  0.6587
 3127TIP3    H230873   5.602   5.581   4.855 -0.2009  0.1368 -0.4171
 3128TIP3   OH230874   2.351   3.868  16.522 -0.1977 -0.7209  0.2617
 3128TIP3    H130875   2.374   3.782  16.489 -0.5970 -0.6720 -0.1555
 3128TIP3    H230876   2.400   3.877  16.604 -1.0119 -1.7823  0.8746
 3129TIP3   OH230877   0.280   3.180   1.599 -0.0297 -0.1341 -0.3792
 3129TIP3    H130878   0.362   3.177   1.548  0.7130 -1.4481  0.8143
 3129TIP3    H230879   0.211   3.176   1.533  0.8635  0.4143 -1.3900
 3130TIP3   OH230880   0.883   6.762   0.504 -0.0995  0.2062  0.1691
 3130TIP3    H130881   0.839   6.797   0.427  0.1458 -0.4002 -0.2506
 3130TIP3    H230882   0.972   6.796   0.498  0.0576 -0.2551 -0.0817
 3131TIP3   OH230883   5.654   1.961  13.025  0.1495 -0.0087 -0.1854
 3131TIP3    H130884   5.629   1.871  13.045 -0.3795  0.3752  0.9677
 3131TIP3    H230885   5.714   1.953  12.951 -0.9013 -1.1974 -0.9522
 3132TIP3   OH230886   1.735   0.816  11.274  0.6590  0.3784  0.2606
 3132TIP3    H130887   1.711   0.908  11.280 -1.1685 -0.0469 -0.0080
 3132TIP3    H230888   1.664   0.769  11.317  0.4887 -1.0255 -1.4312
 3133TIP3   OH230889   1.797   1.612   3.615  0.0615  0.0788 -0.0554
 3133TIP3    H130890   1.890   1.624   3.594 -0.0972  0.4758 -0.5417
 3133TIP3    H230891   1.796   1.594   3.709  0.5342  1.4319  0.2431
 3134TIP3   OH230892   2.877   6.828   3.394 -0.0095  0.1026 -0.1041
 3134TIP3    H130893   2.947   6.770   3.424 -0.1907 -0.5861 -0.9746
 3134TIP3    H230894   2.883   6.826   3.298 -0.7342  0.6474 -0.1744
 3135TIP3   OH230895   1.222   0.297   0.198 -0.0283 -0.3253  0.1953
 3135TIP3    H130896   1.314   0.309   0.172 -0.0945  0.0347  0.1200
 3135TIP3    H230897   1.224   0.222   0.258  0.0665 -1.4269 -1.1527
 3136TIP3   OH230898   3.245   4.830  12.327 -0.3031  0.6995 -0.5486
 3136TIP3    H130899   3.270   4.852  12.238  0.8492  0.3343 -0.3335
 3136TIP3    H230900   3.327   4.809  12.371 -1.1145 -3.0188 -0.4675
 3137TIP3   OH230901   0.645   0.981   5.489  0.0465 -0.0453 -0.3311
 3137TIP3    H130902   0.582   0.984   5.417 -0.0710 -0.3596 -0.2430
 3137TIP3    H230903   0.606   0.921   5.552  0.5570 -0.4613 -0.3970
 3138TIP3   OH230904   6.367   5.305  16.489  0.0882  0.5337  0.2156
 3138TIP3    H130905   6.354   5.251  16.411 -1.0274  1.1389 -0.0367
 3138TIP3    H230906   6.396   5.243  16.556 -0.1942 -0.2080 -0.3294
 3139TIP3   OH230907   0.746   2.268   3.391  0.4226 -0.4764 -0.0334
 3139TIP3    H130908   0.692   2.208   3.441  0.3553 -0.6451 -0.3049
 3139TIP3    H230909   0.688   2.304   3.324  0.5004 -0.2239  0.0345
 3140TIP3   OH230910   6.745   6.806  12.192 -0.1764  0.2186 -0.8945
 3140TIP3    H130911   6.793   6.844  12.267 -0.8527  0.5768 -0.6390
 3140TIP3    H230912   6.752   6.873  12.124 -1.3649  0.8328 -0.4461
 3141TIP3   OH230913   0.599   0.431   4.630  0.1689  0.1000 -0.0238
 3141TIP3    H130914   0.678   0.477   4.602 -1.1150  2.7187  0.3199
 3141TIP3    H230915   0.578   0.373   4.556  1.9027 -0.0088 -0.4691
 3142TIP3   OH230916   4.869   2.650  16.619  0.1519 -0.1733  0.7779
 3142TIP3    H130917   4.872   2.579  16.683 -1.1133  0.5678  1.6956
 3142TIP3    H230918   4.958   2.687  16.620  0.6298 -1.2812  0.7800
 3143TIP3   OH230919   6.023   2.037  16.178 -0.0207  0.4152 -0.8853
 3143TIP3    H130920   6.040   2.068  16.267 -0.0505 -2.3010  0.1629
 3143TIP3    H230921   5.952   2.093  16.146 -1.8005 -0.1009  1.8116
 3144TIP3   OH230922   4.182   0.624  11.082 -0.2412  0.0452 -0.4028
 3144TIP3    H130923   4.215   0.579  11.004  1.1932 -0.8287  0.6514
 3144TIP3    H230924   4.171   0.555  11.147  0.6752  0.9920  0.8318
 3145TIP3   OH230925   3.717   5.938   5.082  0.3858 -0.1429  0.0881
 3145TIP3    H130926   3.656   6.000   5.041  0.4777  0.8917  1.4438
 3145TIP3    H230927   3.700   5.855   5.038  0.6856  0.9450 -2.2328
 3146TIP3   OH230928   1.652   3.262  13.490 -0.4610  0.1081  0.3001
 3146TIP3    H130929   1.722   3.283  13.552 -0.9158 -0.4661  1.0103
 3146TIP3    H230930   1.667   3.322  13.417  2.1729 -1.4545 -0.6308
 3147TIP3   OH230931   5.137   0.026   6.405  0.0071 -0.4876  0.0093
 3147TIP3    H130932   5.120   0.084   6.479  1.6286 -0.1204  0.1323
 3147TIP3    H230933   5.098  -0.058   6.430 -0.7163  0.0275  0.6467
 3148TIP3   OH230934   4.625   4.590   2.127 -0.7610 -0.1689  0.3382
 3148TIP3    H130935   4.641   4.501   2.159 -0.1979 -0.8728 -1.6807
 3148TIP3    H230936   4.599   4.640   2.204  1.4206 -1.4614  2.0259
 3149TIP3   OH230937   6.449   3.033   0.192 -0.2000  0.0243  0.2424
 3149TIP3    H130938   6.443   3.114   0.242 -0.0561 -0.1992  0.6225
 3149TIP3    H230939   6.358   3.004   0.183 -0.7361  2.1468 -3.1109
 3150TIP3   OH230940   5.537   5.139  14.708  0.2980 -0.5104  0.3707
 3150TIP3    H130941   5.557   5.208  14.770 -0.3375 -0.7602  0.8652
 3150TIP3    H230942   5.540   5.182  14.622  0.7449 -0.0685  0.6019
 3151TIP3   OH230943   2.173   1.826  14.757  0.2730 -0.1217 -0.1140
 3151TIP3    H130944   2.087   1.860  14.731  0.2049  0.0082  0.2718
 3151TIP3    H230945   2.203   1.887  14.824  1.1085  0.4046 -0.9358
 3152TIP3   OH230946   0.145   0.677   5.139 -0.0973 -0.3814  0.4466
 3152TIP3    H130947   0.231   0.670   5.098  0.6201 -2.2101  2.0550
 3152TIP3    H230948   0.162   0.659   5.232 -2.0023  0.8918  1.0946
 3153TIP3   OH230949   0.157   4.827  13.782  0.4855  0.2094  0.4248
 3153TIP3    H130950   0.123   4.752  13.832  0.4706  0.3027  0.5539
 3153TIP3    H230951   0.244   4.799  13.754  1.5380  1.0799  2.5986
 3154TIP3   OH230952   0.299   6.693   1.307  0.3586  0.0733 -0.7306
 3154TIP3    H130953   0.292   6.664   1.398 -0.6729 -1.1781 -1.1708
 3154TIP3    H230954   0.212   6.674   1.269  0.7539  0.6002 -1.9640
 3155TIP3   OH230955   5.381   2.356  16.743  0.2818  0.4155 -0.3023
 3155TIP3    H130956   5.431   2.384  16.820  1.6492 -1.4177 -0.4642
 3155TIP3    H230957   5.293   2.341  16.778  0.5164  0.9925  0.5950
 3156TIP3   OH230958   0.047   6.798   3.449 -0.0054 -0.4569 -0.2147
 3156TIP3    H130959   0.016   6.726   3.505  2.6095  1.3880  4.1515
 3156TIP3    H230960   0.116   6.759   3.397  0.8421 -1.3977  1.5013
 3157TIP3   OH230961   4.705   4.776  11.214 -0.5361 -0.0733  0.4557
 3157TIP3    H130962   4.640   4.734  11.157 -1.6869  1.3357  0.6831
 3157TIP3    H230963   4.713   4.717  11.289  0.9085 -1.9047 -1.0323
 3158TIP3   OH230964   5.398   4.976   0.912  0.1931  0.1575  1.0909
 3158TIP3    H130965   5.368   5.066   0.898  0.4714 -0.1386 -2.2980
 3158TIP3    H230966   5.491   4.977   0.886 -0.0725 -1.2569 -0.0855
 3159TIP3   OH230967   4.877   0.483   2.870 -0.2677  0.1260  0.2233
 3159TIP3    H130968   4.902   0.407   2.923  1.7552  0.5142 -0.0783
 3159TIP3    H230969   4.833   0.542   2.931 -2.2142 -1.3800  0.3916
 3160TIP3   OH230970   0.414   4.972   5.352 -0.3670 -0.1049  0.2972
 3160TIP3    H130971   0.416   5.061   5.317  0.8089  0.0512  0.7412
 3160TIP3    H230972   0.407   4.983   5.446 -2.8056 -0.5251  0.2379
 3161TIP3   OH230973   4.378   2.324  13.094  0.1818  0.3804  0.2947
 3161TIP3    H130974   4.449   2.310  13.156  0.0527  0.6721  0.5131
 3161TIP3    H230975   4.422   2.340  13.010  0.5273  3.1634  0.8913
 3162TIP3   OH230976   5.269   1.431   2.105 -0.6665 -0.6028 -0.0625
 3162TIP3    H130977   5.262   1.370   2.179 -0.6959  0.1296  0.5513
 3162TIP3    H230978   5.253   1.377   2.028 -0.7456 -1.3616  0.4726
 3163TIP3   OH230979   2.520   4.338  10.693  0.0240  0.2610 -0.0426
 3163TIP3    H130980   2.519   4.359  10.600  0.1567  0.4657 -0.0002
 3163TIP3    H230981   2.557   4.416  10.734  0.9530 -0.2225  0.0784
 3164TIP3   OH230982   0.333   3.810  13.025 -0.3351  0.2438  0.0941
 3164TIP3    H130983   0.361   3.750  12.956 -2.0603 -0.7634  0.2073
 3164TIP3    H230984   0.250   3.846  12.993 -1.2112 -0.2999  1.6472
 3165TIP3   OH230985   4.347   6.771   6.404 -0.3073 -0.2756  0.4346
 3165TIP3    H130986   4.254   6.790   6.391  0.1022  0.1330 -2.5773
 3165TIP3    H230987   4.374   6.730   6.322  1.8024 -2.0827  1.9154
 3166TIP3   OH230988   2.323   2.530  12.502  0.5419 -0.4752  0.0727
 3166TIP3    H130989   2.374   2.563  12.576  2.1938 -0.5428 -0.9740
 3166TIP3    H230990   2.296   2.609  12.455  0.5195 -0.4641  0.1046
 3167TIP3   OH230991   1.941   6.290  13.272 -0.0945 -0.3847 -0.2136
 3167TIP3    H130992   2.022   6.341  13.276  0.3931 -1.2255  1.9929
 3167TIP3    H230993   1.933   6.265  13.180  1.5748  0.6201 -0.6757
 3168TIP3   OH230994   3.797   4.376  14.444 -0.1374 -0.0382  0.5373
 3168TIP3    H130995   3.869   4.439  14.436  1.0093 -1.3011  0.4954
 3168TIP3    H230996   3.783   4.345  14.355 -1.5513  1.0374  0.3583
 3169TIP3   OH230997   5.537   1.702  13.050 -0.1439  0.0087 -0.0057
 3169TIP3    H130998   5.531   1.632  13.115  0.2546  0.0688  0.0951
 3169TIP3    H230999   5.449   1.741  13.050  0.2656  1.0572  1.6971
 3170TIP3   OH231000   2.527   3.372  11.271 -0.2099  0.0744  0.1838
 3170TIP3    H131001   2.598   3.319  11.307 -1.2624 -1.2402  0.4103
 3170TIP3    H231002   2.452   3.352  11.327 -1.3804 -0.4555 -1.5224
 3171TIP3   OH231003   4.611   6.258   6.280 -0.3664  0.0416 -0.0033
 3171TIP3    H131004   4.520   6.239   6.303  0.3581 -1.0785  2.1914
 3171TIP3    H231005   4.635   6.189   6.218 -0.3605 -1.0622  1.1896
 3172TIP3   OH231006   5.876   2.658  14.734 -0.2005  0.1242 -0.0587
 3172TIP3    H131007   5.845   2.613  14.813  0.0237 -1.1102 -0.6541
 3172TIP3    H231008   5.967   2.681  14.754 -0.0246 -0.5257 -0.0866
 3173TIP3   OH231009   4.777   5.861  15.475 -0.2679 -0.4483 -0.0019
 3173TIP3    H131010   4.783   5.937  15.417 -2.7952  1.2041  1.7109
 3173TIP3    H231011   4.868   5.840  15.496  0.5519  1.9798 -0.7520
 3174TIP3   OH231012   2.295   1.995  13.383  0.0819  0.7102  0.0791
 3174TIP3    H131013   2.253   2.032  13.305  0.8585  2.6227  0.5274
 3174TIP3    H231014   2.326   2.070  13.432  2.1190 -0.5421  0.8498
 3175TIP3   OH231015   2.198   3.923  13.847  0.1856  0.2822  0.0087
 3175TIP3    H131016   2.224   3.836  13.816  1.5973  0.8252 -0.4360
 3175TIP3    H231017   2.279   3.960  13.883 -0.3125  1.5357 -0.1227
 3176TIP3   OH231018   2.760   3.257  11.354  0.0236  0.1723 -0.0081
 3176TIP3    H131019   2.773   3.174  11.308 -1.0209 -0.9601  1.6641
 3176TIP3    H231020   2.835   3.263  11.414 -0.1973  0.1625  0.2687
 3177TIP3   OH231021   5.308   6.772   5.020 -0.1775 -0.5986  0.0555
 3177TIP3    H131022   5.260   6.699   5.060 -1.5036  0.3847  0.2889
 3177TIP3    H231023   5.266   6.851   5.054  1.0115  0.2893 -0.4738
 3178TIP3   OH231024   3.677   4.220   3.754  0.4404 -0.0001  0.0721
 3178TIP3    H131025   3.734   4.244   3.681  0.6984 -0.4701  0.1130
 3178TIP3    H231026   3.620   4.296   3.766 -0.7839 -0.5754 -1.7338
 3179TIP3   OH231027   3.640   0.465  12.313 -0.1704  0.1889  0.0281
 3179TIP3    H131028   3.557   0.453  12.358 -0.0201  2.0713  0.9198
 3179TIP3    H231029   3.681   0.379  12.314 -0.7625 -0.1285  2.3485
 3180TIP3   OH231030   6.732   1.692   5.002 -0.1625  0.0037  0.3161
 3180TIP3    H131031   6.756   1.599   5.002  0.1672  0.0887  0.1084
 3180TIP3    H231032   6.646   1.694   5.043 -0.0138 -0.3560  0.6547
 3181TIP3   OH231033   5.823   3.721   1.328  0.0280 -0.0487  0.0313
 3181TIP3    H131034   5.847   3.812   1.307  0.9377 -0.3308 -0.2197
 3181TIP3    H231035   5.734   3.712   1.295 -0.8058  1.3000  1.7619
 3182TIP3   OH231036   4.992   5.856  11.440 -0.3810 -0.1094  0.0104
 3182TIP3    H131037   5.024   5.931  11.491  2.0895 -0.9913 -0.1150
 3182TIP3    H231038   4.946   5.802  11.504 -0.2202  0.4151  0.5848
 3183TIP3   OH231039   2.949   5.632   0.184 -0.4898 -0.1500 -0.5794
 3183TIP3    H131040   2.885   5.702   0.198 -0.1379  0.2416 -0.9127
 3183TIP3    H231041   3.028   5.677   0.154 -0.0666 -0.6366 -0.2102
 3184TIP3   OH231042   6.050   4.105   0.332 -0.2912 -0.8322 -0.4631
 3184TIP3    H131043   6.030   4.018   0.367 -0.1098 -1.3792 -1.6912
 3184TIP3    H231044   6.091   4.088   0.247  0.5372  0.4252 -0.3411
 3185TIP3   OH231045   5.894   4.962   2.382  0.0471 -0.7803 -0.0822
 3185TIP3    H131046   5.943   4.891   2.424  0.2237  0.1245  1.2966
 3185TIP3    H231047   5.812   4.968   2.433  0.9231  1.3538  1.2218
 3186TIP3   OH231048   3.800   1.308   1.854  0.4544  0.4838  0.0580
 3186TIP3    H131049   3.790   1.369   1.927 -0.4684  1.2881 -0.7178
 3186TIP3    H231050   3.863   1.350   1.795  0.6438  0.1691  0.0286
 3187TIP3   OH231051   4.931   2.724  12.955  0.3546  0.3258 -0.7282
 3187TIP3    H131052   4.896   2.660  12.892 -2.2190 -0.6510  1.5329
 3187TIP3    H231053   5.008   2.680  12.992  0.7657  0.1185 -1.7623
 3188TIP3   OH231054   5.709   4.092   2.867  0.4339 -0.1694  0.0386
 3188TIP3    H131055   5.770   4.027   2.901 -0.8464 -1.7767 -0.6321
 3188TIP3    H231056   5.665   4.127   2.944  1.3691  0.1710  0.4289
 3189TIP3   OH231057   3.982   0.831  17.057  0.1240  0.2553 -0.3675
 3189TIP3    H131058   3.939   0.749  17.037  1.3537 -0.4096 -0.3988
 3189TIP3    H231059   3.937   0.864  17.135  0.1024 -0.8224  0.0852
 3190TIP3   OH231060   3.080   2.103   1.577 -0.2370  0.0838  0.8602
 3190TIP3    H131061   3.029   2.037   1.529 -2.3945  1.8520  0.5305
 3190TIP3    H231062   3.121   2.156   1.509  0.9199 -0.4560  1.1116
 3191TIP3   OH231063   5.901   0.551   2.147 -0.0323 -0.1467 -0.6247
 3191TIP3    H131064   5.974   0.609   2.123 -1.5141  0.8066 -3.1769
 3191TIP3    H231065   5.919   0.470   2.100  0.8115 -0.9979  1.0706
 3192TIP3   OH231066   0.513   6.820  15.768  0.6634 -0.0303  0.1140
 3192TIP3    H131067   0.555   6.881  15.829  0.8055 -0.0880  0.0728
 3192TIP3    H231068   0.447   6.775  15.821  1.5316 -0.8649  0.4893
 3193TIP3   OH231069   0.780   4.070   4.028  0.3078  0.1216 -0.7780
 3193TIP3    H131070   0.763   4.163   4.042  2.9362  0.4571  1.1032
 3193TIP3    H231071   0.746   4.027   4.106  0.5089 -0.2765 -0.9060
 3194TIP3   OH231072   5.147   6.821   2.206  0.4872 -0.0204  0.0281
 3194TIP3    H131073   5.159   6.850   2.296 -0.6980  1.3462 -0.2053
 3194TIP3    H231074   5.129   6.728   2.212 -2.4966  0.5083  1.5616
 3195TIP3   OH231075   3.366   1.418   5.902  0.4539 -0.3529 -0.1499
 3195TIP3    H131076   3.300   1.469   5.949  0.0429  0.0466 -1.1133
 3195TIP3    H231077   3.415   1.484   5.852  2.3745 -0.4983  1.4357
 3196TIP3   OH231078   2.104   3.814   2.280  0.1422  0.0440 -0.0760
 3196TIP3    H131079   2.167   3.878   2.311  0.5420  0.5043 -1.7461
 3196TIP3    H231080   2.030   3.822   2.340  1.5357 -0.3672  1.7878
 3197TIP3   OH231081   5.762   0.496   5.861  0.0198 -0.0186 -0.2737
 3197TIP3    H131082   5.793   0.417   5.817  0.3644 -0.4659  0.7436
 3197TIP3    H231083   5.704   0.464   5.931  1.0984  0.5261  0.9280
 3198TIP3   OH231084   6.362   3.977   5.594 -0.0815  0.2285 -0.2094
 3198TIP3    H131085   6.371   3.887   5.563  0.8952  1.1675 -2.9821
 3198TIP3    H231086   6.337   4.027   5.516  0.7972  2.5696  0.9109
 3199TIP3   OH231087   3.291   6.585  13.642  0.1754 -0.2729  0.3106
 3199TIP3    H131088   3.264   6.649  13.708 -0.2466  0.8963 -0.9551
 3199TIP3    H231089   3.211   6.562  13.595  0.7063  0.1738 -0.8606
 3200TIP3   OH231090   0.663   5.154   0.540  0.3644  0.2282 -0.4874
 3200TIP3    H131091   0.758   5.146   0.530  0.5469  1.0348  0.4618
 3200TIP3    H231092   0.635   5.197   0.459  0.8847  0.5292 -0.5157
 3201TIP3   OH231093   5.892   1.043  15.694  0.3765 -0.3727 -0.2200
 3201TIP3    H131094   5.815   1.079  15.651  0.6046  1.3287  0.7030
 3201TIP3    H231095   5.858   0.981  15.758 -0.3648  1.2729  1.0504
 3202TIP3   OH231096   4.890   0.151   4.363 -0.1329 -0.5869  0.1756
 3202TIP3    H131097   4.887   0.245   4.381 -2.1379 -0.9393  2.1949
 3202TIP3    H231098   4.834   0.140   4.286 -0.8880 -0.2320  0.6607
 3203TIP3   OH231099   4.764   4.279   3.859  0.7276  0.2328  0.6273
 3203TIP3    H131100   4.686   4.334   3.850 -0.8815 -1.8361  0.9802
 3203TIP3    H231101   4.733   4.191   3.834  3.0688 -0.5935  0.4213
 3204TIP3   OH231102   1.706   2.874   1.938  0.5022  0.4990 -0.6732
 3204TIP3    H131103   1.712   2.815   1.862 -0.2253 -0.3110 -0.1148
 3204TIP3    H231104   1.795   2.910   1.947  0.3931  1.3453 -2.4699
 3205TIP3   OH231105   0.104   2.410  14.115 -0.5299  0.0744  0.2896
 3205TIP3    H131106   0.112   2.383  14.206  0.0629  1.3514  0.6413
 3205TIP3    H231107   0.022   2.370  14.085 -0.4164 -0.8664  1.1868
 3206TIP3   OH231108   3.299   1.663   5.996  0.1685 -0.0034 -0.3217
 3206TIP3    H131109   3.214   1.707   6.000 -0.3911 -1.1671  1.2832
 3206TIP3    H231110   3.363   1.734   6.006 -0.5854  0.8529 -1.3106
 3207TIP3   OH231111   5.016   1.660   0.853  0.2694 -0.2149 -0.0092
 3207TIP3    H131112   4.970   1.723   0.908  0.4797 -1.6084  1.8603
 3207TIP3    H231113   5.106   1.693   0.848  0.4787 -0.5276  1.3030
 3208TIP3   OH231114   2.028   2.813  11.633 -0.6373  0.2504 -0.6496
 3208TIP3    H131115   2.038   2.818  11.728  0.1941 -1.2662 -0.6210
 3208TIP3    H231116   2.016   2.904  11.605 -1.1404  0.6980  0.9168
 3209TIP3   OH231117   3.890   1.872   3.809 -0.1819 -0.2344  0.3054
 3209TIP3    H131118   3.875   1.786   3.848 -0.5605 -1.2613 -1.9605
 3209TIP3    H231119   3.976   1.865   3.768  0.5036  1.0425  1.4579
 3210TIP3   OH231120   1.037   1.518   0.357 -0.0780  0.0590 -0.5723
 3210TIP3    H131121   0.990   1.446   0.314 -1.5523 -0.2114  1.3759
 3210TIP3    H231122   1.042   1.493   0.449  1.4403  1.4231 -0.2266
 3211TIP3   OH231123   2.057   0.738   0.043 -0.0288  0.3493 -0.4494
 3211TIP3    H131124   2.096   0.658   0.010 -0.3520  0.2888 -0.6866
 3211TIP3    H231125   2.049   0.795  -0.033 -1.9644 -0.2599 -0.7767
 3212TIP3   OH231126   2.552   6.184   1.700  0.4836  0.2580 -0.3217
 3212TIP3    H131127   2.563   6.133   1.620  0.1853  0.3050 -0.3937
 3212TIP3    H231128   2.497   6.128   1.756 -0.8193  0.9672 -0.8397
 3213TIP3   OH231129   2.273   6.798   0.893 -0.0296 -0.0210 -0.0180
 3213TIP3    H131130   2.328   6.783   0.970  0.9773  1.0673 -0.4904
 3213TIP3    H231131   2.188   6.760   0.916  0.8593 -1.6196  0.8034
 3214TIP3   OH231132   6.020   1.464   3.898 -0.1678 -0.0400  0.1003
 3214TIP3    H131133   6.113   1.485   3.883  0.0841  0.0804  1.6223
 3214TIP3    H231134   6.020   1.371   3.920 -0.2280  0.2062  1.2353
 3215TIP3   OH231135   2.451   5.153   0.342  0.3306  0.4925 -0.3167
 3215TIP3    H131136   2.408   5.214   0.401 -0.5484  2.1086 -2.5208
 3215TIP3    H231137   2.501   5.208   0.281  0.7633 -1.0528 -1.4335
 3216TIP3   OH231138   4.342   6.690  13.595 -0.1104 -0.0593 -0.5252
 3216TIP3    H131139   4.304   6.674  13.509 -1.0276  2.8272 -0.7404
 3216TIP3    H231140   4.434   6.664  13.586 -0.2462 -0.0472 -2.2740
 3217TIP3   OH231141   3.315   6.778  16.112  0.1164 -0.1402  0.4307
 3217TIP3    H131142   3.276   6.800  16.027  0.2467 -0.1299  0.3733
 3217TIP3    H231143   3.409   6.782  16.097  0.1399 -0.1687  0.5684
 3218TIP3   OH231144   1.029   0.947  11.585  0.3101  0.0015  0.0953
 3218TIP3    H131145   0.934   0.953  11.578  0.2513 -0.9852 -0.0952
 3218TIP3    H231146   1.055   0.889  11.514  0.7404 -2.0994  1.8615
 3219TIP3   OH231147   0.855   5.862   3.879 -0.1665 -0.1379 -0.4328
 3219TIP3    H131148   0.890   5.844   3.966 -1.4162 -0.3480  0.0420
 3219TIP3    H231149   0.871   5.782   3.829 -0.8957 -0.6274  0.0943
 3220TIP3   OH231150   1.012   2.658   3.705  0.3095 -0.2282 -0.0751
 3220TIP3    H131151   0.987   2.631   3.793 -1.6744  0.6737 -0.3282
 3220TIP3    H231152   1.006   2.577   3.653  0.1943 -0.4916  0.3400
 3221TIP3   OH231153   1.621   6.708  14.012  0.1038 -0.1427 -0.3254
 3221TIP3    H131154   1.585   6.622  13.992 -0.0089 -0.4699  1.1631
 3221TIP3    H231155   1.576   6.735  14.092 -1.5369  2.3175 -1.9428
 3222TIP3   OH231156   2.000   1.702   4.743 -0.0996  0.1483 -0.0233
 3222TIP3    H131157   2.035   1.656   4.666  0.5209  2.0011 -0.8961
 3222TIP3    H231158   1.907   1.717   4.722 -0.5802 -1.5317  0.7134
 3223TIP3   OH231159   0.265   4.811  10.805 -0.2798 -0.1634  0.4475
 3223TIP3    H131160   0.342   4.856  10.773  0.5713 -1.6696  0.2650
 3223TIP3    H231161   0.236   4.756  10.732 -0.8407 -0.4530  0.8731
 3224TIP3   OH231162   2.388   1.778   4.615 -0.1882 -0.3400 -0.6063
 3224TIP3    H131163   2.381   1.806   4.523  1.1572  0.0893 -0.5919
 3224TIP3    H231164   2.316   1.824   4.659 -1.3367 -1.1480 -1.5630
 3225TIP3   OH231165   6.300   3.809   2.058 -0.7036 -0.0684 -0.1407
 3225TIP3    H131166   6.276   3.858   2.137  2.3256 -1.3527  1.7841
 3225TIP3    H231167   6.394   3.827   2.046 -0.6915 -1.2654 -2.4665
 3226TIP3   OH231168   2.044   5.070   0.430 -1.0098  0.0352  0.3142
 3226TIP3    H131169   1.965   5.018   0.446 -1.2150  0.4558  0.7089
 3226TIP3    H231170   2.038   5.096   0.339  0.3640 -2.7336 -0.6913
 3227TIP3   OH231171   0.557   6.018  15.829 -0.4630  0.4407 -0.0756
 3227TIP3    H131172   0.569   6.088  15.765  2.7536  0.1209  0.0230
 3227TIP3    H231173   0.472   5.981  15.808 -1.4541  3.1547 -1.3071
 3228TIP3   OH231174   5.744   4.781  12.875 -0.2748  0.0979 -0.0472
 3228TIP3    H131175   5.746   4.876  12.864  0.1882  0.1430  0.3985
 3228TIP3    H231176   5.789   4.765  12.958 -1.4106 -0.4243  0.4917
 3229TIP3   OH231177   1.993   5.404  12.221 -0.1872 -0.2346  0.5329
 3229TIP3    H131178   2.025   5.430  12.307  0.0252 -0.9362  0.6703
 3229TIP3    H231179   1.916   5.351  12.239 -1.0017  0.7970  0.2266
 3230TIP3   OH231180   0.495   6.814  13.975  0.2450 -0.8773  0.2446
 3230TIP3    H131181   0.569   6.755  13.961 -0.0522 -1.8176  2.1978
 3230TIP3    H231182   0.530   6.883  14.031  0.1371 -0.1585 -0.5567
 3231TIP3   OH231183   6.085   1.034   4.782 -0.0745 -0.0495  0.0744
 3231TIP3    H131184   6.014   0.974   4.805  1.1942 -1.2847  0.8943
 3231TIP3    H231185   6.065   1.061   4.692 -2.2553  0.6517  0.6987
 3232TIP3   OH231186   1.198   2.157  14.190 -0.3592  0.0953 -0.2578
 3232TIP3    H131187   1.166   2.221  14.127  1.9103 -1.3932 -3.1978
 3232TIP3    H231188   1.284   2.190  14.217  0.1022 -0.8280 -0.5278
 3233TIP3   OH231189   5.677   0.608   1.787 -0.0629 -0.6775 -0.2413
 3233TIP3    H131190   5.689   0.570   1.874 -0.1691  0.3485  0.2341
 3233TIP3    H231191   5.757   0.585   1.740 -1.0207 -3.4120 -0.7394
 3234TIP3   OH231192   4.039   5.040   1.404 -0.3976 -0.0213  0.2738
 3234TIP3    H131193   4.002   5.025   1.317  0.1716 -1.8719  0.2982
 3234TIP3    H231194   3.965   5.026   1.464 -0.7505  1.0887  0.1143
 3235TIP3   OH231195   6.583   2.186  14.564 -0.1298 -0.7909 -0.0421
 3235TIP3    H131196   6.639   2.165  14.639 -0.5200 -1.0499  0.1763
 3235TIP3    H231197   6.643   2.189  14.490  0.1136 -1.4758  0.1211
 3236TIP3   OH231198   1.728   3.520  16.570 -0.3911 -0.4115  0.4094
 3236TIP3    H131199   1.690   3.476  16.646 -0.2063 -0.4600  0.4729
 3236TIP3    H231200   1.660   3.581  16.542 -0.7503 -0.9087  0.1736
 3237TIP3   OH231201   6.276   2.300   5.648 -0.1623 -0.5419  0.5397
 3237TIP3    H131202   6.299   2.265   5.562  1.5390 -0.4461  0.9156
 3237TIP3    H231203   6.309   2.235   5.710  1.0385  0.6247  1.1768
 3238TIP3   OH231204   0.242   5.940   1.858 -0.0075  0.1428 -0.6736
 3238TIP3    H131205   0.154   5.905   1.848  0.8445 -2.4904  0.1931
 3238TIP3    H231206   0.260   5.933   1.952  0.7723  1.6279 -0.6835
 3239TIP3   OH231207   5.702   0.333  13.688  0.3937  0.1560 -0.0621
 3239TIP3    H131208   5.701   0.382  13.770  0.4132 -0.7468  0.4901
 3239TIP3    H231209   5.624   0.278  13.692  1.7552 -1.8089  0.5551
 3240TIP3   OH231210   6.376   4.732  14.567 -0.2197  0.3807  0.2571
 3240TIP3    H131211   6.358   4.728  14.473  0.7985  1.1060  0.0128
 3240TIP3    H231212   6.318   4.800  14.600 -1.3043 -0.5595  0.3577
 3241TIP3   OH231213   6.141   2.142  10.672 -0.0070 -0.0395 -0.6038
 3241TIP3    H131214   6.215   2.189  10.632 -0.6574  0.6599 -1.0136
 3241TIP3    H231215   6.066   2.166  10.618 -0.4666 -1.0836 -0.4470
 3242TIP3   OH231216   2.286   2.240  15.639  0.3262 -0.3551  0.2665
 3242TIP3    H131217   2.249   2.231  15.551 -0.4511  0.5643  0.4829
 3242TIP3    H231218   2.325   2.155  15.658  0.0129 -0.7338 -0.7464
 3243TIP3   OH231219   4.132   4.333  12.587 -0.0115  0.2984  0.1872
 3243TIP3    H131220   4.116   4.395  12.516  0.2042 -0.0837 -0.2049
 3243TIP3    H231221   4.104   4.248  12.551  2.2421 -0.3183 -0.3384
 3244TIP3   OH231222   0.646   5.135   1.245  0.0514 -0.3650 -0.2202
 3244TIP3    H131223   0.660   5.066   1.180 -0.1539  0.8234 -1.5833
 3244TIP3    H231224   0.729   5.182   1.250 -0.0758 -0.1606  0.0318
 3245TIP3   OH231225   3.612   5.490   0.131 -0.4266 -0.0708  0.0812
 3245TIP3    H131226   3.520   5.492   0.107 -0.3835  0.3699 -0.0661
 3245TIP3    H231227   3.614   5.524   0.221 -0.3691  0.3484 -0.0722
 3246TIP3   OH231228   2.006   0.685   4.125  0.3167 -0.1519  0.5956
 3246TIP3    H131229   2.025   0.711   4.035 -0.7032 -0.7681  0.1878
 3246TIP3    H231230   2.079   0.627   4.149  0.4726 -0.1702  0.0920
 3247TIP3   OH231231   0.648   3.328   1.235  0.1630  0.3875  0.0499
 3247TIP3    H131232   0.664   3.265   1.166  0.8052  1.0260 -0.4017
 3247TIP3    H231233   0.697   3.294   1.310  0.2525  0.1895 -0.0978
 3248TIP3   OH231234   2.520   1.916  16.958  0.5449  0.0455  0.2923
 3248TIP3    H131235   2.433   1.935  16.993  0.4922 -0.4088  0.4073
 3248TIP3    H231236   2.563   1.865  17.026  0.7508 -0.0983  0.0577
 3249TIP3   OH231237   4.991   3.442  12.474 -0.0610 -0.6510  0.2785
 3249TIP3    H131238   4.939   3.521  12.489 -0.7453 -1.3267  1.6527
 3249TIP3    H231239   5.056   3.443  12.543 -0.2725 -1.4374  0.5006
 3250TIP3   OH231240   6.491   3.451   3.972  1.0285  0.0217 -0.1900
 3250TIP3    H131241   6.573   3.406   3.950  0.6023 -2.9405  3.3585
 3250TIP3    H231242   6.516   3.514   4.040  0.5601 -0.0338  0.0394
 3251TIP3   OH231243   5.679   6.811  15.237 -0.1604  0.4004  0.4201
 3251TIP3    H131244   5.622   6.777  15.306 -0.9912  0.6134 -0.1363
 3251TIP3    H231245   5.741   6.741  15.219 -0.2099  0.1826  1.0803
 3252TIP3   OH231246   3.083   2.891   5.698 -0.2900  0.2652 -0.2207
 3252TIP3    H131247   3.080   2.984   5.673 -0.2973  0.4531  0.4574
 3252TIP3    H231248   3.139   2.851   5.632  2.0515  1.2794  1.0068
 3253TIP3   OH231249   2.960   6.256   4.656  0.0382  0.0415  0.3056
 3253TIP3    H131250   3.022   6.230   4.725  1.3111 -0.5455 -1.0034
 3253TIP3    H231251   2.986   6.204   4.580 -1.3774  0.6143 -0.6031
 3254TIP3   OH231252   4.915   0.971   2.934 -0.0114 -0.3417 -0.1360
 3254TIP3    H131253   5.002   0.990   2.900  0.5032 -1.8103  0.2639
 3254TIP3    H231254   4.856   1.028   2.885  1.1537  0.5467 -0.5352
 3255TIP3   OH231255   6.544   5.168  12.103  0.6644  0.3255 -0.0526
 3255TIP3    H131256   6.563   5.137  12.014  0.7026 -2.3264  0.7952
 3255TIP3    H231257   6.451   5.147  12.117  0.0140  2.7910 -0.1824
 3256TIP3   OH231258   3.183   3.414  16.154  1.1406  0.3348 -0.0132
 3256TIP3    H131259   3.159   3.340  16.210  0.1272  0.9147  0.3332
 3256TIP3    H231260   3.117   3.415  16.085 -0.1007  2.1321  1.1219
 3257TIP3   OH231261   4.970   3.621  13.053  0.5631  0.5026 -0.5610
 3257TIP3    H131262   4.941   3.674  12.978 -0.0605 -0.1297 -0.7758
 3257TIP3    H231263   5.013   3.545  13.014 -1.3428 -0.7490 -0.3566
 3258TIP3   OH231264   5.669   5.577   0.370 -1.0621 -0.3951  0.2977
 3258TIP3    H131265   5.745   5.544   0.323 -1.0084  0.0558  0.0701
 3258TIP3    H231266   5.607   5.505   0.368 -0.3312 -1.0842  1.2150
 3259TIP3   OH231267   3.771   0.353   0.307  0.1991 -0.1269 -0.3125
 3259TIP3    H131268   3.776   0.415   0.379  0.4216 -0.1906 -0.2700
 3259TIP3    H231269   3.736   0.273   0.346 -0.5018  0.1022 -0.4591
 3260TIP3   OH231270   0.764   3.274  10.373  0.3208  0.5553 -0.5849
 3260TIP3    H131271   0.768   3.237  10.461  0.3822  0.7867 -0.4906
 3260TIP3    H231272   0.688   3.331  10.374  0.1936  0.3887 -0.7471
 3261TIP3   OH231273   4.247   0.377  12.717 -0.0367  0.1019 -0.1442
 3261TIP3    H131274   4.161   0.362  12.678  0.2885 -0.5855 -0.6009
 3261TIP3    H231275   4.244   0.331  12.801  0.3373 -1.0325 -0.7458
 3262TIP3   OH231276   6.494   6.078  15.784  0.3311 -0.0425 -0.3165
 3262TIP3    H131277   6.543   5.997  15.769 -0.9267 -0.8838 -0.1059
 3262TIP3    H231278   6.553   6.148  15.756  1.6870 -0.9920  0.0874
 3263TIP3   OH231279   6.181   5.264   6.648  0.2946 -0.2774  0.2421
 3263TIP3    H131280   6.234   5.324   6.596  1.2188 -1.0474  0.2577
 3263TIP3    H231281   6.116   5.319   6.691  1.4976  0.7993  0.7398
 3264TIP3   OH231282   4.558   2.143  10.238 -0.1503  0.5900  0.6747
 3264TIP3    H131283   4.592   2.086  10.307 -0.0398  1.1901  1.1226
 3264TIP3    H231284   4.479   2.099  10.208 -0.6006  0.6841  1.6945
 3265TIP3   OH231285   0.779   2.320  10.756  0.4171  0.4702 -0.1674
 3265TIP3    H131286   0.838   2.251  10.725  0.5767 -0.0596  1.2280
 3265TIP3    H231287   0.807   2.399  10.709  0.3285 -0.3624 -1.6823
 3266TIP3   OH231288   6.045   5.124  16.131 -1.0127  0.0548 -0.0720
 3266TIP3    H131289   5.961   5.121  16.087 -1.1550 -0.9196  0.2318
 3266TIP3    H231290   6.104   5.165  16.068 -1.0736 -1.7956 -1.4435
 3267TIP3   OH231291   4.044   2.992  13.334 -0.0901  0.6678  0.4491
 3267TIP3    H131292   4.131   3.022  13.310  1.2226 -0.2246  3.6114
 3267TIP3    H231293   4.018   3.048  13.407 -1.4321 -0.2064  0.6840
 3268TIP3   OH231294   4.107   5.204   4.520 -0.5170 -0.2903  0.1591
 3268TIP3    H131295   4.108   5.167   4.609  1.4365  2.8362  1.6233
 3268TIP3    H231296   4.194   5.242   4.510 -0.2379 -1.5966 -3.6851
 3269TIP3   OH231297   1.155   6.228   2.566  0.1932  0.7467  0.2655
 3269TIP3    H131298   1.108   6.272   2.495 -2.4122 -0.1007  1.3649
 3269TIP3    H231299   1.149   6.289   2.639 -1.9049 -0.5409  1.2747
 3270TIP3   OH231300   6.119   4.488  16.344 -0.0820 -0.2364 -0.3094
 3270TIP3    H131301   6.192   4.427  16.331  0.4282  0.1471  0.6842
 3270TIP3    H231302   6.140   4.563  16.289  1.5380  0.9296  1.8000
 3271TIP3   OH231303   4.122   5.833  10.792  0.2900 -0.4136  0.3517
 3271TIP3    H131304   4.183   5.760  10.779 -0.1477 -0.6238 -0.6101
 3271TIP3    H231305   4.113   5.872  10.705  1.2630  1.4029  1.0196
 3272TIP3   OH231306   6.204   0.178  11.576  0.4844 -0.0778  0.4686
 3272TIP3    H131307   6.234   0.105  11.521 -1.2129  0.6004 -1.4599
 3272TIP3    H231308   6.136   0.140  11.631  0.2185 -0.1368  0.0974
 3273TIP3   OH231309   5.283   6.332  16.086  0.3229 -0.1637 -0.8920
 3273TIP3    H131310   5.222   6.383  16.032 -0.9895 -0.8883 -0.1421
 3273TIP3    H231311   5.348   6.300  16.024 -0.8258 -0.4977 -1.9670
 3274TIP3   OH231312   4.505   5.526   3.781  0.7945  0.2205  0.2789
 3274TIP3    H131313   4.589   5.548   3.743  1.4005 -2.8916 -0.4242
 3274TIP3    H231314   4.443   5.528   3.708  0.8883 -0.5071  0.1742
 3275TIP3   OH231315   4.833   2.527  13.623 -0.1577  0.5236 -0.1414
 3275TIP3    H131316   4.819   2.458  13.558 -2.9009  0.6725  0.1525
 3275TIP3    H231317   4.803   2.607  13.581 -1.6895  0.6722  1.1415
 3276TIP3   OH231318   1.006   6.509  12.103  0.2355  0.9696  0.1104
 3276TIP3    H131319   1.033   6.461  12.025  0.0318 -0.1604  0.7069
 3276TIP3    H231320   1.013   6.445  12.174 -0.0325  1.8365  0.9423
 3277TIP3   OH231321   2.484   2.714  15.779  0.2846 -1.0332  0.5564
 3277TIP3    H131322   2.468   2.736  15.688 -2.0105 -1.5640  0.7879
 3277TIP3    H231323   2.482   2.619  15.782  3.1327 -1.1900  0.7656
 3278TIP3   OH231324   3.458   6.127   5.620  0.0099  0.7074  0.6064
 3278TIP3    H131325   3.430   6.036   5.609 -0.0980  0.7560  0.4668
 3278TIP3    H231326   3.532   6.123   5.680  0.5911  0.4313 -0.1121
 3279TIP3   OH231327   0.639   1.255  15.800  0.6110  0.1832 -0.2912
 3279TIP3    H131328   0.714   1.281  15.747  0.8779 -0.5379 -0.2728
 3279TIP3    H231329   0.563   1.277  15.745  0.8463  0.4966 -0.4970
 3280TIP3   OH231330   0.837   0.269   0.928  0.7847  0.4435  0.4518
 3280TIP3    H131331   0.837   0.364   0.915 -1.8232  0.8146  2.2965
 3280TIP3    H231332   0.745   0.247   0.944  1.0296 -2.6963 -1.4977
 3281TIP3   OH231333   6.101   6.249   1.881  0.2528  0.2428 -0.1455
 3281TIP3    H131334   6.031   6.187   1.862 -0.4381  0.7838  0.5388
 3281TIP3    H231335   6.121   6.235   1.974 -1.5086  2.5251  0.6899
 3282TIP3   OH231336   3.203   5.737  11.187 -0.4153 -0.4324  0.3556
 3282TIP3    H131337   3.205   5.648  11.223 -0.6791 -0.4095  0.4254
 3282TIP3    H231338   3.114   5.747  11.153  0.2332 -0.9851 -1.6462
 3283TIP3   OH231339   3.681   5.178   2.264 -0.0079  0.4412 -0.3209
 3283TIP3    H131340   3.674   5.140   2.176  1.7575 -0.4269 -0.1366
 3283TIP3    H231341   3.599   5.226   2.276 -0.6126 -0.0452 -2.1382
 3284TIP3   OH231342   3.525   1.577   3.531 -0.1312 -0.0574 -0.0385
 3284TIP3    H131343   3.470   1.645   3.494  0.0700 -0.8207 -1.8410
 3284TIP3    H231344   3.490   1.495   3.495 -0.4838 -0.9625  2.2147
 3285TIP3   OH231345   2.992   0.597  12.632 -0.6621  0.0424 -0.2300
 3285TIP3    H131346   3.085   0.600  12.613 -0.8886  1.5503 -1.2561
 3285TIP3    H231347   2.984   0.532  12.702  1.1084 -0.3032 -0.3054
 3286TIP3   OH231348   4.813   2.160   0.462 -0.1444  0.5261 -0.3289
 3286TIP3    H131349   4.767   2.076   0.465 -2.4547  1.7042  1.2915
 3286TIP3    H231350   4.876   2.155   0.534  1.0090 -0.4102 -1.3583
 3287TIP3   OH231351   3.360   3.450  11.802 -0.1994 -0.7039  0.4830
 3287TIP3    H131352   3.398   3.517  11.746 -1.9689 -0.8439 -1.0132
 3287TIP3    H231353   3.410   3.371  11.782 -0.5989 -0.6804 -0.7340
 3288TIP3   OH231354   4.577   3.560  16.666  0.9772 -0.1071 -0.2815
 3288TIP3    H131355   4.545   3.576  16.755 -1.3881 -0.6121 -0.9532
 3288TIP3    H231356   4.575   3.647  16.625  1.0554 -0.0363 -0.1383
 3289TIP3   OH231357   5.243   5.783   1.344 -0.3426 -0.2515 -0.1734
 3289TIP3    H131358   5.162   5.743   1.314  0.6899 -1.9285 -0.8769
 3289TIP3    H231359   5.281   5.822   1.265  0.3524 -0.9984 -0.2249
 3290TIP3   OH231360   4.809   5.560  13.388  0.1466 -0.1513  0.4031
 3290TIP3    H131361   4.844   5.574  13.476 -1.1365  3.4651  0.5470
 3290TIP3    H231362   4.807   5.648  13.350 -2.3750 -1.1142 -2.0145
 3291TIP3   OH231363   5.808   5.052   0.647  0.5107 -0.3414 -0.1361
 3291TIP3    H131364   5.790   4.973   0.595  1.7383 -0.2461 -0.7450
 3291TIP3    H231365   5.875   5.098   0.596  0.9314  0.3169  0.9971
 3292TIP3   OH231366   3.445   5.920  14.676 -0.1564 -0.0468 -0.5152
 3292TIP3    H131367   3.419   5.859  14.606 -1.9437  1.2349 -1.0609
 3292TIP3    H231368   3.443   6.006  14.634  0.1792  0.6078  0.7660
 3293TIP3   OH231369   1.614   4.358  16.424 -0.0307 -0.0844 -0.6055
 3293TIP3    H131370   1.583   4.278  16.467  1.0736 -0.0135  0.3761
 3293TIP3    H231371   1.590   4.428  16.485  1.3935  0.0363 -0.1538
 3294TIP3   OH231372   6.728   0.197  16.019 -0.0883  0.4778  0.6096
 3294TIP3    H131373   6.721   0.290  16.038 -1.3946  0.3589  0.8727
 3294TIP3    H231374   6.651   0.159  16.061 -0.5963 -0.4531 -1.0600
 3295TIP3   OH231375   4.133   6.670  15.652  0.2279 -1.0011 -0.3913
 3295TIP3    H131376   4.136   6.619  15.572 -3.7126 -0.8836 -0.7721
 3295TIP3    H231377   4.099   6.755  15.625  0.2288 -0.4639  1.1969
 3296TIP3   OH231378   0.253   0.196  15.942 -0.1020  0.5305 -0.4161
 3296TIP3    H131379   0.256   0.205  16.037  2.2548 -0.8172 -0.3017
 3296TIP3    H231380   0.174   0.244  15.916  0.5286  3.0508  1.9498
 3297TIP3   OH231381   3.278   6.715   4.644  0.5295  0.2471  0.0359
 3297TIP3    H131382   3.254   6.625   4.621  0.9992  0.0185  0.4130
 3297TIP3    H231383   3.273   6.717   4.740  2.9309 -0.0985  0.2310
 3298TIP3   OH231384   1.245   6.710   0.366  0.0672 -0.1326 -0.6494
 3298TIP3    H131385   1.240   6.674   0.455  2.4642  1.0140  0.0325
 3298TIP3    H231386   1.214   6.639   0.310  0.5334 -1.6687  0.9489
 3299TIP3   OH231387   4.693   0.149   4.164 -0.5693  0.1270  0.3617
 3299TIP3    H131388   4.716   0.183   4.078  1.4693  1.0926  1.2161
 3299TIP3    H231389   4.617   0.201   4.191 -0.5698  0.5458 -0.4052
 3300TIP3   OH231390   4.629   6.217  15.197  0.0072 -0.5746  0.5669
 3300TIP3    H131391   4.652   6.308  15.180 -2.6599  0.2479  0.9994
 3300TIP3    H231392   4.610   6.180  15.111  0.2028 -0.4754  0.4808
 3301TIP3   OH231393   1.624   1.653  12.832  0.4791 -0.2838  0.0427
 3301TIP3    H131394   1.709   1.639  12.874  0.1228 -0.0891  0.8473
 3301TIP3    H231395   1.645   1.661  12.739  1.2817 -0.7486  0.1698
 3302TIP3   OH231396   5.183   1.667   3.999 -0.1791 -0.1385 -0.0284
 3302TIP3    H131397   5.183   1.582   3.956 -0.5261  0.2987 -0.9294
 3302TIP3    H231398   5.263   1.668   4.052  0.0050 -0.8762 -0.2817
 3303TIP3   OH231399   6.824   6.028   1.055 -0.2009 -0.0432  0.3936
 3303TIP3    H131400   6.805   6.070   1.138 -0.1086  1.1728 -0.1717
 3303TIP3    H231401   6.834   6.101   0.993 -1.0559 -0.9319 -0.8454
 3304TIP3   OH231402   3.214   4.518   5.538 -0.0113  0.2830  0.0906
 3304TIP3    H131403   3.145   4.456   5.562  0.2403 -0.3570 -0.7940
 3304TIP3    H231404   3.219   4.577   5.612 -0.1141 -0.8801  1.0524
 3305TIP3   OH231405   1.651   4.365  14.465 -0.3302  0.0489 -0.6338
 3305TIP3    H131406   1.595   4.354  14.542 -0.6188 -0.1544 -0.8709
 3305TIP3    H231407   1.627   4.293  14.407  0.2464 -0.0947 -0.6970
 3306TIP3   OH231408   4.049   5.595   2.417  0.0608  0.2960 -0.5385
 3306TIP3    H131409   4.119   5.592   2.482 -0.9120  0.6278  0.5535
 3306TIP3    H231410   4.043   5.505   2.385  0.5572  0.1308 -0.1851
 3307TIP3   OH231411   5.019   1.677  16.521 -0.0238 -0.1120  0.7267
 3307TIP3    H131412   5.017   1.592  16.479  1.1636 -0.1047  0.6224
 3307TIP3    H231413   5.042   1.738  16.451 -0.8199  0.2963  0.8109
 3308TIP3   OH231414   2.290   6.323   4.693  0.6866  0.5379  0.1610
 3308TIP3    H131415   2.304   6.377   4.770  1.0533  1.5348 -0.5835
 3308TIP3    H231416   2.370   6.271   4.684  0.8862  0.8560  0.1108
 3309TIP3   OH231417   2.749   0.357   4.331 -0.0950  0.0233  0.4170
 3309TIP3    H131418   2.694   0.433   4.352 -2.7099 -1.4111 -0.7692
 3309TIP3    H231419   2.746   0.352   4.235  2.6342  0.1753  0.2666
 3310TIP3   OH231420   0.678   1.833  14.709  0.2650 -0.1922  0.5713
 3310TIP3    H131421   0.710   1.874  14.789  1.6695  6.3877 -2.6339
 3310TIP3    H231422   0.590   1.867  14.698 -0.7005 -2.6247  0.1083
 3311TIP3   OH231423   0.536   4.502  15.029  0.3862 -0.4984  0.6760
 3311TIP3    H131424   0.555   4.593  15.054  1.7644 -1.0444  1.7866
 3311TIP3    H231425   0.595   4.486  14.955  0.5272 -0.6277  0.8143
 3312TIP3   OH231426   5.543   2.437  16.994  0.1419  0.1683  0.0847
 3312TIP3    H131427   5.532   2.525  16.957  1.3995  0.6605  0.8146
 3312TIP3    H231428   5.627   2.440  17.039 -0.1744 -1.1722  0.8301
 3313TIP3   OH231429   6.550   6.779  15.635  0.3756 -0.3851 -0.6363
 3313TIP3    H131430   6.567   6.873  15.637 -0.6066 -0.1938 -1.1298
 3313TIP3    H231431   6.474   6.769  15.579  0.2506 -1.4479 -0.2974
 3314TIP3   OH231432   0.088   1.296  11.937 -0.6786 -0.2834  0.3603
 3314TIP3    H131433   0.132   1.380  11.951  0.3672 -0.7814  0.1833
 3314TIP3    H231434   0.115   1.269  11.850 -2.0517 -0.2108 -0.1111
 3315TIP3   OH231435   6.470   3.802  11.846  0.3472  0.5881  0.0055
 3315TIP3    H131436   6.445   3.796  11.754 -1.2146  0.0546  0.4277
 3315TIP3    H231437   6.398   3.850  11.887  0.4319 -0.2095  1.1325
 3316TIP3   OH231438   5.076   3.918   4.408  0.2678  0.1396  0.1635
 3316TIP3    H131439   5.130   3.840   4.416  1.3196  0.7081 -1.0143
 3316TIP3    H231440   5.133   3.990   4.437 -0.5807  0.5153  0.9452
 3317TIP3   OH231441   3.217   1.530  17.171  0.2268 -0.0610 -0.0227
 3317TIP3    H131442   3.131   1.535  17.212 -0.6614 -1.5520 -1.6154
 3317TIP3    H231443   3.275   1.500  17.240 -1.3078 -2.9314  0.1426
 3318TIP3   OH231444   3.909   2.406  11.975  0.0271  0.2912 -0.3262
 3318TIP3    H131445   3.965   2.427  12.049 -1.1229  1.0250  0.3740
 3318TIP3    H231446   3.822   2.396  12.014 -0.1867 -1.8771 -1.2044
 3319TIP3   OH231447   0.435   0.225  14.067  0.2529 -0.1021  0.4067
 3319TIP3    H131448   0.372   0.155  14.083 -1.2595  0.7688 -1.2698
 3319TIP3    H231449   0.395   0.302  14.107 -0.4985  0.7356 -1.7562
 3320TIP3   OH231450   3.442   6.076  12.594 -0.0814 -0.2756 -0.2846
 3320TIP3    H131451   3.489   6.070  12.510  1.9839 -3.0278  0.8841
 3320TIP3    H231452   3.506   6.111  12.655 -0.5428 -1.1454  0.7328
 3321TIP3   OH231453   5.165   6.647  16.266  0.2226  0.2223  0.1822
 3321TIP3    H131454   5.075   6.615  16.263 -0.2755  1.5776 -0.5037
 3321TIP3    H231455   5.179   6.686  16.180  1.9364 -1.1058 -0.1864
 3322TIP3   OH231456   1.332   1.737   1.713  0.9171 -1.0388  0.1502
 3322TIP3    H131457   1.421   1.703   1.702  0.7990 -2.0607  1.9400
 3322TIP3    H231458   1.289   1.719   1.630  2.1883 -1.1020 -0.5259
 3323TIP3   OH231459   4.203   0.397   0.936 -0.7180  0.0771 -0.2675
 3323TIP3    H131460   4.283   0.370   0.982 -0.5521  0.2672 -0.4436
 3323TIP3    H231461   4.174   0.318   0.890 -0.4630  0.0863 -0.4467
 3324TIP3   OH231462   3.616   0.568  11.823  0.5426 -0.6585 -0.3084
 3324TIP3    H131463   3.651   0.479  11.822  0.9023 -0.5302  0.2941
 3324TIP3    H231464   3.657   0.609  11.899  1.7712  0.5904 -1.5967
 3325TIP3   OH231465   0.939   2.150  14.869 -0.2083  0.4031 -0.1953
 3325TIP3    H131466   0.922   2.124  14.778  0.4509  1.3044 -0.5907
 3325TIP3    H231467   0.882   2.093  14.921 -2.6228  1.6494 -1.3126
 3326TIP3   OH231468   2.434   5.704  13.803  0.3592 -0.1735  0.2804
 3326TIP3    H131469   2.343   5.725  13.822  1.3235  2.2278  2.8557
 3326TIP3    H231470   2.444   5.721  13.709 -2.2118 -2.3999 -0.5204
 3327TIP3   OH231471   0.964   4.131   1.263 -0.3580 -0.8496  0.3143
 3327TIP3    H131472   0.876   4.159   1.289 -0.5778 -2.3621  1.3432
 3327TIP3    H231473   0.950   4.047   1.219  0.5811 -1.1247  0.5281
 3328TIP3   OH231474   6.422   0.152  15.934 -0.0076  0.3787  0.2843
 3328TIP3    H131475   6.458   0.128  16.019 -0.7081  0.8763  0.7328
 3328TIP3    H231476   6.334   0.186  15.954 -0.5157 -0.2982 -0.7211
 3329TIP3   OH231477   0.490   1.952  16.631 -0.2979  0.2032 -0.5089
 3329TIP3    H131478   0.541   1.955  16.712  0.0199 -0.3191 -0.6804
 3329TIP3    H231479   0.525   2.023  16.578  1.4856 -1.1835 -1.3159
 3330TIP3   OH231480   2.270   2.141  12.930 -0.4853 -0.1095  0.5928
 3330TIP3    H131481   2.223   2.224  12.920 -2.2344 -1.2231 -1.4326
 3330TIP3    H231482   2.333   2.140  12.857 -1.2227 -0.9630 -0.0615
 3331TIP3   OH231483   3.203   2.980  16.329  0.1244 -0.1090 -0.2835
 3331TIP3    H131484   3.232   2.978  16.238 -1.7480  0.4318 -0.9530
 3331TIP3    H231485   3.109   2.998  16.323 -0.3741 -1.7167  1.7094
 3332TIP3   OH231486   1.745   6.048  13.612  0.1031 -0.3583 -0.4237
 3332TIP3    H131487   1.713   5.965  13.648 -1.4403 -0.0110 -0.9480
 3332TIP3    H231488   1.762   6.030  13.520 -3.5865  0.6885 -1.4564
 3333TIP3   OH231489   0.106   5.659   5.591  0.9755  0.0799  0.2273
 3333TIP3    H131490   0.020   5.634   5.625  0.5456  1.7571  0.4658
 3333TIP3    H231491   0.095   5.750   5.564  2.5392  0.1510 -0.2526
 3334TIP3   OH231492   5.973   3.682   2.911  0.1828 -0.5037  0.2569
 3334TIP3    H131493   6.062   3.677   2.946  0.0625 -1.8136  0.4306
 3334TIP3    H231494   5.980   3.645   2.823  0.0083  0.4206 -0.1552
 3335TIP3   OH231495   4.825   6.843  11.355 -0.0489 -0.1680 -0.0386
 3335TIP3    H131496   4.828   6.765  11.299 -0.1092 -1.3023  1.4780
 3335TIP3    H231497   4.851   6.811  11.441 -0.2956  1.4642  0.6660
 3336TIP3   OH231498   1.523   3.303  15.756  0.1825 -0.1462  0.0374
 3336TIP3    H131499   1.431   3.284  15.735 -1.0043  1.5287  2.9973
 3336TIP3    H231500   1.558   3.221  15.789 -0.5993 -0.5458 -0.1063
 3337TIP3   OH231501   2.682   4.085   1.182  0.3540  0.8863 -0.3485
 3337TIP3    H131502   2.660   4.135   1.103  0.6258  0.6961 -0.5441
 3337TIP3    H231503   2.671   3.994   1.157 -0.6372  0.8505  0.1590
 3338TIP3   OH231504   3.865   0.682   1.366  0.1217 -0.8380 -0.6887
 3338TIP3    H131505   3.872   0.587   1.375 -1.5159 -0.9808 -0.5193
 3338TIP3    H231506   3.779   0.695   1.325  0.7243  0.5379 -1.5950
 3339TIP3   OH231507   3.640   6.012   2.406 -0.2218 -0.3121 -0.5137
 3339TIP3    H131508   3.614   5.924   2.434 -0.2736  0.1304  0.9102
 3339TIP3    H231509   3.559   6.051   2.372 -0.7648 -0.0322  1.0117
 3340TIP3   OH231510   1.845   2.858   1.659  0.0113  0.0597  0.0686
 3340TIP3    H131511   1.803   2.773   1.676 -0.1227 -0.0314 -0.7018
 3340TIP3    H231512   1.847   2.865   1.564 -0.7552  1.3138  0.1342
 3341TIP3   OH231513   2.657   5.821   4.657 -0.2977 -0.3280  0.0319
 3341TIP3    H131514   2.658   5.741   4.605 -1.0812 -0.5632  0.3635
 3341TIP3    H231515   2.574   5.863   4.635  0.5162  0.9010 -0.8724
 3342TIP3   OH231516   5.108   3.550  14.004  0.0029 -0.0281 -0.1287
 3342TIP3    H131517   5.101   3.645  14.008 -0.1782 -0.1000  2.4869
 3342TIP3    H231518   5.201   3.532  14.017 -0.1957 -0.2531  1.0206
 3343TIP3   OH231519   0.494   3.061   5.054  0.6423  0.0804 -0.2099
 3343TIP3    H131520   0.539   2.984   5.018 -1.4360 -1.3862  0.1261
 3343TIP3    H231521   0.514   3.058   5.148  1.4944  0.6429 -0.3641
 3344TIP3   OH231522   5.976   3.873   6.142 -0.3401  0.3765  0.1969
 3344TIP3    H131523   5.973   3.778   6.129  0.5032  0.4163 -0.3126
 3344TIP3    H231524   5.936   3.909   6.063  2.5450  0.5319 -1.3388
 3345TIP3   OH231525   1.786   1.802  15.368  0.0857 -0.5587  0.2796
 3345TIP3    H131526   1.728   1.729  15.349 -0.6602 -0.2836  1.3954
 3345TIP3    H231527   1.795   1.849  15.284 -0.5104 -1.1563 -0.1248
 3346TIP3   OH231528   4.353   0.626  12.915 -0.1178 -0.0969  0.8512
 3346TIP3    H131529   4.404   0.689  12.967 -0.4338  1.2563 -0.4092
 3346TIP3    H231530   4.277   0.606  12.971 -1.0642  2.2427  0.5230
 3347TIP3   OH231531   5.894   5.780   6.293  0.2347 -0.1501 -0.3742
 3347TIP3    H131532   5.811   5.817   6.321  0.0119  0.2162 -1.4773
 3347TIP3    H231533   5.926   5.731   6.369 -1.8610 -1.8021 -0.4778
 3348TIP3   OH231534   2.922   5.319   5.836 -0.0744  0.7690 -0.2131
 3348TIP3    H131535   2.839   5.348   5.798  0.4296  0.7357 -1.3769
 3348TIP3    H231536   2.987   5.335   5.767  0.1283 -4.4348 -1.6773
 3349TIP3   OH231537   2.761   6.638  17.049  0.5100 -0.3549  0.0626
 3349TIP3    H131538   2.744   6.622  16.956 -0.1634  1.5525 -0.1849
 3349TIP3    H231539   2.857   6.635  17.056  0.6750  1.1089 -1.0617
 3350TIP3   OH231540   0.655   4.068   2.133 -0.2401  0.3201 -0.3090
 3350TIP3    H131541   0.585   4.050   2.071  0.2381  0.6845 -0.9607
 3350TIP3    H231542   0.693   3.982   2.151 -0.1721  0.2475 -0.7778
 3351TIP3   OH231543   3.951   5.608   2.089 -0.0410  0.2013  0.3328
 3351TIP3    H131544   3.958   5.591   2.182 -0.2123 -0.2251  0.2674
 3351TIP3    H231545   3.875   5.558   2.060 -1.2692  1.9470  0.3535
 3352TIP3   OH231546   1.585   2.650  12.313  0.0208  0.2966  0.3272
 3352TIP3    H131547   1.651   2.692  12.368  1.4175 -0.6616 -0.5607
 3352TIP3    H231548   1.522   2.613  12.375  0.6095  0.7517  1.2144
 3353TIP3   OH231549   5.233   4.076   1.828 -0.2490 -0.2183  0.5438
 3353TIP3    H131550   5.172   4.026   1.883 -0.6538  0.1837  0.4643
 3353TIP3    H231551   5.188   4.159   1.811 -0.0954 -0.3076 -0.3314
 3354TIP3   OH231552   2.811   4.004   4.172 -0.4961 -0.3155  0.9502
 3354TIP3    H131553   2.819   3.915   4.139  1.9002 -0.4016  1.5825
 3354TIP3    H231554   2.755   4.049   4.108  0.8429 -1.4716 -1.1221
 3355TIP3   OH231555   3.767   4.776  15.096  0.3941 -0.1021 -0.2252
 3355TIP3    H131556   3.806   4.822  15.022  0.2866 -0.7414 -0.6962
 3355TIP3    H231557   3.778   4.834  15.171 -0.7358  1.1730 -1.0106
 3356TIP3   OH231558   2.820   0.707  16.276 -0.1088  0.0857 -0.1845
 3356TIP3    H131559   2.771   0.735  16.198  0.4268  0.7472 -0.2891
 3356TIP3    H231560   2.876   0.636  16.244 -1.4846 -1.1762  0.0884
 3357TIP3   OH231561   4.465   4.599   4.148 -0.3938 -0.2093  0.2650
 3357TIP3    H131562   4.477   4.537   4.220  0.2895  0.7137  0.9809
 3357TIP3    H231563   4.493   4.551   4.070  1.8778 -0.2814  1.0239
 3358TIP3   OH231564   0.953   1.228  16.287 -0.3081 -0.5119 -1.0834
 3358TIP3    H131565   1.021   1.250  16.351  0.4547 -3.0404 -0.9026
 3358TIP3    H231566   1.000   1.214  16.206 -0.6673 -1.7530 -1.0914
 3359TIP3   OH231567   5.886   4.598  12.704 -0.4035 -0.1835  0.0021
 3359TIP3    H131568   5.862   4.507  12.718 -0.4340 -0.2756 -0.6018
 3359TIP3    H231569   5.822   4.648  12.754 -3.3271 -0.3333 -3.1903
 3360TIP3   OH231570   4.041   6.016   0.484  0.4067  0.0475 -0.6079
 3360TIP3    H131571   3.947   6.023   0.468  0.2676  0.8661  0.4379
 3360TIP3    H231572   4.051   6.034   0.578  1.5525 -0.5400 -0.5998
 3361TIP3   OH231573   1.471   1.997   1.552 -0.1714 -0.4432  0.1615
 3361TIP3    H131574   1.550   1.958   1.516 -0.0292 -0.4816  0.5137
 3361TIP3    H231575   1.496   2.027   1.640 -0.5273 -0.3978  0.2509
 3362TIP3   OH231576   1.057   1.239   5.290 -0.2369  0.0096 -0.4038
 3362TIP3    H131577   0.971   1.280   5.283 -1.0855 -1.7242 -0.7470
 3362TIP3    H231578   1.041   1.147   5.270  1.1880 -0.9609  2.3893
 3363TIP3   OH231579   6.813   6.203  13.258 -0.4850 -0.7302 -0.3028
 3363TIP3    H131580   6.795   6.297  13.254 -1.8405 -1.0205 -2.3362
 3363TIP3    H231581   6.908   6.197  13.263 -0.4156  0.7355  0.9088
 3364TIP3   OH231582   1.261   6.580  14.693  0.5064  0.5266 -0.0102
 3364TIP3    H131583   1.343   6.625  14.712  0.5794  0.4578 -0.1662
 3364TIP3    H231584   1.286   6.508  14.635  0.5132 -0.1870  0.8520
 3365TIP3   OH231585   2.088   2.570   5.082  0.1215  0.1552 -0.0839
 3365TIP3    H131586   2.005   2.554   5.128 -1.2602 -1.3215 -2.8412
 3365TIP3    H231587   2.075   2.655   5.040  1.9106  2.1866  3.0438
 3366TIP3   OH231588   2.155   0.062  14.508 -0.0588 -0.0249  0.4259
 3366TIP3    H131589   2.179   0.093  14.421  0.0255  1.6531  1.0148
 3366TIP3    H231590   2.184   0.131  14.568 -2.9480  0.4215  1.5240
 3367TIP3   OH231591   2.830   1.410  16.174  0.4722 -0.1634 -0.3776
 3367TIP3    H131592   2.878   1.389  16.254 -1.1337 -0.4954  0.5386
 3367TIP3    H231593   2.817   1.326  16.131  0.7577 -0.0634 -0.6666
 3368TIP3   OH231594   5.641   4.695  14.236 -0.6627  0.2384  0.2648
 3368TIP3    H131595   5.660   4.615  14.187 -0.6689  0.4545 -0.0925
 3368TIP3    H231596   5.586   4.666  14.309  0.4914 -0.2969  0.9483
 3369TIP3   OH231597   3.518   4.998  14.132 -0.1311 -0.7040  0.1197
 3369TIP3    H131598   3.559   4.917  14.101  0.8443 -0.3287  0.3778
 3369TIP3    H231599   3.425   4.985  14.118  0.1369 -1.2721 -1.2685
 3370TIP3   OH231600   3.448   6.757   1.907 -0.2615  0.7634  0.1435
 3370TIP3    H131601   3.397   6.794   1.979 -0.9334 -1.2370  0.7880
 3370TIP3    H231602   3.509   6.697   1.949 -0.8006 -0.6025 -0.9101
 3371TIP3   OH231603   1.771   0.013   4.699  0.2296  0.8431  0.3035
 3371TIP3    H131604   1.690   0.035   4.743  1.0315  0.7249  1.9136
 3371TIP3    H231605   1.760   0.046   4.610 -1.7354  0.4320  0.3427
 3372TIP3   OH231606   0.050   5.159   1.723 -0.1887 -0.1524 -0.2603
 3372TIP3    H131607  -0.015   5.228   1.736 -0.3790 -0.2256 -0.8265
 3372TIP3    H231608   0.120   5.181   1.785 -1.7280 -1.3257  2.0492
 3373TIP3   OH231609   2.005   0.487   3.006  0.3371 -0.1463 -0.0588
 3373TIP3    H131610   1.950   0.559   2.976  0.9435  0.0725 -0.6722
 3373TIP3    H231611   2.073   0.530   3.058  0.1724 -0.3713  0.3435
 3374TIP3   OH231612   1.006   1.947   0.398  0.1293 -0.1080  0.1978
 3374TIP3    H131613   1.088   1.909   0.431  1.3258  0.5128 -1.8878
 3374TIP3    H231614   0.947   1.947   0.474  1.3314 -2.5248  1.2448
 3375TIP3   OH231615   1.608   6.293   5.896 -0.4351 -0.2873  0.2072
 3375TIP3    H131616   1.659   6.233   5.842 -2.2840 -2.6115  0.8786
 3375TIP3    H231617   1.669   6.322   5.964  0.9015 -0.1722 -0.9778
 3376TIP3   OH231618   1.648   3.987  16.511  0.5108 -0.3251  0.0637
 3376TIP3    H131619   1.736   3.990  16.474  0.2321  1.9787 -0.5816
 3376TIP3    H231620   1.661   3.960  16.602  2.0958  1.4915  0.4382
 3377TIP3   OH231621   5.672   1.273  14.048 -0.0446  0.3564  0.5712
 3377TIP3    H131622   5.612   1.200  14.063  1.0985 -1.0481 -1.2182
 3377TIP3    H231623   5.705   1.295  14.135 -1.0141 -0.7244  1.2504
 3378TIP3   OH231624   5.495   6.250   0.560  0.0276 -0.3336 -0.0090
 3378TIP3    H131625   5.578   6.283   0.594 -0.5798  1.7609 -0.3737
 3378TIP3    H231626   5.450   6.213   0.636 -0.2179  1.9000  1.0302
 3379TIP3   OH231627   6.532   1.176  11.645  0.3785 -0.6859 -0.3316
 3379TIP3    H131628   6.550   1.096  11.695 -0.2664  0.4720  1.8787
 3379TIP3    H231629   6.607   1.233  11.662 -0.8108  0.5302  1.1561
 3380TIP3   OH231630   5.005   3.990  15.172 -0.1519 -0.1290 -0.1670
 3380TIP3    H131631   5.018   3.896  15.185 -1.9377 -0.2356  1.2098
 3380TIP3    H231632   4.915   3.998  15.140 -0.1383  1.1425  0.0598
 3381TIP3   OH231633   2.534   6.474  14.515  0.0181  0.4040 -0.1779
 3381TIP3    H131634   2.465   6.529  14.478 -1.1371 -1.3266 -0.7210
 3381TIP3    H231635   2.549   6.510  14.602 -3.4690 -0.6653  1.0124
 3382TIP3   OH231636   4.461   5.982  11.064 -0.1004 -0.8417 -0.6334
 3382TIP3    H131637   4.536   6.006  11.118 -1.0253  0.8519 -0.0346
 3382TIP3    H231638   4.472   6.032  10.983 -0.2399 -1.1061 -0.8187
 3383TIP3   OH231639   6.513   5.032  14.460 -0.0004 -0.2686 -0.1555
 3383TIP3    H131640   6.545   5.084  14.535  0.3538 -2.0261  0.9582
 3383TIP3    H231641   6.418   5.037  14.466  0.0024  1.3222 -0.8657
 3384TIP3   OH231642   3.158   1.080  12.960 -0.0786  0.3479  0.3755
 3384TIP3    H131643   3.122   1.032  13.035  0.7136  0.1735  0.6608
 3384TIP3    H231644   3.229   1.132  12.998  0.1491  0.4626 -0.2077
 3385TIP3   OH231645   2.740   0.232  15.547  0.1386 -0.5659 -0.1066
 3385TIP3    H131646   2.691   0.170  15.599 -0.0137  1.1441  1.9427
 3385TIP3    H231647   2.680   0.306  15.535  0.9252 -0.0273 -0.8326
 3386TIP3   OH231648   1.373   6.268  11.584  0.7861 -0.0317 -0.1112
 3386TIP3    H131649   1.315   6.285  11.510  0.7273  2.4048  0.4330
 3386TIP3    H231650   1.315   6.261  11.660  0.9179 -1.6982 -0.1187
 3387TIP3   OH231651   5.296   5.890  13.741 -0.1258  0.8273  0.3534
 3387TIP3    H131652   5.229   5.916  13.804  0.7386  0.2260  1.5604
 3387TIP3    H231653   5.293   5.958  13.673 -0.5348  1.9369  1.4433
 3388TIP3   OH231654   2.328   3.716  10.709 -0.3430  0.0614  0.1016
 3388TIP3    H131655   2.294   3.796  10.670  0.9830  0.2024 -0.8480
 3388TIP3    H231656   2.272   3.646  10.674 -0.3054  0.3783 -0.5934
 3389TIP3   OH231657   2.752   4.376  10.486 -0.6460 -0.1685 -0.2076
 3389TIP3    H131658   2.669   4.413  10.455 -0.2655 -0.1529 -1.2642
 3389TIP3    H231659   2.819   4.419  10.432  0.0288 -0.3546  0.4705
 3390TIP3   OH231660   0.374   0.459   6.972  0.0894  0.4579  0.4348
 3390TIP3    H131661   0.387   0.441   7.065  3.9042 -0.7916 -0.1612
 3390TIP3    H231662   0.340   0.377   6.936  1.4060 -0.0823  0.3495
 3391TIP3   OH231663   4.513   4.830  10.886  0.3624 -0.4564 -0.0311
 3391TIP3    H131664   4.464   4.791  10.813  1.9691 -1.3250 -0.7140
 3391TIP3    H231665   4.505   4.924  10.873  0.7344 -0.5940 -1.4428
 3392TIP3   OH231666   5.275   3.425   0.718 -0.2050  0.0114  0.2826
 3392TIP3    H131667   5.320   3.353   0.762 -1.4862 -0.7624  0.3700
 3392TIP3    H231668   5.341   3.494   0.713  1.1574 -1.2486 -0.0489
 3393TIP3   OH231669   6.565   5.732   5.469  0.1177 -0.6989 -0.2584
 3393TIP3    H131670   6.478   5.756   5.437 -0.3633 -2.1792 -0.1043
 3393TIP3    H231671   6.573   5.639   5.451  0.6776 -1.1416  1.9596
 3394TIP3   OH231672   4.300   6.717  14.418  0.0524  0.1507  0.2146
 3394TIP3    H131673   4.321   6.630  14.452  0.1803 -0.6018 -1.6661
 3394TIP3    H231674   4.246   6.700  14.341  1.7687  1.6129 -1.4019
 3395TIP3   OH231675   3.787   3.029  16.561 -0.6377  0.4126  0.0031
 3395TIP3    H131676   3.812   3.068  16.477 -1.9383 -1.1488 -1.1732
 3395TIP3    H231677   3.869   3.022  16.609  0.3983 -0.0342 -1.7490
 3396TIP3   OH231678   3.852   5.305   2.466  0.1335  0.3342  0.3123
 3396TIP3    H131679   3.822   5.276   2.552 -0.8435  0.0586 -0.1047
 3396TIP3    H231680   3.798   5.254   2.404  2.0367 -0.8168 -0.4855
 3397TIP3   OH231681   3.465   6.144  11.926  0.4892  0.0637  0.4503
 3397TIP3    H131682   3.534   6.205  11.900 -0.9666  1.3208 -0.6564
 3397TIP3    H231683   3.467   6.076  11.858 -0.0390  0.6654 -0.1749
 3398TIP3   OH231684   3.384   6.221   1.984  0.6828  0.6751 -0.3213
 3398TIP3    H131685   3.318   6.161   1.950 -0.6180  1.5880  0.4851
 3398TIP3    H231686   3.344   6.308   1.978  0.6729  1.0001  2.6475
 3399TIP3   OH231687   1.911   4.669  13.185  0.1249 -0.4966  0.2237
 3399TIP3    H131688   1.909   4.579  13.152  1.1496 -0.8871  1.1793
 3399TIP3    H231689   1.871   4.721  13.115  1.3478 -1.4225 -1.2375
 3400TIP3   OH231690   0.912   1.825   3.982  0.2013  0.1049 -0.1656
 3400TIP3    H131691   0.839   1.855   4.035  1.8663  3.7621  0.3405
 3400TIP3    H231692   0.897   1.865   3.896  1.2380  0.3466 -0.2443
 3401TIP3   OH231693   2.273   0.783   2.140 -0.6406  0.4278  0.1373
 3401TIP3    H131694   2.178   0.787   2.130 -0.5210  1.3066 -0.9363
 3401TIP3    H231695   2.299   0.874   2.157  0.0479  0.2840 -0.1080
 3402TIP3   OH231696   3.877   0.771  14.717 -0.3343 -0.3798 -0.1910
 3402TIP3    H131697   3.889   0.740  14.627 -1.0504 -0.1120 -0.3864
 3402TIP3    H231698   3.934   0.848  14.723  2.2185 -2.2079  0.6010
 3403TIP3   OH231699   6.126   6.780   1.097  0.0038 -0.2735 -0.1647
 3403TIP3    H131700   6.101   6.858   1.146 -0.8854 -0.9632  0.5163
 3403TIP3    H231701   6.152   6.716   1.163  0.0122 -0.7991 -0.6645
 3404TIP3   OH231702   4.594   0.900  16.584 -0.1902  0.7331  0.2941
 3404TIP3    H131703   4.661   0.963  16.559  1.0437 -0.3936  0.6454
 3404TIP3    H231704   4.515   0.930  16.539  0.8868  1.2615 -1.3380
 3405TIP3   OH231705   3.154   5.123   5.900 -0.3519 -0.0112 -0.6578
 3405TIP3    H131706   3.247   5.146   5.904 -0.5841  0.8832  0.1101
 3405TIP3    H231707   3.111   5.203   5.868 -0.8490 -0.4549 -1.1185
 3406TIP3   OH231708   4.331   0.150  16.681 -0.1572 -0.1062  0.2631
 3406TIP3    H131709   4.305   0.233  16.721  2.6586  0.3356  1.3945
 3406TIP3    H231710   4.380   0.104  16.749  0.2432 -1.7208 -1.0398
 3407TIP3   OH231711   0.053   2.674  15.476 -0.1697 -0.0575  0.0545
 3407TIP3    H131712  -0.018   2.703  15.419 -0.0561  0.7939  0.3299
 3407TIP3    H231713   0.043   2.726  15.556  0.9516  0.3246 -0.0244
 3408TIP3   OH231714   4.437   4.342  10.574 -0.0050 -0.0736 -0.3729
 3408TIP3    H131715   4.441   4.271  10.510 -2.4401  1.5296 -2.4864
 3408TIP3    H231716   4.344   4.353  10.593  0.5485  0.2186  2.7615
 3409TIP3   OH231717   2.522   4.842   2.505 -0.2958 -0.4402 -0.1848
 3409TIP3    H131718   2.439   4.885   2.486 -0.9871 -1.8854 -0.5825
 3409TIP3    H231719   2.517   4.758   2.459  0.3689 -1.6035  1.7223
 3410TIP3   OH231720   1.431   3.834   2.669  0.3572 -0.2971 -0.5988
 3410TIP3    H131721   1.397   3.861   2.584  1.5946 -0.6583 -1.2406
 3410TIP3    H231722   1.462   3.744   2.655 -0.8444 -0.9354  0.6575
 3411TIP3   OH231723   6.241   1.015   3.548  0.6456 -0.3016  0.3581
 3411TIP3    H131724   6.239   1.096   3.497  1.6428  0.5587  1.6166
 3411TIP3    H231725   6.325   0.975   3.524  0.2909 -0.8219 -0.0303
 3412TIP3   OH231726   6.783   5.141   0.785  0.0619  0.0176  0.4590
 3412TIP3    H131727   6.840   5.154   0.861 -1.1026 -0.4944  1.4592
 3412TIP3    H231728   6.824   5.192   0.715  1.7399 -0.3410  1.1250
 3413TIP3   OH231729   5.717   5.733   3.746  0.5374 -0.1542  0.1787
 3413TIP3    H131730   5.799   5.705   3.788  1.9364 -0.9355 -2.8409
 3413TIP3    H231731   5.719   5.829   3.752  0.8117 -0.2252  1.5889
 3414TIP3   OH231732   1.206   4.807  11.255 -0.0060 -0.2799 -0.3867
 3414TIP3    H131733   1.240   4.753  11.326 -0.7872 -0.1499  0.1003
 3414TIP3    H231734   1.135   4.858  11.295 -2.2836 -2.1239 -1.8078
 3415TIP3   OH231735   1.502   4.021  13.794  0.2384 -0.4090  0.1778
 3415TIP3    H131736   1.566   3.951  13.805 -0.2445 -0.6470  1.6716
 3415TIP3    H231737   1.549   4.088  13.743  1.3577 -0.9714  0.4325
 3416TIP3   OH231738   3.941   3.856  14.971  0.0565 -0.4017  0.2816
 3416TIP3    H131739   3.851   3.842  14.944 -0.2311  2.1319 -0.3066
 3416TIP3    H231740   3.967   3.773  15.012 -2.0309 -1.6744 -0.8144
 3417TIP3   OH231741   2.153   5.771  13.890  0.1466 -0.3486  0.0092
 3417TIP3    H131742   2.092   5.698  13.892  0.5356 -0.7147  2.9922
 3417TIP3    H231743   2.160   5.799  13.981  1.9034  1.8325 -0.7024
 3418TIP3   OH231744   6.486   0.821   3.165 -0.3284 -0.1859 -0.1446
 3418TIP3    H131745   6.392   0.828   3.150 -0.8081 -0.5382  2.3875
 3418TIP3    H231746   6.512   0.742   3.116 -1.7496 -1.2347  0.7030
 3419TIP3   OH231747   0.624   6.551  14.032  0.2878  0.1155 -0.5152
 3419TIP3    H131748   0.574   6.520  13.957 -0.3639  1.0591 -0.4910
 3419TIP3    H231749   0.574   6.523  14.109 -0.0280  0.7561 -0.4827
 3420TIP3   OH231750   6.033   0.816   0.609 -0.4067  0.4817  0.1855
 3420TIP3    H131751   6.028   0.746   0.543 -2.8201  0.3607  0.3953
 3420TIP3    H231752   6.126   0.826   0.627  0.1758 -0.9025 -1.7386
 3421TIP3   OH231753   6.254   5.892  12.642 -0.3028 -0.2550  0.1337
 3421TIP3    H131754   6.241   5.969  12.696  0.6334 -0.7143  1.0335
 3421TIP3    H231755   6.347   5.873  12.647 -0.2281 -0.4881 -1.4184
 3422TIP3   OH231756   1.022   2.612  11.012 -0.3633 -0.3653  0.8106
 3422TIP3    H131757   1.007   2.541  11.074 -2.4918 -1.8148 -1.1735
 3422TIP3    H231758   1.055   2.569  10.933 -0.4828  1.0085 -0.0264
 3423TIP3   OH231759   3.968   6.462  14.328 -0.2253  0.0191 -0.0787
 3423TIP3    H131760   3.927   6.400  14.389 -0.3835  0.3068  0.1146
 3423TIP3    H231761   3.936   6.436  14.242  0.2746 -0.6059 -0.0790
 3424TIP3   OH231762   6.169   1.342  11.407 -0.4786 -0.4079  0.2731
 3424TIP3    H131763   6.253   1.299  11.395 -0.0555  0.3875  0.3316
 3424TIP3    H231764   6.188   1.416  11.466 -1.5512 -1.3113  1.8488
 3425TIP3   OH231765   6.037   6.397   4.379 -0.5816  0.4542  0.7486
 3425TIP3    H131766   5.992   6.433   4.303 -1.4079  0.2152  1.1090
 3425TIP3    H231767   6.005   6.448   4.453 -3.3769 -2.2048  1.5871
 3426TIP3   OH231768   0.159   2.311  14.666 -0.4605  0.4492 -0.3138
 3426TIP3    H131769   0.195   2.399  14.660 -0.1124  0.3322  0.0436
 3426TIP3    H231770   0.203   2.262  14.597  0.7309  0.0809  0.6759
 3427TIP3   OH231771   1.433   0.560   6.225  0.0937  0.1020 -0.5892
 3427TIP3    H131772   1.443   0.523   6.313  0.1687  0.6633 -0.3554
 3427TIP3    H231773   1.348   0.529   6.196 -1.1144  1.9688  0.7201
 3428TIP3   OH231774   6.337   1.337  11.782  0.2434  0.7087  0.2088
 3428TIP3    H131775   6.352   1.300  11.869  1.7847  2.1835  0.6173
 3428TIP3    H231776   6.394   1.287  11.724 -0.7765 -0.2674  0.0017
 3429TIP3   OH231777   5.891   5.791  15.743  0.0402  0.0365 -0.5715
 3429TIP3    H131778   5.875   5.775  15.836 -0.5526 -0.3192 -0.7291
 3429TIP3    H231779   5.874   5.885  15.732 -0.2899 -0.0030 -0.4050
 3430TIP3   OH231780   1.556   6.510  11.018 -0.5498  0.4218 -0.3373
 3430TIP3    H131781   1.644   6.471  11.020 -0.4382  0.5723 -1.6008
 3430TIP3    H231782   1.571   6.602  11.037 -1.0103 -0.2605  4.7163
 3431TIP3   OH231783   1.232   2.276   1.805  0.1859  0.1583  0.0617
 3431TIP3    H131784   1.299   2.344   1.796  0.1063  0.3120  0.6157
 3431TIP3    H231785   1.167   2.314   1.864  0.7546 -0.8491  1.3930
 3432TIP3   OH231786   5.468   6.635  16.926  0.3494  0.0449 -0.3774
 3432TIP3    H131787   5.521   6.715  16.924 -0.4181  0.5510 -0.7586
 3432TIP3    H231788   5.378   6.665  16.915 -0.1582 -0.7097  1.3957
 3433TIP3   OH231789   4.929   3.137  13.353  0.1557 -0.1734  0.1352
 3433TIP3    H131790   4.893   3.224  13.367 -1.6334 -0.5740 -1.4811
 3433TIP3    H231791   4.955   3.136  13.260 -0.0418 -1.3892  0.0738
 3434TIP3   OH231792   1.984   2.065  14.936 -0.4278  0.2787 -0.5133
 3434TIP3    H131793   1.995   2.022  14.851 -1.5232 -0.2799 -0.3974
 3434TIP3    H231794   2.071   2.066  14.975  0.2168  1.1765 -1.9363
 3435TIP3   OH231795   1.389   2.154   5.477 -0.1397 -0.2373  0.3236
 3435TIP3    H131796   1.405   2.164   5.571 -0.3213 -1.3775  0.4873
 3435TIP3    H231797   1.330   2.226   5.455  1.2259  1.0769  0.7128
 3436TIP3   OH231798   2.773   2.152  13.329  0.3198 -0.8501  0.4436
 3436TIP3    H131799   2.690   2.112  13.306  0.2812 -1.0261  0.8816
 3436TIP3    H231800   2.839   2.092  13.293  0.2586 -0.8279  0.2941
 3437TIP3   OH231801   1.244   6.761  14.393  0.0774  0.2229  0.5635
 3437TIP3    H131802   1.191   6.681  14.391  1.6377 -0.8730  0.0364
 3437TIP3    H231803   1.192   6.826  14.347 -0.5628 -0.9817 -0.4885
 3438TIP3   OH231804   1.354   5.609   1.279  0.2627 -0.2278  0.2249
 3438TIP3    H131805   1.349   5.698   1.315 -0.3080 -0.1092 -0.1297
 3438TIP3    H231806   1.421   5.565   1.332  0.1078  0.2252  0.8070
 3439TIP3   OH231807   0.228   5.314  12.459  0.0331  0.2287  0.2681
 3439TIP3    H131808   0.189   5.227  12.454 -1.1521  0.7947 -0.7915
 3439TIP3    H231809   0.304   5.309  12.401 -0.1746 -0.0387  0.0138
 3440TIP3   OH231810   3.793   6.605   1.105 -0.5955  0.1929 -0.0274
 3440TIP3    H131811   3.760   6.633   1.190 -1.5691  0.4693 -0.4806
 3440TIP3    H231812   3.786   6.683   1.050  1.3673  0.4215 -0.0092
 3441TIP3   OH231813   5.845   0.645   2.424  0.1706 -0.3484 -0.2697
 3441TIP3    H131814   5.815   0.644   2.333 -0.7929 -1.7720  0.0279
 3441TIP3    H231815   5.938   0.665   2.418  0.0428 -0.0240 -1.5370
 3442TIP3   OH231816   5.482   5.295   1.542  0.1640  0.4558 -0.0975
 3442TIP3    H131817   5.403   5.282   1.595 -0.0882 -0.7890 -0.7355
 3442TIP3    H231818   5.538   5.221   1.565  0.3304  0.2719 -1.0624
 3443TIP3   OH231819   1.360   6.633   1.694  0.4838 -0.6654  0.7447
 3443TIP3    H131820   1.275   6.657   1.658  1.3297  0.2692 -0.7599
 3443TIP3    H231821   1.348   6.634   1.789 -0.7933  1.0209  0.6114
 3444TIP3   OH231822   2.888   0.258   3.797  0.0666 -0.4020 -0.1747
 3444TIP3    H131823   2.858   0.308   3.722  2.8881  0.1191 -1.0544
 3444TIP3    H231824   2.929   0.180   3.760  0.7887 -0.5370  0.8466
 3445TIP3   OH231825   4.279   0.416  15.625  0.1238 -0.0799  0.9371
 3445TIP3    H131826   4.241   0.355  15.688 -1.6679 -0.7663 -0.7084
 3445TIP3    H231827   4.257   0.502  15.660 -0.8444 -0.4482  1.2787
 3446TIP3   OH231828   5.437   3.607   2.453  0.2431  0.2780 -0.1013
 3446TIP3    H131829   5.485   3.690   2.444 -0.7927  0.9285  0.2118
 3446TIP3    H231830   5.378   3.605   2.378 -2.2086  1.5347  1.6643
 3447TIP3   OH231831   1.117   0.656   4.386  0.2226 -0.2859 -0.4501
 3447TIP3    H131832   1.182   0.725   4.394 -1.0312  1.0254 -1.1432
 3447TIP3    H231833   1.074   0.653   4.472 -0.8288  0.9773 -0.9047
 3448TIP3   OH231834   1.883   0.302   5.517 -0.1963 -0.1425 -0.4670
 3448TIP3    H131835   1.829   0.377   5.491  1.3121  1.1740  0.0068
 3448TIP3    H231836   1.965   0.342   5.547  0.2948 -1.9475  0.6975
 3449TIP3   OH231837   5.841   1.377   3.040  0.5068  0.0151  0.1783
 3449TIP3    H131838   5.862   1.428   3.119 -1.3290  0.4202  0.4520
 3449TIP3    H231839   5.896   1.415   2.972 -0.7545  2.4035  0.3867
 3450TIP3   OH231840   4.969   2.250  13.301 -0.4296 -0.2447 -0.0287
 3450TIP3    H131841   4.957   2.183  13.234 -0.5895 -0.1125 -0.1352
 3450TIP3    H231842   5.004   2.204  13.376 -3.3554 -1.0292  0.9918
 3451TIP3   OH231843   2.782   1.156  14.907 -0.1513  0.5375 -0.3187
 3451TIP3    H131844   2.740   1.188  14.827  0.5571  0.5783 -0.6915
 3451TIP3    H231845   2.763   1.062  14.908 -1.3264  0.7725  0.2040
 3452TIP3   OH231846   4.415   0.085   4.078  0.3422 -0.4391  0.1887
 3452TIP3    H131847   4.324   0.110   4.065  0.1627 -0.3258  1.4705
 3452TIP3    H231848   4.411   0.003   4.128  0.9391 -2.3111 -2.5743
 3453TIP3   OH231849   4.917   0.458  11.178 -0.1046 -0.0940 -0.5907
 3453TIP3    H131850   4.906   0.553  11.187 -1.2687 -0.1128 -1.5643
 3453TIP3    H231851   4.928   0.444  11.084  2.1217 -0.7617 -0.2855
 3454TIP3   OH231852   3.249   2.741   3.149 -0.4874  0.0935 -0.5108
 3454TIP3    H131853   3.211   2.672   3.204  1.8416 -0.5161  0.4533
 3454TIP3    H231854   3.230   2.713   3.059 -2.5935  0.0565 -0.1112
 3455TIP3   OH231855   5.723   2.994  14.044 -0.6972  0.0368  0.2141
 3455TIP3    H131856   5.768   2.913  14.068 -1.1588 -0.5367 -0.8063
 3455TIP3    H231857   5.736   3.001  13.949 -0.1403  1.4839  0.3675
 3456TIP3   OH231858   0.503   0.624   1.770  0.4257  0.4312  0.4635
 3456TIP3    H131859   0.530   0.623   1.861 -0.1370  0.5003  0.6338
 3456TIP3    H231860   0.435   0.557   1.764  1.4544 -0.5913 -0.2199
 3457TIP3   OH231861   4.387   4.514   2.817 -0.0633 -0.1461  0.3685
 3457TIP3    H131862   4.358   4.437   2.769  3.3219 -2.0273  1.0063
 3457TIP3    H231863   4.403   4.483   2.906  1.7808  1.1203  0.5451
 3458TIP3   OH231864   1.974   3.505  16.830  0.4272 -0.1236 -0.0378
 3458TIP3    H131865   1.883   3.480  16.847  0.2924 -0.1826 -0.8347
 3458TIP3    H231866   2.003   3.544  16.913 -1.1787  2.4586 -0.5565
 3459TIP3   OH231867   4.060   3.697  16.297 -0.5556 -0.7789  0.3539
 3459TIP3    H131868   4.077   3.631  16.364  0.8671  0.2030  1.0159
 3459TIP3    H231869   4.103   3.776  16.330  1.4742 -0.6013 -2.3235
 3460TIP3   OH231870   2.192   3.451  12.710  0.0314  0.2952 -0.0207
 3460TIP3    H131871   2.254   3.411  12.771  0.7591  1.0737 -0.2253
 3460TIP3    H231872   2.186   3.390  12.637 -0.9658 -0.7228  0.8831
 3461TIP3   OH231873   2.373   1.106  15.148 -0.1574 -0.2546 -0.6116
 3461TIP3    H131874   2.466   1.084  15.155 -0.1381 -0.8332 -2.1157
 3461TIP3    H231875   2.339   1.096  15.236  1.3322  0.6242  0.1033
 3462TIP3   OH231876   0.308   0.230   4.535  0.2235 -0.6995 -0.0874
 3462TIP3    H131877   0.226   0.278   4.526 -0.3334 -1.3286  1.2781
 3462TIP3    H231878   0.376   0.294   4.513 -0.6034 -0.0244 -0.7437
 3463TIP3   OH231879   3.635   2.973   3.638 -0.1041  0.0784 -0.3474
 3463TIP3    H131880   3.555   2.965   3.689  0.2643  0.3802  0.2816
 3463TIP3    H231881   3.683   2.892   3.656  0.3947  0.5392  0.4336
 3464TIP3   OH231882   4.394   0.436   1.570  0.3387  0.2360 -0.0355
 3464TIP3    H131883   4.363   0.427   1.661 -0.8783 -1.4137 -0.5615
 3464TIP3    H231884   4.480   0.394   1.570 -0.8546 -2.4399 -0.1715
 3465TIP3   OH231885   1.547   5.628  13.330  0.2795  0.4430 -0.0316
 3465TIP3    H131886   1.587   5.594  13.410 -0.8325 -2.9933 -0.7820
 3465TIP3    H231887   1.464   5.581  13.322 -0.1845  1.4915 -2.6572
 3466TIP3   OH231888   2.106   1.185  15.706  0.0516 -0.5748  0.3012
 3466TIP3    H131889   2.021   1.142  15.698  0.5153 -1.3245 -0.9972
 3466TIP3    H231890   2.104   1.226  15.792 -1.0902 -1.7410  0.8765
 3467TIP3   OH231891   2.331   1.632   0.066 -0.2338  0.1630 -0.6331
 3467TIP3    H131892   2.418   1.600   0.087 -0.9265 -1.3525  0.0878
 3467TIP3    H231893   2.345   1.720   0.032  1.3752  0.9408  1.7806
 3468TIP3   OH231894   6.259   0.945  15.870 -0.2324 -0.0359  0.0920
 3468TIP3    H131895   6.229   0.854  15.880 -1.3043  0.3370  0.3509
 3468TIP3    H231896   6.289   0.950  15.779 -1.7531 -0.2056 -0.4412
 3469TIP3   OH231897   4.410   3.489   5.121  0.2253 -0.5625 -0.6113
 3469TIP3    H131898   4.367   3.551   5.061 -1.3685 -1.5448 -0.5429
 3469TIP3    H231899   4.378   3.403   5.094  1.3131 -1.2448  0.1796
 3470TIP3   OH231900   4.877   5.098  15.499 -0.0189 -0.4549  0.2498
 3470TIP3    H131901   4.860   5.144  15.581 -0.0199  0.0668 -0.0381
 3470TIP3    H231902   4.790   5.083  15.461 -0.0186 -0.6990  0.3408
 3471TIP3   OH231903   3.481   5.474  15.976 -0.3119 -0.5765 -0.3329
 3471TIP3    H131904   3.404   5.514  15.936 -0.9788 -1.5826 -0.0993
 3471TIP3    H231905   3.489   5.517  16.061 -0.3528 -0.1534 -0.5435
 3472TIP3   OH231906   3.821   5.549   6.136 -0.0143 -0.0122 -0.4195
 3472TIP3    H131907   3.810   5.473   6.079  1.0791 -1.5623  1.2960
 3472TIP3    H231908   3.734   5.565   6.173 -0.4009  0.0520 -1.3402
 3473TIP3   OH231909   5.968   5.258   4.118  0.5128 -0.0662  0.2049
 3473TIP3    H131910   5.894   5.229   4.064  0.4470 -0.1783  0.3541
 3473TIP3    H231911   5.976   5.190   4.185  1.3713 -0.5718 -0.3906
 3474TIP3   OH231912   2.164   4.720   4.695  0.4336  0.0470  0.4770
 3474TIP3    H131913   2.081   4.678   4.674  1.0966 -1.2077  0.2916
 3474TIP3    H231914   2.148   4.765   4.778 -0.4084 -0.2063  0.4590
 3475TIP3   OH231915   1.269   5.933  14.854  0.0206  0.0759  0.4823
 3475TIP3    H131916   1.177   5.917  14.873 -0.0100  0.0380  0.3007
 3475TIP3    H231917   1.302   5.977  14.933 -0.6215  1.9208 -0.2302
 3476TIP3   OH231918   5.200   5.557  15.999  0.2267 -0.5457  0.1451
 3476TIP3    H131919   5.127   5.553  15.938 -2.0016 -0.2880  2.6380
 3476TIP3    H231920   5.269   5.504  15.958 -1.2231 -0.6000 -2.4020
 3477TIP3   OH231921   0.910   0.237   5.210  0.4541 -0.3281 -0.1406
 3477TIP3    H131922   1.002   0.224   5.235  0.1968  1.4540  2.1506
 3477TIP3    H231923   0.911   0.234   5.114  3.3450  1.7941 -0.3349
 3478TIP3   OH231924   0.136   4.867   3.058 -0.1267  0.0838 -0.2592
 3478TIP3    H131925   0.088   4.828   3.132  0.6110  0.8357  0.6514
 3478TIP3    H231926   0.180   4.794   3.016 -0.3536 -0.3239  0.2038
 3479TIP3   OH231927   6.003   1.717   6.524  0.8027 -0.2555 -0.0514
 3479TIP3    H131928   5.976   1.663   6.599  2.6478 -1.9311 -0.5099
 3479TIP3    H231929   6.096   1.733   6.538  0.8205  0.7830 -1.1827
 3480TIP3   OH231930   3.180   4.593  11.103 -0.0815 -0.1071 -0.2327
 3480TIP3    H131931   3.232   4.521  11.137 -0.7351 -0.9306 -0.9189
 3480TIP3    H231932   3.209   4.670  11.152  1.0106 -0.7381  0.1270
 3481TIP3   OH231933   0.123   0.588  13.143 -0.1887 -0.1311  0.6137
 3481TIP3    H131934   0.042   0.581  13.193 -0.5119 -1.5955 -0.0611
 3481TIP3    H231935   0.107   0.661  13.083 -2.1922 -2.1075 -1.4736
 3482TIP3   OH231936   2.449   2.624  12.764  0.2709 -0.1745  0.1084
 3482TIP3    H131937   2.368   2.655  12.803 -0.3867 -1.6557 -0.0033
 3482TIP3    H231938   2.477   2.552  12.820  0.7102 -0.6311 -0.6697
 3483TIP3   OH231939   4.667   2.236   4.099 -0.3503  0.7242  0.2694
 3483TIP3    H131940   4.629   2.268   4.181 -2.2950 -0.4569 -0.0928
 3483TIP3    H231941   4.658   2.310   4.038 -2.2330  0.4562  0.1762
 3484TIP3   OH231942   5.866   2.031   1.636  0.1791  1.0253  0.4219
 3484TIP3    H131943   5.824   2.077   1.708 -1.9321 -3.7309  2.6809
 3484TIP3    H231944   5.950   2.002   1.671  0.3822  1.0155 -0.0596
 3485TIP3   OH231945   0.639   6.317   0.103  0.3455 -0.7841 -0.4832
 3485TIP3    H131946   0.628   6.246   0.040 -0.2134 -1.7458  0.6727
 3485TIP3    H231947   0.661   6.393   0.049 -1.5468 -1.2177 -1.9802
 3486TIP3   OH231948   2.485   4.790   3.777  0.2350 -0.2323 -0.0184
 3486TIP3    H131949   2.535   4.818   3.700 -0.3099  0.3021 -0.1850
 3486TIP3    H231950   2.412   4.852   3.782 -0.8112 -1.4151 -0.1729
 3487TIP3   OH231951   5.801   4.613   0.638  0.1855 -0.2858  0.0937
 3487TIP3    H131952   5.832   4.531   0.601  0.3261  0.1599 -0.8283
 3487TIP3    H231953   5.733   4.588   0.700 -1.3767 -1.0191 -1.8090
 3488TIP3   OH231954   0.757   5.197  17.161  0.2089 -0.1099  0.5756
 3488TIP3    H131955   0.771   5.209  17.255 -1.3336  0.5097  0.7610
 3488TIP3    H231956   0.780   5.106  17.144 -1.2045 -0.7613  1.9193
 3489TIP3   OH231957   6.444   1.903  13.273  0.1602 -0.2781 -0.1377
 3489TIP3    H131958   6.456   1.918  13.179 -0.2285 -0.2453 -0.1832
 3489TIP3    H231959   6.533   1.909  13.309  0.1509  1.2206 -0.2816
 3490TIP3   OH231960   6.778   2.712   3.419 -0.1147  0.2814  0.4559
 3490TIP3    H131961   6.835   2.788   3.417 -0.0665  0.2839  1.6505
 3490TIP3    H231962   6.732   2.715   3.335  2.1986 -0.1695 -0.9343
 3491TIP3   OH231963   5.002   2.785  16.225  0.1541 -0.0930  0.2899
 3491TIP3    H131964   4.908   2.784  16.245  0.2104  0.0479  0.5589
 3491TIP3    H231965   5.013   2.861  16.168  0.1626  0.0825  0.5278
 3492TIP3   OH231966   2.394   0.277  14.829 -0.0012  0.5669  0.2295
 3492TIP3    H131967   2.299   0.265  14.837 -0.1680  1.8680  0.4352
 3492TIP3    H231968   2.431   0.192  14.852 -1.0731  0.3280  1.1596
 3493TIP3   OH231969   4.317   1.361   3.209 -0.2472  0.0644  0.6953
 3493TIP3    H131970   4.376   1.328   3.141 -0.1764  0.2069  0.6881
 3493TIP3    H231971   4.368   1.352   3.290 -0.7906 -1.3154  0.9151
 3494TIP3   OH231972   0.992   6.456  10.934 -0.3308 -0.7402 -0.0501
 3494TIP3    H131973   0.972   6.391  11.002 -1.6160 -1.2475 -0.8799
 3494TIP3    H231974   0.923   6.445  10.869 -0.3837  1.2191 -0.3995
 3495TIP3   OH231975   4.207   5.095   1.594  0.4218 -0.6639  0.0220
 3495TIP3    H131976   4.144   5.077   1.524  0.4908 -1.1920  0.0928
 3495TIP3    H231977   4.288   5.117   1.549  0.1832  0.0520 -0.0707
 3496TIP3   OH231978   5.119   6.471  15.925 -0.4076  0.1126 -0.4078
 3496TIP3    H131979   5.106   6.440  15.836 -1.6707 -0.7400  0.0401
 3496TIP3    H231980   5.096   6.564  15.923  1.4842  0.6086 -1.3508
 3497TIP3   OH231981   1.834   3.826   0.558  0.3973  0.2077 -0.2521
 3497TIP3    H131982   1.765   3.831   0.492  1.3324  1.5586 -1.1602
 3497TIP3    H231983   1.791   3.855   0.639 -0.7457 -1.4447 -0.2142
 3498TIP3   OH231984   0.956   1.253  13.729 -0.2467 -0.4932 -0.2217
 3498TIP3    H131985   0.868   1.249  13.767 -0.6243  0.0754 -1.0132
 3498TIP3    H231986   0.962   1.340  13.691 -0.1365 -1.2375 -2.0391
 3499TIP3   OH231987   4.298   3.316   2.770  0.1257 -0.2148 -0.4483
 3499TIP3    H131988   4.346   3.237   2.797  0.0949 -0.8282 -2.0407
 3499TIP3    H231989   4.206   3.289   2.772 -0.3200  1.1063  3.0817
 3500TIP3   OH231990   6.267   2.420   4.174 -0.2982 -0.5810  0.4555
 3500TIP3    H131991   6.225   2.335   4.159 -2.0737  0.7038 -2.8973
 3500TIP3    H231992   6.351   2.413   4.130  0.6629 -1.2822  2.2761
 3501TIP3   OH231993   3.626   0.139   0.903  0.1195 -0.3538  0.3492
 3501TIP3    H131994   3.570   0.139   0.825 -1.6045 -1.5102  1.5098
 3501TIP3    H231995   3.682   0.062   0.893  0.2947 -0.1819 -0.0004
 3502TIP3   OH231996   6.256   3.949  11.934  0.3961 -0.3086 -0.2435
 3502TIP3    H131997   6.226   3.995  12.013 -0.1380 -1.5174  0.2784
 3502TIP3    H231998   6.207   3.990  11.863 -0.0388 -0.0337  0.2075
 3503TIP3   OH231999   6.037   2.138  13.716 -0.1808  0.1017 -0.1372
 3503TIP3    H132000   6.063   2.188  13.794 -0.2069  1.0380 -0.7096
 3503TIP3    H232001   6.040   2.202  13.645  0.2631 -0.8394 -0.9877
 3504TIP3   OH232002   5.499   5.417  15.199 -0.7582 -0.2198  0.6472
 3504TIP3    H132003   5.472   5.461  15.119 -2.4670 -3.0949 -0.5086
 3504TIP3    H232004   5.461   5.470  15.269 -0.1586  1.7466 -0.4314
 3505TIP3   OH232005   1.458   3.441   1.825  0.0533 -0.4580  0.0151
 3505TIP3    H132006   1.433   3.357   1.787  1.9337 -0.9632 -0.2297
 3505TIP3    H232007   1.452   3.429   1.919  0.1029 -0.8126 -0.0273
 3506TIP3   OH232008   2.252   3.355  14.632  0.2947  0.4766  0.3144
 3506TIP3    H132009   2.173   3.390  14.590 -0.5523 -1.0992  0.5218
 3506TIP3    H232010   2.265   3.411  14.709 -1.8209 -0.4128  1.4105
 3507TIP3   OH232011   3.263   4.163  15.424 -0.5020 -0.4958  1.0514
 3507TIP3    H132012   3.355   4.141  15.411 -0.2037  0.2507  1.7540
 3507TIP3    H232013   3.217   4.119  15.353  0.1194 -2.7364  1.9796
 3508TIP3   OH232014   5.538   4.438   4.045 -0.8597  0.1988  0.3559
 3508TIP3    H132015   5.509   4.524   4.014  3.5546  2.5040  1.6933
 3508TIP3    H232016   5.524   4.441   4.140  1.5361  0.6031  0.7531
 3509TIP3   OH232017   6.489   6.503   4.056 -0.1534 -0.1040  0.2352
 3509TIP3    H132018   6.509   6.418   4.016  1.9529  1.6113 -2.7646
 3509TIP3    H232019   6.431   6.546   3.994 -0.9312  0.8049  1.5460
 3510TIP3   OH232020   4.932   2.589   1.288  0.3131 -0.3209  0.0255
 3510TIP3    H132021   4.838   2.606   1.291  0.1232 -1.4582  0.9871
 3510TIP3    H232022   4.940   2.503   1.247  1.1218  0.8572 -2.5153
 3511TIP3   OH232023   5.174   5.208   1.229  0.3920 -0.4461 -0.0984
 3511TIP3    H132024   5.267   5.233   1.224  0.8911 -0.8708  3.7276
 3511TIP3    H232025   5.156   5.168   1.144  4.1744 -1.6936 -0.5463
 3512TIP3   OH232026   0.367   0.532   4.595 -0.7271 -0.1175  0.7432
 3512TIP3    H132027   0.300   0.509   4.659 -0.1950 -4.1285  0.0957
 3512TIP3    H232028   0.450   0.514   4.639 -0.3469 -2.6153 -0.7905
 3513TIP3   OH232029   3.281   4.846   0.885  0.5104 -0.2682  0.4492
 3513TIP3    H132030   3.205   4.902   0.901  0.2110 -1.0920  2.2068
 3513TIP3    H232031   3.251   4.785   0.817 -0.0527  0.0429  0.4112
 3514TIP3   OH232032   3.005   5.183   4.699 -0.1991 -0.4560 -0.3767
 3514TIP3    H132033   2.985   5.091   4.682  0.3475 -0.5879 -0.3273
 3514TIP3    H232034   2.929   5.216   4.747  0.2575 -1.2951  0.9706
 3515TIP3   OH232035   2.445   2.616   0.433  0.0495 -0.3507  0.6095
 3515TIP3    H132036   2.525   2.575   0.402 -0.5674 -1.0539 -0.0916
 3515TIP3    H232037   2.468   2.651   0.520  1.7072  1.3566 -0.4442
 3516TIP3   OH232038   5.974   4.341   5.704  0.0232  0.1354  0.2846
 3516TIP3    H132039   6.033   4.406   5.665  0.8019 -0.1753  0.9164
 3516TIP3    H232040   5.945   4.382   5.785 -1.6488  0.8099 -0.6064
 3517TIP3   OH232041   3.840   4.189  16.050  0.3245  0.0355  0.3261
 3517TIP3    H132042   3.907   4.122  16.061  0.6900  0.4244  0.5185
 3517TIP3    H232043   3.882   4.255  15.995 -0.1067  0.0019 -0.0424
 3518TIP3   OH232044   3.462   2.376  16.912  0.2898 -0.0735  0.1049
 3518TIP3    H132045   3.507   2.422  16.842  0.0257 -0.6243 -0.4326
 3518TIP3    H232046   3.495   2.286  16.907 -0.4508 -0.3520  0.0472
 3519TIP3   OH232047   0.101   6.586  16.369 -0.3665 -0.0745  0.0161
 3519TIP3    H132048   0.086   6.492  16.363 -0.4777 -0.0094 -0.8809
 3519TIP3    H232049   0.016   6.623  16.391 -0.8881  0.0086 -1.9494
 3520TIP3   OH232050   2.656   3.174  12.418  0.1823 -0.1258 -0.3101
 3520TIP3    H132051   2.730   3.113  12.418 -0.1203 -0.6880  3.0823
 3520TIP3    H232052   2.649   3.203  12.327  3.8059 -0.9347 -1.0160
 3521TIP3   OH232053   4.860   3.703   0.588 -0.1457 -0.1057  0.3296
 3521TIP3    H132054   4.890   3.792   0.605 -1.2616  0.0782  1.4402
 3521TIP3    H232055   4.938   3.649   0.599  0.8107  0.8078 -1.4511
 3522TIP3   OH232056   0.042   0.447  15.193 -0.1026  0.1342 -0.4985
 3522TIP3    H132057   0.051   0.540  15.173 -0.8083  0.1723 -0.6732
 3522TIP3    H232058  -0.023   0.444  15.264 -1.1283 -0.3039 -1.4193
 3523TIP3   OH232059   5.832   2.826  10.903 -0.1693  0.2617 -0.1341
 3523TIP3    H132060   5.913   2.865  10.869  0.6169 -1.2456 -0.0971
 3523TIP3    H232061   5.765   2.849  10.839  0.5049  0.6849 -0.6973
 3524TIP3   OH232062   3.759   1.257  13.796 -0.3170  0.0866  0.6462
 3524TIP3    H132063   3.744   1.190  13.862 -2.7285  0.4274  0.5380
 3524TIP3    H232064   3.844   1.295  13.818  0.1842 -1.6513  1.8675
 3525TIP3   OH232065   6.410   5.984  13.232 -0.0957 -0.3859  0.1263
 3525TIP3    H132066   6.469   6.057  13.216 -0.9104  0.3888  0.5791
 3525TIP3    H232067   6.360   6.010  13.309  1.1132 -2.3671  1.7079
 3526TIP3   OH232068   5.989   4.883   4.185 -0.0891  0.1357 -0.3009
 3526TIP3    H132069   5.932   4.851   4.256 -0.2276  1.5120  0.2303
 3526TIP3    H232070   6.030   4.961   4.221  1.6440 -0.4461 -0.9237
 3527TIP3   OH232071   4.050   0.738   3.615  0.2884 -0.2099 -0.6371
 3527TIP3    H132072   4.120   0.746   3.551  1.4133  1.7475  0.7235
 3527TIP3    H232073   4.006   0.823   3.614 -0.3957 -0.5294  0.3835
 3528TIP3   OH232074   2.982   0.210  15.198 -0.2461 -0.1399 -0.0924
 3528TIP3    H132075   2.977   0.295  15.242 -0.2256  0.5722 -1.4393
 3528TIP3    H232076   2.912   0.158  15.238  0.7066 -0.0488  1.8371
 3529TIP3   OH232077   2.641   5.342  14.949  0.5642 -0.4320 -0.5722
 3529TIP3    H132078   2.636   5.411  15.016  3.0858 -0.3839 -0.3259
 3529TIP3    H232079   2.635   5.389  14.866 -0.5921 -0.2721 -0.4164
 3530TIP3   OH232080   3.584   6.529  12.031 -0.3716  0.4077  0.1976
 3530TIP3    H132081   3.554   6.473  11.958 -1.2047 -1.4518  1.8616
 3530TIP3    H232082   3.673   6.553  12.008  1.0311 -3.7641  0.4624
 3531TIP3   OH232083   1.242   4.972   4.140 -0.3188  0.2772  0.5759
 3531TIP3    H132084   1.228   4.907   4.071  0.3168 -1.7434  2.2072
 3531TIP3    H232085   1.310   5.029   4.105 -0.7960  0.0048 -0.8831
 3532TIP3   OH232086   5.239   0.332  12.158  0.6547  0.5892 -0.6786
 3532TIP3    H132087   5.194   0.268  12.213  1.5827  0.3932 -0.1324
 3532TIP3    H232088   5.168   0.387  12.123 -0.0654 -0.1522 -0.4164
 3533TIP3   OH232089   6.746   3.127  12.945  0.0779 -0.8291 -0.2225
 3533TIP3    H132090   6.794   3.159  13.022  2.4673 -3.4664 -0.4596
 3533TIP3    H232091   6.670   3.082  12.982  0.7044 -1.2742  0.5609
 3534TIP3   OH232092   3.701   1.277  15.743 -0.7069 -0.0340 -0.0433
 3534TIP3    H132093   3.652   1.320  15.672 -1.4592 -1.8305 -0.6664
 3534TIP3    H232094   3.649   1.296  15.821 -2.3799 -1.7246 -0.6637
 3535TIP3   OH232095   1.956   6.765   0.244 -0.1639 -0.0725 -0.4989
 3535TIP3    H132096   2.038   6.806   0.271 -1.6961  2.7627  0.2540
 3535TIP3    H232097   1.935   6.807   0.160 -0.5992 -1.1455 -0.9382
 3536TIP3   OH232098   1.404   1.677  11.061  0.2286  0.3491  0.1404
 3536TIP3    H132099   1.372   1.713  11.143  0.1212 -2.3927  1.4039
 3536TIP3    H232100   1.326   1.661  11.009  0.2175  1.0642 -0.0774
 3537TIP3   OH232101   4.535   1.763  13.661  0.0111 -0.7706  0.3221
 3537TIP3    H132102   4.535   1.721  13.747 -3.8332  1.1658  1.4862
 3537TIP3    H232103   4.445   1.754  13.630  0.6153  1.0243 -2.2678
 3538TIP3   OH232104   3.792   4.814   1.518  0.4907  0.2940 -0.1146
 3538TIP3    H132105   3.791   4.909   1.535 -0.5753  0.6317 -1.8742
 3538TIP3    H232106   3.700   4.789   1.513  0.7674 -0.7086 -0.4264
 3539TIP3   OH232107   0.267   0.148  16.973  0.0556  0.3836  0.6836
 3539TIP3    H132108   0.265   0.235  16.934  1.3582  0.5939  1.0294
 3539TIP3    H232109   0.261   0.088  16.898 -2.1672  0.7237  0.5405
 3540TIP3   OH232110   3.125   5.616   0.715 -0.1434  0.1368 -0.5187
 3540TIP3    H132111   3.067   5.541   0.707 -1.1464  0.9686 -1.3510
 3540TIP3    H232112   3.077   5.678   0.771  0.1800  0.6118 -0.7593
 3541TIP3   OH232113   4.724   3.856  14.024  0.0439  0.0905 -0.3118
 3541TIP3    H132114   4.819   3.869  14.023  0.1470 -0.1195  1.9154
 3541TIP3    H232115   4.690   3.934  14.068 -0.6564 -0.5617  0.3274
 3542TIP3   OH232116   6.613   4.640  15.707 -0.0942 -0.3774 -0.0707
 3542TIP3    H132117   6.651   4.560  15.672  1.1738 -0.1154  0.6691
 3542TIP3    H232118   6.564   4.677  15.633 -0.7866 -1.8581 -0.3894
 3543TIP3   OH232119   0.483   2.186  16.861 -0.5484  0.1352  0.3215
 3543TIP3    H132120   0.535   2.106  16.872  0.7958  0.9085 -0.2120
 3543TIP3    H232121   0.517   2.246  16.927  0.0304  1.0352 -0.7673
 3544TIP3   OH232122   5.414   5.026  13.554  0.4357 -0.0445  0.0983
 3544TIP3    H132123   5.336   4.990  13.511  1.5014 -1.0242 -1.1326
 3544TIP3    H232124   5.481   4.958  13.541  1.4277  0.6634  1.3257
 3545TIP3   OH232125   0.913   2.104   2.638  0.3789 -0.0594  0.5184
 3545TIP3    H132126   0.859   2.178   2.610  1.1769  0.4298  0.2405
 3545TIP3    H232127   0.934   2.057   2.558  1.8208  0.7627  0.3858
 3546TIP3   OH232128   2.400   3.693  14.547 -0.2086 -0.1339  0.6607
 3546TIP3    H132129   2.464   3.635  14.589  0.3685 -0.0525 -0.0769
 3546TIP3    H232130   2.316   3.665  14.582  0.0684 -1.3589  0.4175
 3547TIP3   OH232131   6.706   4.930  16.911  0.2497  0.2720  0.0768
 3547TIP3    H132132   6.648   4.892  16.977 -3.1158  0.7484 -2.3638
 3547TIP3    H232133   6.757   4.855  16.879 -0.8717 -0.7167  0.5209
 3548TIP3   OH232134   1.734   2.967  13.531 -0.4544 -0.3714 -0.1044
 3548TIP3    H132135   1.823   2.983  13.563 -0.6740  0.0759  0.2980
 3548TIP3    H232136   1.734   3.005  13.443 -0.6970  1.0809  0.4905
 3549TIP3   OH232137   4.225   0.242   1.689  0.5382 -0.0365 -0.0697
 3549TIP3    H132138   4.200   0.190   1.613  0.1959  0.0056  0.0085
 3549TIP3    H232139   4.152   0.304   1.700  0.3848 -0.3148  0.5368
 3550TIP3   OH232140   6.154   1.345  12.542 -0.4822  0.1008  0.8191
 3550TIP3    H132141   6.114   1.331  12.627  0.2064 -2.1465  0.8420
 3550TIP3    H232142   6.238   1.386  12.562 -0.6682  0.3144  1.1663
 3551TIP3   OH232143   4.989   1.218   1.878  0.0691 -0.4250  0.1843
 3551TIP3    H132144   4.908   1.170   1.896  1.1266 -2.8166 -0.9248
 3551TIP3    H232145   4.989   1.232   1.783  1.4850 -1.6516 -0.0472
 3552TIP3   OH232146   5.136   3.271  17.044 -0.3497  0.1442 -0.7607
 3552TIP3    H132147   5.079   3.319  16.983  0.0786  2.0277  0.2304
 3552TIP3    H232148   5.116   3.308  17.129  0.0626 -1.4691  0.0716
 3553TIP3   OH232149   1.882   3.780  14.533 -0.9035  0.3351  0.8439
 3553TIP3    H132150   1.871   3.863  14.486 -1.8643  0.5259  1.3944
 3553TIP3    H232151   1.801   3.732  14.516 -0.4888 -0.3717  0.7994
 3554TIP3   OH232152   5.199   1.719   0.187 -0.1858 -0.6220 -0.1507
 3554TIP3    H132153   5.172   1.668   0.110 -1.5628  0.3297 -0.3356
 3554TIP3    H232154   5.135   1.696   0.254  0.0759 -0.2591  0.2207
 3555TIP3   OH232155   3.989   5.899  11.233  0.2574 -0.3583 -0.3335
 3555TIP3    H132156   4.021   5.926  11.147 -0.2617  1.0896 -0.0974
 3555TIP3    H232157   3.898   5.872  11.217  0.5669 -1.3657 -0.4512
 3556TIP3   OH232158   6.559   5.146   1.041 -0.1138 -0.0127  0.4048
 3556TIP3    H132159   6.467   5.134   1.064 -0.3379  0.1096 -0.4150
 3556TIP3    H232160   6.606   5.088   1.101 -0.7048  0.1021  0.9860
 3557TIP3   OH232161   4.465   0.948   1.136  0.1836 -0.0998  0.1812
 3557TIP3    H132162   4.409   0.986   1.069 -0.3980  0.3165  0.8787
 3557TIP3    H232163   4.452   0.853   1.128  0.2899 -0.0626 -0.4297
 3558TIP3   OH232164   1.696   1.340   2.231 -0.3178  0.1523 -1.0098
 3558TIP3    H132165   1.656   1.254   2.221  1.3687 -0.7002 -0.7207
 3558TIP3    H232166   1.770   1.326   2.290 -0.3057  1.9027 -0.5621
 3559TIP3   OH232167   0.929   4.269   0.750  0.3009  0.6760 -0.1855
 3559TIP3    H132168   0.869   4.291   0.822  0.2025 -2.3971  0.8395
 3559TIP3    H232169   1.013   4.252   0.794  0.2782 -1.0991 -0.7554
 3560TIP3   OH232170   4.189   0.607   0.638  0.2057  0.8178 -0.5118
 3560TIP3    H132171   4.147   0.692   0.626  1.7920  1.5638 -1.1661
 3560TIP3    H232172   4.272   0.615   0.591  1.6183 -0.1603  1.6409
 3561TIP3   OH232173   4.242   3.583  12.606  0.2179  0.0801 -0.0510
 3561TIP3    H132174   4.317   3.632  12.574 -0.0971 -0.4711 -1.7239
 3561TIP3    H232175   4.280   3.503  12.643  0.4726 -0.2132 -0.9180
 3562TIP3   OH232176   2.411   2.306   6.588  0.5789 -0.5290 -0.3065
 3562TIP3    H132177   2.468   2.331   6.660  0.0616 -1.2569  0.3709
 3562TIP3    H232178   2.323   2.316   6.622  0.3156 -3.5440  0.1763
 3563TIP3   OH232179   0.870   2.090   1.703 -0.4619 -0.3183  0.2315
 3563TIP3    H132180   0.959   2.125   1.702  0.1556 -1.8121 -1.8652
 3563TIP3    H232181   0.821   2.147   1.644 -0.2357 -1.0555 -0.6795
 3564TIP3   OH232182   6.753   4.773  13.263  0.7840  0.3501 -0.3298
 3564TIP3    H132183   6.692   4.835  13.224 -1.3577 -2.0047 -0.9825
 3564TIP3    H232184   6.834   4.783  13.212  1.2512  3.8748  0.8712
 3565TIP3   OH232185   0.670   2.351   3.900 -0.1893  0.3683 -0.1623
 3565TIP3    H132186   0.676   2.427   3.841 -0.1877  0.8836  0.4962
 3565TIP3    H232187   0.667   2.389   3.988  1.3803 -0.4527  0.2706
 3566TIP3   OH232188   4.468   1.151  17.176  0.2325  0.0794  0.0499
 3566TIP3    H132189   4.399   1.217  17.172  0.4449  0.5264  2.1542
 3566TIP3    H232190   4.430   1.081  17.229  0.8292 -0.4088 -0.1588
 3567TIP3   OH232191   0.972   4.761   2.709 -0.0285  0.3924 -0.8029
 3567TIP3    H132192   0.994   4.669   2.720 -2.5024 -0.1299  0.6245
 3567TIP3    H232193   1.054   4.808   2.725  1.6853 -1.5559 -3.2267
 3568TIP3   OH232194   2.869   4.466  14.163 -0.6644 -0.0250  0.5710
 3568TIP3    H132195   2.950   4.467  14.214  0.4438  1.8307 -1.1248
 3568TIP3    H232196   2.809   4.412  14.215  0.3225  1.8202  3.9221
 3569TIP3   OH232197   4.431   2.672  11.518 -0.4166 -0.3885  0.0330
 3569TIP3    H132198   4.438   2.764  11.490  0.5156 -0.6367 -0.6231
 3569TIP3    H232199   4.345   2.666  11.558 -0.4608  0.8001  0.1699
 3570TIP3   OH232200   4.946   4.031  14.540  0.3989 -0.5897 -0.1290
 3570TIP3    H132201   4.892   3.960  14.504 -0.3505 -0.2981  0.4066
 3570TIP3    H232202   4.931   4.105  14.480  2.3005 -1.2526 -1.5415
 3571TIP3   OH232203   1.308   6.273  16.072  0.9446 -0.1585 -0.2870
 3571TIP3    H132204   1.368   6.343  16.100  1.2840  0.5946 -2.6676
 3571TIP3    H232205   1.365   6.208  16.031  0.3443 -0.3949 -0.7567
 3572TIP3   OH232206   4.389   1.338  13.585  0.2574  0.4772 -0.2254
 3572TIP3    H132207   4.425   1.260  13.627  0.2423  1.2197  1.2280
 3572TIP3    H232208   4.454   1.363  13.520  0.3011 -0.6809 -0.6415
 3573TIP3   OH232209   6.187   6.611   4.941  0.0096 -0.0991  0.0898
 3573TIP3    H132210   6.141   6.534   4.975 -1.1616  0.1461 -0.8872
 3573TIP3    H232211   6.124   6.682   4.948  0.9780  0.7150  0.6896
 3574TIP3   OH232212   6.032   3.656  13.662 -0.0138 -0.7603 -0.5506
 3574TIP3    H132213   6.011   3.608  13.743 -0.6595  1.3549  0.6073
 3574TIP3    H232214   5.985   3.609  13.594  1.5968 -3.4009  0.0129
 3575TIP3   OH232215   3.797   5.076  12.872  0.2361 -0.4021 -0.0300
 3575TIP3    H132216   3.792   5.152  12.931 -2.1602  0.1659 -0.8491
 3575TIP3    H232217   3.765   5.003  12.925 -1.2766 -0.0230 -0.3887
 3576TIP3   OH232218   6.184   6.024   4.849  0.7759  0.3020  0.4163
 3576TIP3    H132219   6.213   6.096   4.792 -1.0696  0.1767 -0.7714
 3576TIP3    H232220   6.131   6.067   4.916 -1.0118  0.0550 -0.7610
 3577TIP3   OH232221   5.421   6.351   4.508 -0.0850 -0.2152  0.2155
 3577TIP3    H132222   5.423   6.443   4.532 -1.9199 -0.0895  0.0402
 3577TIP3    H232223   5.469   6.346   4.426 -1.7266  0.9757 -0.8650
 3578TIP3   OH232224   0.016   0.418   2.006 -0.0862 -0.3805 -0.1084
 3578TIP3    H132225   0.000   0.338   1.956  1.6873 -0.1088 -1.1778
 3578TIP3    H232226   0.053   0.387   2.089 -2.1094 -0.7779  0.7001
 3579TIP3   OH232227   5.470   3.515   2.157 -0.0197 -0.3915  1.1452
 3579TIP3    H132228   5.561   3.505   2.186 -0.1180  0.6872  1.8998
 3579TIP3    H232229   5.470   3.594   2.102 -0.2219 -1.2845 -0.1767
 3580TIP3   OH232230   1.495   0.517   2.173 -0.3747 -0.3074  0.6337
 3580TIP3    H132231   1.404   0.487   2.176 -0.8927  0.9279 -0.9755
 3580TIP3    H232232   1.504   0.574   2.248 -1.0134 -0.2395  0.6637
 3581TIP3   OH232233   3.477   1.887  12.460 -0.1084  0.4831 -0.0093
 3581TIP3    H132234   3.421   1.914  12.387  0.2348  0.1269 -0.4117
 3581TIP3    H232235   3.561   1.931  12.443  0.7387 -1.4199 -1.1296
 3582TIP3   OH232236   3.588   4.541   0.106 -0.3542 -0.6818  0.5094
 3582TIP3    H132237   3.577   4.598   0.030 -0.7345  0.0847  1.1217
 3582TIP3    H232238   3.551   4.457   0.078  0.4532 -0.7261 -0.4915
 3583TIP3   OH232239   0.285   6.326   3.894  0.6810  0.1764  0.7333
 3583TIP3    H132240   0.344   6.271   3.842  1.0139  0.9432  0.2760
 3583TIP3    H232241   0.202   6.325   3.846  1.1714  1.4065 -0.2150
 3584TIP3   OH232242   2.043   0.977   6.062  0.3334 -0.5903  0.3337
 3584TIP3    H132243   2.096   1.057   6.059  0.8892 -0.9152  1.2313
 3584TIP3    H232244   1.954   1.008   6.074  0.4556 -0.0772 -0.0641
 3585TIP3   OH232245   2.149   5.192  15.437  0.2083  0.3716 -0.4975
 3585TIP3    H132246   2.128   5.126  15.370  0.8415  2.5034 -2.9817
 3585TIP3    H232247   2.202   5.145  15.501 -2.3805 -2.3564 -0.1180
 3586TIP3   OH232248   6.490   4.564   5.127 -0.2365  0.6402 -0.4688
 3586TIP3    H132249   6.463   4.654   5.142 -0.7623  0.5745 -0.9953
 3586TIP3    H232250   6.578   4.559   5.165 -1.2443  0.6135  2.1078
 3587TIP3   OH232251   0.986   0.250   2.605  0.0833  0.0778  0.2501
 3587TIP3    H132252   0.941   0.290   2.679  2.3254  1.5679  0.9004
 3587TIP3    H232253   1.043   0.319   2.571  1.9738 -1.7176 -0.4094
 3588TIP3   OH232254   4.381   6.500   3.686 -0.7628  0.0925  0.6730
 3588TIP3    H132255   4.392   6.558   3.762  0.3173  0.4048  0.2919
 3588TIP3    H232256   4.308   6.443   3.711  0.4419 -0.7355  2.5352
 3589TIP3   OH232257   0.417   1.117  11.522  0.3812 -0.0974  0.1984
 3589TIP3    H132258   0.501   1.137  11.564  1.5373 -0.6113 -1.7523
 3589TIP3    H232259   0.428   1.028  11.489 -0.4201  0.3106 -1.2527
 3590TIP3   OH232260   4.043   1.898  10.803  0.0031 -0.2795 -0.1806
 3590TIP3    H132261   3.960   1.868  10.766 -0.0127  0.6025 -0.8731
 3590TIP3    H232262   4.102   1.824  10.791  0.3056  0.3084 -2.9786
 3591TIP3   OH232263   1.749   2.431   4.982 -0.7373 -0.9894  0.0112
 3591TIP3    H132264   1.759   2.402   4.891 -0.0326  0.1749 -0.3061
 3591TIP3    H232265   1.729   2.524   4.976 -1.0635 -0.9791  1.0473
 3592TIP3   OH232266   0.183   1.013   6.109 -0.3474  0.2090  0.1150
 3592TIP3    H132267   0.273   0.998   6.083 -0.2533 -0.6460  0.8782
 3592TIP3    H232268   0.134   1.016   6.027  0.3735  0.7081 -0.3065
 3593TIP3   OH232269   3.449   5.560   0.758 -0.2084 -0.8454  0.5412
 3593TIP3    H132270   3.356   5.538   0.767 -0.4950 -0.2963 -0.8158
 3593TIP3    H232271   3.488   5.482   0.718 -0.0581 -1.0938  1.1529
 3594TIP3   OH232272   6.698   0.198  17.191  0.3239  0.0249 -0.4067
 3594TIP3    H132273   6.666   0.109  17.177  4.7136 -1.6745 -1.4528
 3594TIP3    H232274   6.697   0.238  17.104 -2.1066  1.3587  0.1307
 3595TIP3   OH232275   4.070   0.884  15.710 -0.2747 -0.7993  0.0799
 3595TIP3    H132276   3.985   0.918  15.735  0.0377  0.3391 -0.3463
 3595TIP3    H232277   4.116   0.959  15.672  0.2559 -1.8021 -1.3471
 3596TIP3   OH232278   5.262   5.839  11.714 -0.1611  0.1711  0.0610
 3596TIP3    H132279   5.227   5.812  11.798  1.8186 -1.4612  0.4320
 3596TIP3    H232280   5.356   5.847  11.728  0.3729 -1.1819 -2.2191
 3597TIP3   OH232281   3.174   6.049   1.909 -0.7624  0.2882  0.2154
 3597TIP3    H132282   3.084   6.053   1.941 -0.5407 -1.4696  1.2100
 3597TIP3    H232283   3.169   6.079   1.819 -2.4205 -0.1336  0.1399
 3598TIP3   OH232284   1.351   3.042  14.578  0.2046  0.0521 -0.2729
 3598TIP3    H132285   1.274   2.987  14.566 -1.0315  1.7670 -0.4664
 3598TIP3    H232286   1.385   3.056  14.490  0.2701 -0.0224 -0.2602
 3599TIP3   OH232287   4.882   0.170   1.200 -0.3128 -0.0735  0.0959
 3599TIP3    H132288   4.948   0.216   1.252 -1.0327 -1.4701  2.4203
 3599TIP3    H232289   4.800   0.184   1.247 -1.3610 -0.0206 -1.6494
 3600TIP3   OH232290   5.211   2.886   2.485  0.4321 -0.0037 -0.2200
 3600TIP3    H132291   5.217   2.797   2.451  1.8063  0.3174 -0.8945
 3600TIP3    H232292   5.296   2.903   2.525 -0.3996  0.4236  1.4335
 3601TIP3   OH232293   1.336   3.767  14.318  0.6922  0.0422  0.6375
 3601TIP3    H132294   1.291   3.705  14.260 -0.8550  0.4787  1.3249
 3601TIP3    H232295   1.429   3.757  14.296  0.7985 -3.9021  2.0130
 3602TIP3   OH232296   0.359   3.197  13.724  0.5923  0.3143 -0.2068
 3602TIP3    H132297   0.426   3.240  13.777 -0.0640  1.0455  0.0518
 3602TIP3    H232298   0.276   3.232  13.757  0.0595 -0.8337 -0.2875
 3603TIP3   OH232299   5.272   4.180  11.184 -0.4368 -0.4321 -0.5114
 3603TIP3    H132300   5.293   4.086  11.175 -0.5958 -0.4741 -0.4355
 3603TIP3    H232301   5.271   4.213  11.094 -2.7488 -1.0019 -0.7559
 3604TIP3   OH232302   5.977   2.419   0.235  0.0151  0.5964  0.3823
 3604TIP3    H132303   6.001   2.511   0.240 -1.0867  0.8822  0.7274
 3604TIP3    H232304   5.949   2.396   0.324  0.1351 -0.0251  0.2655
 3605TIP3   OH232305   1.302   3.516  14.075  0.4435 -0.3892 -0.2300
 3605TIP3    H132306   1.342   3.572  14.008  2.8816 -3.3631 -1.5450
 3605TIP3    H232307   1.208   3.526  14.062  0.8200  1.4082 -2.0960
 3606TIP3   OH232308   6.079   0.032   2.057 -0.0844  0.5077 -0.2632
 3606TIP3    H132309   6.060  -0.036   2.121  1.1560  1.4416  1.1523
 3606TIP3    H232310   6.003   0.030   1.998 -1.1006 -0.6227  1.0070
 3607TIP3   OH232311   6.565   4.237  10.777  0.6658 -0.6871  0.0884
 3607TIP3    H132312   6.494   4.185  10.740 -0.0515  0.0507  0.4163
 3607TIP3    H232313   6.628   4.246  10.704  0.1411 -0.8231 -0.3879
 3608TIP3   OH232314   5.396   4.061  13.838  0.3506  0.4552 -0.7076
 3608TIP3    H132315   5.313   4.059  13.886  1.0408  2.1179  0.6794
 3608TIP3    H232316   5.435   3.975  13.854 -0.7071 -0.0253 -0.6347
 3609TIP3   OH232317   4.075   1.502   2.002  0.0767  0.4014 -0.0836
 3609TIP3    H132318   4.001   1.489   1.944  0.2510  0.0608 -0.2314
 3609TIP3    H232319   4.083   1.420   2.051  2.1127 -0.7375 -2.0966
 3610TIP3   OH232320   2.625   6.081  16.852 -0.4351  0.7919 -0.1397
 3610TIP3    H132321   2.639   6.000  16.902  0.5135  1.6655  1.0743
 3610TIP3    H232322   2.713   6.118  16.843 -0.8953  1.8252 -0.4394
 3611TIP3   OH232323   3.718   4.272   5.511  0.4127  0.1581  0.6614
 3611TIP3    H132324   3.739   4.182   5.490  2.2551  0.5379  0.6798
 3611TIP3    H232325   3.767   4.324   5.448 -0.2241  1.1537  0.9581
 3612TIP3   OH232326   0.289   0.405   0.125  0.1058  0.3349  0.1936
 3612TIP3    H132327   0.244   0.446   0.198 -1.5293  0.2309 -0.7235
 3612TIP3    H232328   0.256   0.315   0.122 -0.1197  0.4323 -0.8689
 3613TIP3   OH232329   4.792   1.866  16.943  0.2338  0.3302 -0.1605
 3613TIP3    H132330   4.774   1.798  17.008 -1.9821  0.7643 -0.2516
 3613TIP3    H232331   4.874   1.838  16.902  2.7815  0.9315  3.9119
 3614TIP3   OH232332   6.503   6.276  11.310 -0.0556  0.0293  0.4468
 3614TIP3    H132333   6.545   6.296  11.393  1.6937 -2.7047  0.3298
 3614TIP3    H232334   6.570   6.293  11.244 -1.4085  2.1329 -0.5269
 3615TIP3   OH232335   6.688   5.558   2.843 -0.8504  0.4761 -0.4121
 3615TIP3    H132336   6.689   5.471   2.803  0.8751  0.3076 -0.0666
 3615TIP3    H232337   6.601   5.565   2.882 -1.2034 -0.8841 -0.9047
 3616TIP3   OH232338   4.886   1.837  13.579  0.1210 -0.0713  0.1695
 3616TIP3    H132339   4.856   1.924  13.604  1.4902  0.4837 -0.0881
 3616TIP3    H232340   4.925   1.801  13.659 -0.0686 -0.3002  0.1633
 3617TIP3   OH232341   1.988   3.076  11.525 -0.2517  0.0084  0.6458
 3617TIP3    H132342   2.028   3.154  11.564 -1.7387  0.6912  0.8808
 3617TIP3    H232343   1.910   3.109  11.479 -2.0511 -1.5339  2.4076
 3618TIP3   OH232344   6.016   0.189  15.005 -0.5999  0.4328 -0.4088
 3618TIP3    H132345   5.933   0.225  14.975  0.1610  2.7239  0.0493
 3618TIP3    H232346   6.041   0.245  15.079  1.6082  0.1817 -0.8980
 3619TIP3   OH232347   4.687   1.482  15.051 -0.0448  0.6555 -0.9274
 3619TIP3    H132348   4.693   1.386  15.057  0.2336  0.7423  0.6453
 3619TIP3    H232349   4.669   1.499  14.959  1.2422 -0.8435 -1.5027
 3620TIP3   OH232350   4.954   6.425   0.243  0.6068  0.7870  0.0687
 3620TIP3    H132351   5.010   6.389   0.174 -0.2487  0.5434 -0.5218
 3620TIP3    H232352   4.888   6.476   0.196 -1.5995 -1.5033  0.4391
 3621TIP3   OH232353   3.954   2.007  12.457 -0.3039 -0.2800 -0.4678
 3621TIP3    H132354   3.893   1.959  12.514  0.9580  0.9489  2.0906
 3621TIP3    H232355   4.035   1.956  12.461  0.2044  0.5418  0.0025
 3622TIP3   OH232356   3.486   3.893  12.302  0.4155 -0.0311  0.1242
 3622TIP3    H132357   3.501   3.841  12.223  0.2894 -1.1262  0.7930
 3622TIP3    H232358   3.460   3.979  12.270  1.3496 -0.1529 -1.0300
 3623TIP3   OH232359   6.431   4.241   1.399 -0.1299 -0.0257  0.5072
 3623TIP3    H132360   6.473   4.248   1.484  1.8719 -3.0219 -0.1007
 3623TIP3    H232361   6.360   4.306   1.402 -0.0240  0.1160  4.3219
 3624TIP3   OH232362   0.765   3.838  15.396 -0.2628  0.4197 -0.2254
 3624TIP3    H132363   0.764   3.797  15.483 -0.3864  0.8071 -0.0416
 3624TIP3    H232364   0.857   3.861  15.381 -0.2681  0.5088 -0.1216
 3625TIP3   OH232365   3.774   6.789  11.570  0.0405 -0.5305 -0.1353
 3625TIP3    H132366   3.866   6.783  11.596  0.2050  0.7150 -0.4122
 3625TIP3    H232367   3.738   6.702  11.592  0.9488 -0.5923  1.2322
 3626TIP3   OH232368   4.335   3.768  14.179 -0.5352  0.1227  0.1170
 3626TIP3    H132369   4.330   3.782  14.274 -1.3033 -1.7954  0.4053
 3626TIP3    H232370   4.428   3.754  14.161 -0.4304  0.0948  0.6582
 3627TIP3   OH232371   4.192   1.240  15.688 -0.3219  0.5219 -0.1596
 3627TIP3    H132372   4.216   1.185  15.614 -2.5962  1.5301 -1.7651
 3627TIP3    H232373   4.178   1.179  15.761  1.2541 -0.5563 -0.7286
 3628TIP3   OH232374   2.359   5.375   3.318 -0.0762 -0.5762 -0.1963
 3628TIP3    H132375   2.316   5.389   3.233 -1.0243  0.6003  0.4373
 3628TIP3    H232376   2.403   5.458   3.336 -0.3656 -0.6162  0.7230
 3629TIP3   OH232377   3.825   2.422  13.590  0.3256  0.2942  1.1422
 3629TIP3    H132378   3.748   2.463  13.550 -0.4801 -1.2426  1.0476
 3629TIP3    H232379   3.795   2.393  13.676  0.1846 -2.0208  0.3720
 3630TIP3   OH232380   2.361   0.528   4.407  1.1282  0.2393 -0.0318
 3630TIP3    H132381   2.404   0.445   4.387  0.4114  0.0979 -1.0911
 3630TIP3    H232382   2.332   0.561   4.322  0.2688  0.9430  0.5125
 3631TIP3   OH232383   5.023   0.251  14.048 -0.3966  0.4234 -0.5374
 3631TIP3    H132384   4.937   0.287  14.027 -0.5413 -0.8163 -2.2642
 3631TIP3    H232385   5.083   0.296  13.989  0.4019  2.1099  1.4124
 3632TIP3   OH232386   6.589   3.956  12.147 -0.0467  0.5621 -0.2161
 3632TIP3    H132387   6.515   3.940  12.205  0.7185 -2.3993  0.0885
 3632TIP3    H232388   6.661   3.981  12.205  0.1839 -0.4032 -0.0716
 3633TIP3   OH232389   1.265   6.784  16.997 -0.0009  0.4105 -0.2892
 3633TIP3    H132390   1.186   6.795  17.050 -0.0098  1.5062 -0.5235
 3633TIP3    H232391   1.233   6.753  16.912  0.0028 -1.2175  0.2486
 3634TIP3   OH232392   2.085   3.079   0.253 -0.7370 -0.3232  0.9569
 3634TIP3    H132393   2.079   3.109   0.162 -1.6528  0.2602  1.1901
 3634TIP3    H232394   1.995   3.085   0.285 -0.0077  2.6812  2.9020
 3635TIP3   OH232395   0.679   2.892   1.119  0.2947 -0.2040 -0.4197
 3635TIP3    H132396   0.620   2.816   1.110 -0.7629  0.3734  1.1934
 3635TIP3    H232397   0.698   2.896   1.212  2.2729  0.1511 -0.7906
 3636TIP3   OH232398   0.981   3.060  13.450  0.2297 -0.0744 -0.0038
 3636TIP3    H132399   0.932   3.075  13.531  3.1848  0.9531  1.7318
 3636TIP3    H232400   1.050   2.998  13.475  1.6598  0.8285 -1.5475
 3637TIP3   OH232401   1.524   0.170  16.612  0.1271 -0.3158 -0.2608
 3637TIP3    H132402   1.478   0.091  16.585 -1.8127  0.8587 -0.6171
 3637TIP3    H232403   1.607   0.168  16.564  0.6736 -2.6766  0.6588
 3638TIP3   OH232404   2.182   6.102  13.025 -0.0263 -0.0315 -0.4552
 3638TIP3    H132405   2.178   6.154  12.945  0.7086  0.3603 -0.2475
 3638TIP3    H232406   2.227   6.159  13.088 -0.2055 -0.5012  0.1014
 3639TIP3   OH232407   4.441   2.193  14.709 -0.4957  0.3033 -0.1872
 3639TIP3    H132408   4.381   2.229  14.643 -2.1015 -1.0342  0.4736
 3639TIP3    H232409   4.457   2.103  14.679 -2.0337 -0.6630  1.6819
 3640TIP3   OH232410   2.326   6.154  16.230 -0.1584 -0.0433 -0.3906
 3640TIP3    H132411   2.328   6.230  16.287  0.1045  1.1344 -1.9198
 3640TIP3    H232412   2.257   6.173  16.166  0.2832 -0.8373 -1.1305
 3641TIP3   OH232413   2.981   4.084   5.606 -0.1606  0.0210 -0.2115
 3641TIP3    H132414   3.061   4.120   5.569 -0.4064 -0.5536 -1.3526
 3641TIP3    H232415   2.924   4.070   5.531 -1.0489 -0.2861  0.5010
 3642TIP3   OH232416   2.526   6.524  16.376 -0.6251 -0.1508 -0.3540
 3642TIP3    H132417   2.526   6.428  16.372  1.1809 -0.4454  2.9101
 3642TIP3    H232418   2.618   6.548  16.364 -0.1583  0.6579  3.6578
 3643TIP3   OH232419   4.887   3.251  15.689 -0.4170 -0.8441 -0.5806
 3643TIP3    H132420   4.906   3.257  15.782 -1.8316  0.9747 -0.3722
 3643TIP3    H232421   4.802   3.207  15.684 -0.3507 -0.9342 -1.0274
 3644TIP3   OH232422   3.893   1.128   4.435  0.1313 -0.4130  0.1065
 3644TIP3    H132423   3.842   1.120   4.355 -0.7760 -0.2544  0.6537
 3644TIP3    H232424   3.832   1.165   4.498  1.4277  1.5391  0.2912
 3645TIP3   OH232425   2.464   1.225  16.865 -0.2139 -0.1734 -0.2229
 3645TIP3    H132426   2.532   1.272  16.815 -0.3120  1.2671  0.9296
 3645TIP3    H232427   2.440   1.152  16.808  0.2271  0.9511 -1.9709
 3646TIP3   OH232428   6.674   6.329  15.002 -1.0342  0.2426 -0.1522
 3646TIP3    H132429   6.764   6.336  15.033 -1.2650  0.3939  0.4898
 3646TIP3    H232430   6.621   6.368  15.071 -1.6804 -0.7885 -0.0301
 3647TIP3   OH232431   2.986   0.459   1.530 -0.0932 -0.1768  0.6294
 3647TIP3    H132432   3.012   0.523   1.596  0.5112 -0.0664  0.2866
 3647TIP3    H232433   3.066   0.440   1.482 -0.0863 -1.7247  1.1819
 3648TIP3   OH232434   1.621   1.579  16.985  0.3979  0.1205  0.0923
 3648TIP3    H132435   1.569   1.563  17.064  0.2209 -0.1668 -0.0819
 3648TIP3    H232436   1.578   1.527  16.917  0.3400  0.6424 -0.2773
 3649TIP3   OH232437   0.114   3.399   2.971 -0.4923 -0.4298 -0.3708
 3649TIP3    H132438   0.141   3.308   2.974  1.8497  0.1735 -0.8894
 3649TIP3    H232439   0.019   3.396   2.964 -0.6342 -2.7765  1.3353
 3650TIP3   OH232440   4.255   2.163   1.586 -0.5883 -0.3262 -0.2142
 3650TIP3    H132441   4.276   2.083   1.536 -0.3940 -0.7974  0.6067
 3650TIP3    H232442   4.328   2.222   1.567  0.1531 -0.9798  0.5180
 3651TIP3   OH232443   0.294   3.306   3.381 -0.5750 -0.6015 -0.1868
 3651TIP3    H132444   0.352   3.284   3.454 -0.8900 -2.0785 -0.3632
 3651TIP3    H232445   0.209   3.323   3.421 -0.8435 -1.7881 -0.2189
 3652TIP3   OH232446   3.274   6.470  15.338  0.4763  0.4258  0.5195
 3652TIP3    H132447   3.298   6.562  15.330 -0.0524  0.4979 -0.3878
 3652TIP3    H232448   3.202   6.458  15.276  0.5377 -0.5982  0.6216
 3653TIP3   OH232449   6.375   1.517  13.876  0.3036  0.3446 -0.2612
 3653TIP3    H132450   6.439   1.580  13.910  0.5827  0.9567 -1.8399
 3653TIP3    H232451   6.341   1.558  13.796 -0.4675 -0.9392 -0.6190
 3654TIP3   OH232452   6.431   4.725   5.957 -0.0762  0.0798  0.4458
 3654TIP3    H132453   6.494   4.769   6.014  0.6532 -0.8012  0.3636
 3654TIP3    H232454   6.345   4.749   5.992  0.3438 -1.1819  2.5297
 3655TIP3   OH232455   3.899   3.858   1.629 -0.6470  0.1992 -0.2962
 3655TIP3    H132456   3.866   3.925   1.690  0.4534 -0.6650  1.3139
 3655TIP3    H232457   3.822   3.804   1.610 -1.2163  1.0340 -0.4313
 3656TIP3   OH232458   2.843   0.179  16.052  0.4222  0.3406  0.0058
 3656TIP3    H132459   2.847   0.099  16.000 -0.4967 -0.3469  0.9439
 3656TIP3    H232460   2.758   0.174  16.097 -1.8256  3.9158 -3.1917
 3657TIP3   OH232461   4.894   4.557   4.958 -0.1487 -0.5689  0.0914
 3657TIP3    H132462   4.971   4.610   4.980  0.2813 -1.2079  0.1310
 3657TIP3    H232463   4.862   4.595   4.876  0.1995 -0.2886  0.0834
 3658TIP3   OH232464   6.662   4.229  16.627 -0.4503 -0.6670  0.2287
 3658TIP3    H132465   6.673   4.146  16.582 -0.9008 -0.3746 -0.4431
 3658TIP3    H232466   6.743   4.242  16.675  0.5727 -0.3977 -1.5010
 3659TIP3   OH232467   0.127   1.429   4.802 -0.1927 -0.1406  0.8662
 3659TIP3    H132468   0.177   1.430   4.721 -0.0523 -0.0384  0.9540
 3659TIP3    H232469   0.192   1.410   4.870 -0.3465 -0.4511  0.9298
 3660TIP3   OH232470   6.156   3.180  12.901 -0.0168  0.0408 -0.8134
 3660TIP3    H132471   6.212   3.228  12.963 -0.0621 -1.2878  0.3000
 3660TIP3    H232472   6.092   3.245  12.872  0.6637  0.9737 -0.2812
 3661TIP3   OH232473   4.346   6.078   0.299 -0.0481 -0.0728  0.0621
 3661TIP3    H132474   4.435   6.114   0.297  0.9378 -2.3923 -0.2168
 3661TIP3    H232475   4.289   6.156   0.294  1.9386  1.4249 -0.7183
 3662TIP3   OH232476   2.905   0.862  12.482 -0.1663  0.0821 -0.5453
 3662TIP3    H132477   2.928   0.781  12.437  0.1469 -0.7908  1.1131
 3662TIP3    H232478   2.933   0.848  12.573 -1.1735  1.5954  0.0385
 3663TIP3   OH232479   3.046   1.014   5.076  0.2615  0.3381 -0.0001
 3663TIP3    H132480   3.093   1.094   5.096  0.6288 -0.1626  1.2617
 3663TIP3    H232481   3.099   0.944   5.115 -0.6821 -0.3938  0.0178
 3664TIP3   OH232482   3.932   2.125   3.268  0.1111 -0.5886  0.0673
 3664TIP3    H132483   3.911   2.217   3.287 -0.8415 -0.8152  0.1704
 3664TIP3    H232484   3.846   2.083   3.258  0.5188 -1.0386 -2.0643
 3665TIP3   OH232485   2.336   2.482  16.635 -0.0986 -0.0550  0.2771
 3665TIP3    H132486   2.344   2.404  16.579  0.5791  0.3532 -0.2057
 3665TIP3    H232487   2.379   2.457  16.716  0.5368 -0.0272 -0.0458
 3666TIP3   OH232488   0.395   1.751   4.143  0.1922 -0.4021 -0.4681
 3666TIP3    H132489   0.433   1.693   4.208  0.7904  0.2129 -0.2565
 3666TIP3    H232490   0.306   1.766   4.174 -0.2194 -1.7787 -0.9194
 3667TIP3   OH232491   4.040   2.718   5.054 -0.1257  0.1305  0.0975
 3667TIP3    H132492   4.069   2.645   4.999  0.8718  1.0330 -0.6290
 3667TIP3    H232493   3.969   2.759   5.005 -1.2637 -0.8500  0.9071
 3668TIP3   OH232494   2.062   1.633   2.299  0.2634 -0.6093  0.0430
 3668TIP3    H132495   2.103   1.692   2.361 -0.5420 -0.6632  0.6530
 3668TIP3    H232496   2.134   1.588   2.256  0.8983  0.9540 -0.5835
 3669TIP3   OH232497   2.197   6.735  11.645 -0.1072 -0.1405 -0.3335
 3669TIP3    H132498   2.273   6.788  11.669 -0.4631  1.2367 -2.0328
 3669TIP3    H232499   2.233   6.661  11.597  0.1638  1.4647 -2.7986
 3670TIP3   OH232500   3.791   3.106   0.461 -0.2594  0.1079  0.2654
 3670TIP3    H132501   3.718   3.048   0.440 -0.5064  0.4289  0.2331
 3670TIP3    H232502   3.783   3.179   0.400  0.3581 -0.0732 -0.0429
 3671TIP3   OH232503   2.440   6.591   2.450 -0.4218 -0.2142 -0.4043
 3671TIP3    H132504   2.413   6.555   2.365 -1.4273  0.5406 -0.4234
 3671TIP3    H232505   2.523   6.548   2.469 -0.4323 -0.7699 -1.5368
 3672TIP3   OH232506   4.743   1.270   6.318  0.5223  0.0591  0.7520
 3672TIP3    H132507   4.667   1.327   6.329 -1.0799 -1.8407  0.1012
 3672TIP3    H232508   4.742   1.213   6.396  1.4155  0.1359  0.8334
 3673TIP3   OH232509   0.578   5.723  12.207  0.6112  0.7623  0.0082
 3673TIP3    H132510   0.539   5.654  12.260  1.1628 -0.4377 -1.1077
 3673TIP3    H232511   0.615   5.784  12.270 -2.7779  1.8591  1.1688
 3674TIP3   OH232512   4.350   0.334   2.031  0.3430  0.3227 -0.0497
 3674TIP3    H132513   4.375   0.254   1.986 -1.5523  0.3880 -1.3675
 3674TIP3    H232514   4.306   0.305   2.111 -0.3148  0.0161 -0.5119
 3675TIP3   OH232515   2.051   4.618  15.543 -0.1688 -0.3905  0.1975
 3675TIP3    H132516   1.985   4.685  15.560 -1.8086 -1.5645 -1.1503
 3675TIP3    H232517   2.131   4.667  15.527 -1.1021  1.1952  0.1879
 3676TIP3   OH232518   2.025   6.697   4.181  0.2400 -0.8490  0.6068
 3676TIP3    H132519   2.002   6.788   4.198  0.1357 -1.2038  2.5366
 3676TIP3    H232520   2.075   6.700   4.099  0.2847  0.9459  0.6676
 3677TIP3   OH232521   0.664   1.439   5.009  0.7360 -0.2040 -0.2428
 3677TIP3    H132522   0.656   1.492   5.088 -0.2751  1.0721 -1.1667
 3677TIP3    H232523   0.648   1.349   5.039 -0.4239  0.3450  0.8780
 3678TIP3   OH232524   6.811   5.928   5.526  0.3128  0.2932 -0.5769
 3678TIP3    H132525   6.743   5.868   5.557  1.2223 -0.0483  0.8756
 3678TIP3    H232526   6.813   5.997   5.592  0.9240  0.6390 -0.9491
 3679TIP3   OH232527   2.717   2.343  13.570 -0.3976 -0.2094  0.1733
 3679TIP3    H132528   2.790   2.325  13.512 -1.1630  0.1292 -0.9294
 3679TIP3    H232529   2.639   2.323  13.519 -1.0862 -1.2598  1.5610
 3680TIP3   OH232530   1.969   4.152  16.712  0.0779  0.0635  0.2377
 3680TIP3    H132531   2.017   4.104  16.779 -2.0473 -0.9227  1.1245
 3680TIP3    H232532   1.899   4.093  16.684  0.3198  0.8089 -2.2054
 3681TIP3   OH232533   6.125   2.677   1.151  0.1341 -0.9950  0.1598
 3681TIP3    H132534   6.080   2.680   1.067  0.5394 -0.7417 -0.0483
 3681TIP3    H232535   6.076   2.612   1.202  0.8904 -2.4149 -0.8589
 3682TIP3   OH232536   3.850   0.150  16.174 -0.0669 -0.3658 -0.2805
 3682TIP3    H132537   3.880   0.145  16.264  0.5304 -2.4629 -0.5371
 3682TIP3    H232538   3.755   0.158  16.181  0.1078  1.3987  0.5084
 3683TIP3   OH232539   3.128   2.381  12.131  0.2118  0.1742  0.3100
 3683TIP3    H132540   3.040   2.368  12.167 -1.0429  2.4536 -1.6232
 3683TIP3    H232541   3.169   2.295  12.136 -1.9459 -0.8589  1.7153
 3684TIP3   OH232542   1.673   5.177  11.488 -0.1931 -0.0845  0.1688
 3684TIP3    H132543   1.695   5.094  11.530  0.5644 -0.1042 -0.2454
 3684TIP3    H232544   1.756   5.207  11.450 -0.4710  0.8364  0.2676
 3685TIP3   OH232545   3.255   2.044  16.983 -0.5250 -0.6136 -0.5070
 3685TIP3    H132546   3.234   1.959  17.020  0.6738  0.1488  2.1448
 3685TIP3    H232547   3.181   2.100  17.008  0.0310 -0.2248  0.3055
 3686TIP3   OH232548   5.216   3.151   6.076  0.4082 -0.3272  0.1154
 3686TIP3    H132549   5.215   3.170   6.169  0.0122 -1.2926  0.3206
 3686TIP3    H232550   5.187   3.233   6.035  0.8548  0.1893  0.8107
 3687TIP3   OH232551   5.545   3.845   4.348 -0.1735 -0.1289  1.0462
 3687TIP3    H132552   5.580   3.766   4.391  0.0234 -0.3376  0.5036
 3687TIP3    H232553   5.570   3.836   4.257 -0.2739  0.5008  0.9532
 3688TIP3   OH232554   3.372   0.696   6.137  0.5511  0.1321  0.0778
 3688TIP3    H132555   3.393   0.786   6.111  0.1940 -0.0122 -0.7297
 3688TIP3    H232556   3.321   0.661   6.064  0.4856 -0.6533  0.4905
 3689TIP3   OH232557   1.430   3.868   0.288  0.5953 -0.1327  0.5760
 3689TIP3    H132558   1.335   3.872   0.297  0.3710  1.6821 -1.5144
 3689TIP3    H232559   1.463   3.931   0.353  0.5274 -1.7360  2.2363
 3690TIP3   OH232560   3.614   6.581   5.572  0.1997 -0.0102  0.0379
 3690TIP3    H132561   3.678   6.542   5.513 -0.8072  1.1052 -1.8901
 3690TIP3    H232562   3.580   6.508   5.623  0.1355 -1.2670 -1.7225
 3691TIP3   OH232563   4.873   6.620  11.587 -0.3209 -0.0658 -0.1030
 3691TIP3    H132564   4.796   6.579  11.627 -0.3120 -0.9571 -0.9560
 3691TIP3    H232565   4.947   6.567  11.616  0.0795  1.1362  1.1971
 3692TIP3   OH232566   0.672   2.229   2.518  0.2111  0.2430 -0.1339
 3692TIP3    H132567   0.663   2.260   2.428  1.5564  0.2037 -0.2950
 3692TIP3    H232568   0.619   2.290   2.570  1.0129  1.4765 -0.7181
 3693TIP3   OH232569   3.699   0.059  12.024 -0.1938 -0.0399  0.0795
 3693TIP3    H132570   3.641  -0.011  11.996  0.2443 -0.2430 -0.3351
 3693TIP3    H232571   3.702   0.120  11.950 -0.2265  0.1945  0.2676
 3694TIP3   OH232572   3.367   5.024  12.681 -0.8124  0.2634 -0.2016
 3694TIP3    H132573   3.359   4.948  12.623  0.7729  0.4780 -0.7591
 3694TIP3    H232574   3.279   5.063  12.682 -1.2617 -0.6684 -1.1750
 3695TIP3   OH232575   3.561   6.422   4.023  0.2621 -0.2567 -0.4578
 3695TIP3    H132576   3.584   6.479   4.096  0.1953 -2.2425  1.1917
 3695TIP3    H232577   3.490   6.468   3.978 -1.4204 -0.0394  2.2098
 3696TIP3   OH232578   6.824   6.639   1.262 -0.1953  0.2259 -0.1113
 3696TIP3    H132579   6.783   6.568   1.311  0.1077  0.4996  0.5480
 3696TIP3    H232580   6.764   6.713   1.273  0.2647  0.5143  0.5252
 3697TIP3   OH232581   3.969   0.797  16.735  0.4326 -0.0877 -0.1223
 3697TIP3    H132582   3.891   0.825  16.782 -0.0607 -0.5998 -0.6219
 3697TIP3    H232583   3.983   0.865  16.670  1.7701  1.2118  1.4391
 3698TIP3   OH232584   5.437   5.129  15.690 -0.3006  0.0514 -0.0931
 3698TIP3    H132585   5.517   5.163  15.651  0.7364 -1.0173  0.9981
 3698TIP3    H232586   5.411   5.058  15.632  0.5441 -0.7256  0.4400
 3699TIP3   OH232587   6.791   2.188   1.500  0.3206 -0.0986 -0.4468
 3699TIP3    H132588   6.740   2.267   1.484  1.8474  0.7849 -1.2084
 3699TIP3    H232589   6.732   2.116   1.479 -0.3476  0.8922 -2.1561
 3700TIP3   OH232590   3.993   5.355  14.699 -0.5025  0.0370  0.1899
 3700TIP3    H132591   4.077   5.343  14.654 -1.4635 -0.9224 -1.4063
 3700TIP3    H232592   4.018   5.388  14.786  1.3975  1.7927 -0.9488
 3701TIP3   OH232593   1.975   6.499  12.325  0.0052 -0.6175 -0.0768
 3701TIP3    H132594   2.011   6.579  12.287  0.6550  0.0917  1.9049
 3701TIP3    H232595   1.880   6.513  12.323  0.1303  0.6415  1.0408
 3702TIP3   OH232596   0.589   0.530   5.265  0.4541 -0.1192 -0.0173
 3702TIP3    H132597   0.577   0.620   5.233  1.1639  0.2135  0.6057
 3702TIP3    H232598   0.675   0.531   5.308  0.4652 -1.0974  0.0090
 3703TIP3   OH232599   5.389   2.531   3.627 -0.1274 -0.1912  0.4107
 3703TIP3    H132600   5.455   2.556   3.562  0.4768  1.1413  1.4937
 3703TIP3    H232601   5.386   2.435   3.623 -1.2878 -0.1344 -2.6984
 3704TIP3   OH232602   1.227   6.480  17.124  0.3443 -0.7716  1.0148
 3704TIP3    H132603   1.303   6.533  17.149  0.7969 -1.1292  0.4171
 3704TIP3    H232604   1.253   6.437  17.043 -1.2808  0.7834 -0.4207
 3705TIP3   OH232605   1.804   5.823  16.134 -0.1864  0.1189 -0.4221
 3705TIP3    H132606   1.791   5.822  16.039  2.0401  0.4490 -0.7906
 3705TIP3    H232607   1.880   5.767  16.149 -0.6494 -0.1311  1.2155
 3706TIP3   OH232608   5.786   1.025   5.264  0.2567 -0.0584  0.1358
 3706TIP3    H132609   5.825   0.944   5.231  1.3233  0.7778 -0.7305
 3706TIP3    H232610   5.691   1.012   5.252  0.3089 -1.6329  1.1226
 3707TIP3   OH232611   0.747   6.656   6.301  0.2369 -0.0415  0.3772
 3707TIP3    H132612   0.667   6.699   6.272 -0.4849 -0.9003  1.0833
 3707TIP3    H232613   0.817   6.702   6.253 -0.6407  0.8605 -0.0703
 3708TIP3   OH232614   0.986   1.370   1.279 -0.3353 -0.0067 -0.4983
 3708TIP3    H132615   0.976   1.339   1.189  2.6837 -0.7844 -0.6914
 3708TIP3    H232616   1.007   1.291   1.329 -2.0605  0.3922  0.9640
 3709TIP3   OH232617   5.224   0.310   6.725 -0.1429  0.5129 -0.0065
 3709TIP3    H132618   5.151   0.261   6.687  0.2705 -0.9352  0.9751
 3709TIP3    H232619   5.192   0.400   6.732 -2.3949 -0.3252  1.7277
 3710TIP3   OH232620   2.607   6.121   0.451  0.5111  0.4697  0.2320
 3710TIP3    H132621   2.537   6.176   0.486  0.8199 -0.0656  1.7697
 3710TIP3    H232622   2.577   6.031   0.468  2.0397  0.2396  1.9321
 3711TIP3   OH232623   4.734   5.976  14.850  0.1113  0.0489 -0.4288
 3711TIP3    H132624   4.811   5.983  14.793 -0.2468 -1.0302 -1.0751
 3711TIP3    H232625   4.679   5.910  14.808 -0.8181  0.2459  0.4386
 3712TIP3   OH232626   2.807   4.346   3.256  0.0565 -0.1126 -0.3271
 3712TIP3    H132627   2.782   4.317   3.344  1.7425 -0.2008  0.1477
 3712TIP3    H232628   2.881   4.405   3.270 -0.0432  0.3514 -1.6489
 3713TIP3   OH232629   6.479   5.189   1.692  0.1012 -0.2717  0.0193
 3713TIP3    H132630   6.430   5.255   1.642  0.9754  0.7697  0.4937
 3713TIP3    H232631   6.411   5.134   1.731 -0.6391  0.0568 -0.7668
 3714TIP3   OH232632   1.670   6.705   1.330  0.9207  0.1505 -0.2229
 3714TIP3    H132633   1.685   6.662   1.414  1.6344 -2.4946 -1.5906
 3714TIP3    H232634   1.588   6.667   1.298  0.7821  0.9313 -0.8396
 3715TIP3   OH232635   0.853   6.474   1.314 -0.3598 -0.3283 -0.5328
 3715TIP3    H132636   0.911   6.398   1.304  0.0901  0.0903 -1.2199
 3715TIP3    H232637   0.786   6.462   1.246 -0.7018 -0.4709 -0.1745
 3716TIP3   OH232638   0.071   2.604   4.168 -0.0203  0.1097  0.2157
 3716TIP3    H132639  -0.019   2.576   4.180 -0.0646 -0.3767 -1.1249
 3716TIP3    H232640   0.071   2.698   4.189 -1.0070  0.2889 -0.5418
 3717TIP3   OH232641   2.954   6.325   5.409 -0.0458 -0.3257 -0.3502
 3717TIP3    H132642   2.977   6.232   5.407 -1.6637 -0.9085  2.5283
 3717TIP3    H232643   2.902   6.339   5.330  1.0793 -1.5693 -1.3512
 3718TIP3   OH232644   1.489   0.095  13.798  0.4129 -0.0512  0.1141
 3718TIP3    H132645   1.564   0.153  13.791 -1.1625  2.4476  2.1521
 3718TIP3    H232646   1.515   0.030  13.863  0.9470  0.6118  0.5792
 3719TIP3   OH232647   2.089   0.628   2.463 -0.3620 -0.0540 -0.4089
 3719TIP3    H132648   2.178   0.632   2.427  0.8394 -0.8672  2.1831
 3719TIP3    H232649   2.092   0.685   2.540 -2.4480  0.7168 -0.8231
 3720TIP3   OH232650   1.910   3.830  15.208  0.1995 -0.1444 -0.3182
 3720TIP3    H132651   1.991   3.799  15.169 -0.2152 -1.2017 -0.3834
 3720TIP3    H232652   1.871   3.886  15.140  1.1948  0.9547 -0.0120
 3721TIP3   OH232653   0.719   3.153   1.056  0.4156 -0.0205 -0.4336
 3721TIP3    H132654   0.717   3.059   1.076  1.9737 -0.2063 -1.0316
 3721TIP3    H232655   0.650   3.165   0.991 -1.5016 -0.2666  1.4538
 3722TIP3   OH232656   2.005   1.963  10.411  0.2873 -1.1061 -0.5592
 3722TIP3    H132657   2.097   1.939  10.400  0.5882  0.0069 -0.6469
 3722TIP3    H232658   2.006   2.059  10.415 -0.8293 -1.0949 -0.1824
 3723TIP3   OH232659   4.715   2.243  17.115 -0.1098 -0.0094  0.2413
 3723TIP3    H132660   4.748   2.172  17.060 -0.9340 -0.1994 -0.0198
 3723TIP3    H232661   4.679   2.306  17.053  0.0540  0.3423  0.5049
 3724TIP3   OH232662   1.719   3.265  12.880 -0.0509 -0.4356 -0.1423
 3724TIP3    H132663   1.792   3.257  12.818 -0.7840 -0.8294 -0.9893
 3724TIP3    H232664   1.649   3.307  12.829 -0.8363 -1.2126  0.2629
 3725TIP3   OH232665   4.986   1.209   0.842  0.5824 -0.4003 -0.0756
 3725TIP3    H132666   5.029   1.124   0.851 -0.6916 -0.9023  2.2705
 3725TIP3    H232667   5.050   1.273   0.872  1.1556 -0.6498 -0.7583
 3726TIP3   OH232668   2.302   5.188  14.896 -0.5238  0.3131  0.2885
 3726TIP3    H132669   2.271   5.266  14.941 -0.0300  0.4119  0.4631
 3726TIP3    H232670   2.238   5.120  14.919 -0.8404  0.6116  0.3022
 3727TIP3   OH232671   3.760   2.741  13.052 -0.1117 -0.3632  0.4585
 3727TIP3    H132672   3.719   2.821  13.085  0.9568  0.3635  0.0631
 3727TIP3    H232673   3.853   2.759  13.053  0.0825 -1.1239 -0.8857
 3728TIP3   OH232674   6.717   6.480   4.395 -0.0724 -0.4916 -0.3951
 3728TIP3    H132675   6.672   6.397   4.408  0.9245 -0.9554  0.2798
 3728TIP3    H232676   6.737   6.483   4.302 -0.4710 -0.8214 -0.4890
 3729TIP3   OH232677   2.021   3.525  14.927 -0.5154 -0.2634  0.3691
 3729TIP3    H132678   2.085   3.493  14.863  0.5899  0.0147  1.2999
 3729TIP3    H232679   1.994   3.611  14.894  2.2593  1.2412  1.6594
 3730TIP3   OH232680   3.958   4.483  15.354 -0.0216  0.0826  0.1685
 3730TIP3    H132681   3.991   4.564  15.394 -1.4080 -0.1451  1.8793
 3730TIP3    H232682   3.959   4.501  15.260  3.1454  0.7410  0.1934
 3731TIP3   OH232683   5.477   6.057   3.862 -0.1758 -0.0055  0.1640
 3731TIP3    H132684   5.566   6.077   3.832 -0.8212 -0.2981 -2.1793
 3731TIP3    H232685   5.488   6.024   3.951  1.9630  0.6820  0.2098
 3732TIP3   OH232686   0.452   0.250  13.755 -0.1750 -0.5736  0.2127
 3732TIP3    H132687   0.501   0.319  13.799 -3.8129  1.3988  1.6272
 3732TIP3    H232688   0.435   0.185  13.824 -0.4357 -0.7394 -0.0060
 3733TIP3   OH232689   3.647   5.524  14.317 -0.0784 -0.1793  0.0989
 3733TIP3    H132690   3.629   5.482  14.401 -0.8755  0.7755  0.4124
 3733TIP3    H232691   3.668   5.451  14.258  0.1923 -0.8799  1.0371
 3734TIP3   OH232692   0.675   4.728   3.594 -0.3269 -0.8425 -0.5299
 3734TIP3    H132693   0.693   4.655   3.535  1.8141 -0.2769 -0.6690
 3734TIP3    H232694   0.657   4.802   3.537 -2.2239 -1.1395 -0.3898
 3735TIP3   OH232695   2.593   3.326   4.694 -0.2354 -0.6642 -0.1235
 3735TIP3    H132696   2.581   3.405   4.640 -0.5897 -1.1047 -0.7043
 3735TIP3    H232697   2.546   3.345   4.775 -0.2978 -0.2703 -0.2484
 3736TIP3   OH232698   6.547   4.647  11.108  0.1849  0.3196 -0.0384
 3736TIP3    H132699   6.581   4.571  11.061  0.0980 -0.4587  1.0934
 3736TIP3    H232700   6.463   4.617  11.143 -0.4365  1.3509 -0.5934
 3737TIP3   OH232701   5.262   1.517   2.912  0.4969  0.2211  0.2247
 3737TIP3    H132702   5.232   1.460   2.840  0.5505  0.6130 -0.1122
 3737TIP3    H232703   5.182   1.541   2.958  0.5445 -0.7305  0.8277
 3738TIP3   OH232704   4.009   1.669  15.154 -0.2145 -0.1837 -0.1657
 3738TIP3    H132705   4.053   1.610  15.094 -1.1059  0.6446 -1.6942
 3738TIP3    H232706   3.916   1.648  15.146 -0.6772  1.9985 -1.5159
 3739TIP3   OH232707   3.962   2.314  16.835 -0.9917  0.2153  0.1869
 3739TIP3    H132708   3.987   2.228  16.870  1.3264  0.7849  0.1150
 3739TIP3    H232709   4.033   2.336  16.775 -2.0209  1.7995 -0.5036
 3740TIP3   OH232710   2.226   5.428   0.612  0.0048  0.2166 -0.3684
 3740TIP3    H132711   2.185   5.473   0.538 -0.5891  1.5685  0.7228
 3740TIP3    H232712   2.153   5.409   0.671  0.1645 -2.6258 -0.9446
 3741TIP3   OH232713   3.755   3.619  12.628  0.0827  0.1689 -0.4187
 3741TIP3    H132714   3.838   3.646  12.666 -0.7838 -0.0718  1.8071
 3741TIP3    H232715   3.695   3.615  12.702 -2.1917  1.3206 -2.0609
 3742TIP3   OH232716   5.642   2.156  16.274 -0.8275 -0.0481 -0.4292
 3742TIP3    H132717   5.631   2.180  16.366  1.8373  0.7410 -0.2504
 3742TIP3    H232718   5.642   2.060  16.274 -0.6297 -0.0499  0.4084
 3743TIP3   OH232719   5.484   1.473   4.531 -0.1594 -0.1651  0.0777
 3743TIP3    H132720   5.540   1.539   4.489 -0.7395  1.8238  2.2425
 3743TIP3    H232721   5.403   1.520   4.550 -1.3107 -2.0689  0.0393
 3744TIP3   OH232722   5.995   1.965   4.304  0.6569 -0.6696 -0.2680
 3744TIP3    H132723   5.932   2.014   4.357  0.8150  0.0657 -0.7402
 3744TIP3    H232724   6.027   1.896   4.362  0.5743 -0.0921  0.4865
 3745TIP3   OH232725   1.210   0.811  15.754  0.3322 -0.3919  0.0274
 3745TIP3    H132726   1.296   0.852  15.757 -0.4169  1.2114  1.1242
 3745TIP3    H232727   1.178   0.827  15.666  0.8965 -0.4228 -0.1849
 3746TIP3   OH232728   2.839   4.741   1.279  0.0011 -0.3820  0.2577
 3746TIP3    H132729   2.908   4.785   1.228 -0.3980 -0.0259  0.0196
 3746TIP3    H232730   2.782   4.703   1.213 -0.5923  0.1921  0.4318
 3747TIP3   OH232731   5.791   2.293   1.517  0.2200  0.2773 -0.0608
 3747TIP3    H132732   5.708   2.254   1.546 -1.0531  0.9485 -2.5307
 3747TIP3    H232733   5.849   2.219   1.502 -1.4457 -0.6265 -2.5727
 3748TIP3   OH232734   2.883   0.958  10.514 -0.3732  0.3109  0.7877
 3748TIP3    H132735   2.795   0.997  10.508 -0.6341 -0.3751 -0.0776
 3748TIP3    H232736   2.935   1.008  10.450 -1.0044 -1.4397 -1.2251
 3749TIP3   OH232737   5.975   1.064  11.155  0.3016 -0.2944  0.2723
 3749TIP3    H132738   5.980   1.070  11.250 -0.5640  0.5144  0.2765
 3749TIP3    H232739   6.022   0.984  11.134  0.8852 -0.2491  1.3445
 3750TIP3   OH232740   2.397   4.982  12.805 -0.2914  0.2437  0.3728
 3750TIP3    H132741   2.311   5.005  12.771  0.6577  0.9500 -1.7666
 3750TIP3    H232742   2.432   5.063  12.840 -0.8940 -0.2865  2.3225
 3751TIP3   OH232743   2.608   5.192   3.973  0.3510 -0.7344  0.2184
 3751TIP3    H132744   2.582   5.284   3.983 -2.1722 -1.0792 -1.9851
 3751TIP3    H232745   2.692   5.196   3.928 -0.0096  0.5387 -0.4069
 3752TIP3   OH232746   5.344   3.759   3.087 -0.2061 -0.6340  0.0891
 3752TIP3    H132747   5.316   3.696   3.153  0.6825 -0.4266  0.6815
 3752TIP3    H232748   5.348   3.843   3.133 -0.9892 -0.2024 -0.5969
 3753TIP3   OH232749   6.245   3.923   0.940  0.2273  0.0297  0.4584
 3753TIP3    H132750   6.172   3.871   0.907 -1.0234  1.7778  0.3399
 3753TIP3    H232751   6.255   3.994   0.876  0.9943  0.7029  1.2861
 3754TIP3   OH232752   1.357   6.725  12.637 -0.1625 -0.1347 -0.9366
 3754TIP3    H132753   1.384   6.635  12.620  0.9355 -0.4127  1.7700
 3754TIP3    H232754   1.271   6.717  12.678  1.1422 -0.2787  1.9845
 3755TIP3   OH232755   4.822   5.927  14.485 -0.0204  0.3449  0.3254
 3755TIP3    H132756   4.902   5.911  14.535  0.4912  1.9005  0.0776
 3755TIP3    H232757   4.841   5.890  14.398 -0.2737 -0.8688  0.7690
 3756TIP3   OH232758   1.078   1.403  13.945  0.3360  0.1367 -0.1070
 3756TIP3    H132759   1.003   1.453  13.978 -0.0294  0.2482 -1.0770
 3756TIP3    H232760   1.045   1.361  13.866  0.9596 -0.7862  0.1100
 3757TIP3   OH232761   4.923   3.415   4.240 -0.3753  0.4349 -0.1048
 3757TIP3    H132762   4.862   3.357   4.285  0.2562 -0.4288 -0.3381
 3757TIP3    H232763   4.970   3.460   4.310  1.0000 -1.3137  0.1568
 3758TIP3   OH232764   2.449   0.773  11.235 -0.7954  0.0851 -0.4759
 3758TIP3    H132765   2.427   0.717  11.309 -0.0180 -0.2228 -0.4728
 3758TIP3    H232766   2.370   0.826  11.220 -1.0117  0.0337  0.4603
 3759TIP3   OH232767   1.662   4.894   3.470 -0.0225  0.2709 -0.0242
 3759TIP3    H132768   1.746   4.878   3.427  0.4652  0.0487  0.9926
 3759TIP3    H232769   1.608   4.934   3.402  1.0237  0.7673 -0.5858
 3760TIP3   OH232770   3.436   2.987  12.125  0.3919  0.3373 -0.4497
 3760TIP3    H132771   3.417   3.074  12.159  2.0191 -0.1884  2.0576
 3760TIP3    H232772   3.529   2.989  12.103  0.8167 -1.1137  0.9888
 3761TIP3   OH232773   4.706   1.287   1.029  0.0011 -0.5472  0.6308
 3761TIP3    H132774   4.769   1.338   1.082  0.4737  0.1649 -0.5779
 3761TIP3    H232775   4.626   1.339   1.031  0.1997 -0.2198  0.1643
 3762TIP3   OH232776   5.508   4.439  12.678 -0.3499  0.5475  0.6533
 3762TIP3    H132777   5.534   4.515  12.730 -2.1573  1.8903 -0.3160
 3762TIP3    H232778   5.534   4.462  12.589 -0.4980 -0.1891  0.4178
 3763TIP3   OH232779   5.862   5.409   2.780 -0.1524  0.0829 -0.2751
 3763TIP3    H132780   5.873   5.396   2.874 -0.3640  2.5611  0.1784
 3763TIP3    H232781   5.927   5.475   2.757 -1.4077  0.9920 -1.4253
 3764TIP3   OH232782   0.232   6.555   3.633  0.4620  0.0364  0.1175
 3764TIP3    H132783   0.182   6.484   3.674  0.1970  0.2826  0.2272
 3764TIP3    H232784   0.185   6.634   3.658 -0.1597  0.1452 -1.2707
 3765TIP3   OH232785   1.358   4.171   0.184  0.3254  0.4280  0.4029
 3765TIP3    H132786   1.318   4.091   0.149  5.2073 -2.4715  0.4602
 3765TIP3    H232787   1.373   4.226   0.107  0.4183 -0.5607 -0.3079
 3766TIP3   OH232788   3.511   4.350  12.142  0.5420 -0.3869 -0.2759
 3766TIP3    H132789   3.543   4.329  12.054  0.5388  0.8224 -0.5823
 3766TIP3    H232790   3.486   4.442  12.137 -2.6437 -1.1054  0.0580
 3767TIP3   OH232791   3.339   1.316   0.893  0.0596 -0.0822  0.1621
 3767TIP3    H132792   3.339   1.249   0.825 -0.7686 -0.0091  0.0703
 3767TIP3    H232793   3.285   1.387   0.857  0.9857  0.6797  0.2210
 3768TIP3   OH232794   0.943   5.127   5.356  0.1558  0.4147  0.4317
 3768TIP3    H132795   0.887   5.196   5.390 -1.3063 -1.4450  2.0752
 3768TIP3    H232796   1.021   5.130   5.412 -0.1119  0.4544  0.8055
 3769TIP3   OH232797   1.473   6.435   0.143 -0.9418 -0.1141 -0.1810
 3769TIP3    H132798   1.507   6.388   0.067  0.6157  1.7931 -0.7653
 3769TIP3    H232799   1.433   6.514   0.106 -1.8109 -0.0369  0.8767
 3770TIP3   OH232800   1.225   4.100  12.945 -0.6536 -0.1143 -0.2146
 3770TIP3    H132801   1.263   4.046  12.875 -3.3373 -1.2358 -0.9466
 3770TIP3    H232802   1.164   4.042  12.990 -0.8201  1.2962  1.4975
 3771TIP3   OH232803   1.810   5.382  13.028 -0.0058 -0.0154  0.0824
 3771TIP3    H132804   1.871   5.361  13.099  2.2498  0.1390 -1.7249
 3771TIP3    H232805   1.814   5.477  13.020 -0.5481  0.0021 -0.0125
 3772TIP3   OH232806   2.552   3.836  13.722  0.8066 -0.3252 -0.3862
 3772TIP3    H132807   2.617   3.778  13.761  0.8117  0.1563  0.3380
 3772TIP3    H232808   2.510   3.879  13.797 -1.3002 -1.6052 -0.7214
 3773TIP3   OH232809   4.966   4.524  11.493  0.1139  0.0748  0.1818
 3773TIP3    H132810   4.889   4.582  11.487 -0.8645 -1.3494 -2.3199
 3773TIP3    H232811   4.935   4.440  11.459  2.9680 -0.3467 -1.6268
 3774TIP3   OH232812   6.123   4.086   3.613 -0.3283 -0.1702  0.4097
 3774TIP3    H132813   6.214   4.104   3.590  0.3132 -0.7174  2.3379
 3774TIP3    H232814   6.124   4.078   3.708 -2.6085  0.9754  0.5930
 3775TIP3   OH232815   5.405   0.527  15.747 -0.1558 -0.0426 -0.1382
 3775TIP3    H132816   5.369   0.463  15.685  0.0576  1.1135 -1.4865
 3775TIP3    H232817   5.348   0.603  15.739 -0.7823 -0.2404  1.9135
 3776TIP3   OH232818   1.039   3.719   3.013 -0.2282 -0.0428 -0.2702
 3776TIP3    H132819   0.972   3.787   3.013  0.0547  0.2433  0.0313
 3776TIP3    H232820   1.009   3.655   3.076  1.0116  1.3528  1.8822
 3777TIP3   OH232821   5.752   4.613  16.017  0.1257 -0.1476  0.2742
 3777TIP3    H132822   5.740   4.610  16.112  1.7236 -1.6977  0.4973
 3777TIP3    H232823   5.703   4.537  15.985 -0.5907  0.4985 -0.1820
 3778TIP3   OH232824   5.043   5.494  13.284  0.3399  0.1215 -0.0058
 3778TIP3    H132825   5.111   5.513  13.349 -1.5270 -0.2925  2.1562
 3778TIP3    H232826   4.961   5.521  13.325 -1.2102 -2.4502 -1.1717
 3779TIP3   OH232827   3.450   3.928   0.963 -0.3140 -0.0093 -0.0763
 3779TIP3    H132828   3.474   3.977   0.884 -0.6066 -1.1657 -0.9061
 3779TIP3    H232829   3.355   3.941   0.972 -0.5925 -1.2561 -0.9236
 3780TIP3   OH232830   6.771   6.815  15.867  0.8601  0.1473  0.3411
 3780TIP3    H132831   6.680   6.820  15.838  1.2190  0.8065 -0.7082
 3780TIP3    H232832   6.782   6.889  15.927  0.7144  0.0797  0.4517
 3781TIP3   OH232833   5.634   4.321   6.089  0.5434 -0.5113  0.2847
 3781TIP3    H132834   5.580   4.381   6.141 -0.5538 -1.8282  0.7507
 3781TIP3    H232835   5.590   4.316   6.004 -0.3148 -1.8148  0.7617
 3782TIP3   OH232836   3.193   5.668   4.788 -0.7086  0.4060 -0.4519
 3782TIP3    H132837   3.162   5.603   4.725 -1.2306  1.1764 -1.0135
 3782TIP3    H232838   3.114   5.714   4.817 -0.4747  0.0734  0.7817
 3783TIP3   OH232839   0.841   2.992   3.249 -0.3171  0.6473 -0.2602
 3783TIP3    H132840   0.831   2.973   3.156  0.0726 -1.2872  0.0518
 3783TIP3    H232841   0.928   3.032   3.256  0.6027 -1.1905 -0.5147
 3784TIP3   OH232842   3.523   4.557   0.972  0.6169 -0.0266 -0.1247
 3784TIP3    H132843   3.509   4.633   1.028 -0.5275 -0.1430 -0.2219
 3784TIP3    H232844   3.604   4.576   0.925  0.3134  1.1628 -0.1970
 3785TIP3   OH232845   1.697   5.141   5.354  0.1411  0.3358  0.0145
 3785TIP3    H132846   1.634   5.108   5.290 -1.7324 -1.0162  2.3865
 3785TIP3    H232847   1.778   5.094   5.333 -0.9127 -1.4430 -0.2975
 3786TIP3   OH232848   4.419   4.539  13.725 -0.0657 -0.2940 -0.1982
 3786TIP3    H132849   4.441   4.572  13.638  0.3181  0.2026  0.0768
 3786TIP3    H232850   4.336   4.493  13.714 -0.8419  1.1224 -0.5281
 3787TIP3   OH232851   5.063   3.806   0.350  0.5567 -0.5508 -0.0433
 3787TIP3    H132852   5.068   3.853   0.267 -1.2804  1.7255  1.0431
 3787TIP3    H232853   5.013   3.727   0.330 -1.0340  0.6239 -0.8769
 3788TIP3   OH232854   6.305   2.207   1.648  0.1336  0.1706 -0.5481
 3788TIP3    H132855   6.300   2.165   1.734 -3.6494  0.2545 -0.5629
 3788TIP3    H232856   6.294   2.300   1.667 -0.8709  0.1734 -1.0757
 3789TIP3   OH232857   3.741   1.727  16.722 -0.0092  0.1831  0.3540
 3789TIP3    H132858   3.819   1.676  16.698 -0.2654 -0.2836  0.5128
 3789TIP3    H232859   3.775   1.797  16.778  0.3088  0.0348  0.3512
 3790TIP3   OH232860   2.460   2.286   0.811  0.7243 -0.7007  0.3261
 3790TIP3    H132861   2.488   2.260   0.899  0.2526 -0.1804  0.6394
 3790TIP3    H232862   2.539   2.281   0.758  0.9811 -1.1766  0.7392
 3791TIP3   OH232863   6.383   5.385  12.919  0.2798 -0.3629  0.0180
 3791TIP3    H132864   6.289   5.399  12.913  0.1312 -1.1733  0.3253
 3791TIP3    H232865   6.404   5.400  13.012  0.4382 -0.2730 -0.0310
 3792TIP3   OH232866   4.671   3.887   5.132  0.0266 -0.2582 -0.2178
 3792TIP3    H132867   4.620   3.824   5.184  1.3802  0.0581  1.5930
 3792TIP3    H232868   4.762   3.871   5.157  1.0892 -1.5105 -4.1007
 3793TIP3   OH232869   4.132   2.099  15.460  0.2728 -0.1407  0.2287
 3793TIP3    H132870   4.093   2.134  15.380  0.4539 -0.0306  0.1872
 3793TIP3    H232871   4.226   2.119  15.452 -0.0655  2.6837  1.8406
 3794TIP3   OH232872   5.889   0.081  11.972 -0.2412  0.0698  0.3789
 3794TIP3    H132873   5.940   0.082  12.054  1.6844 -1.0799 -0.7326
 3794TIP3    H232874   5.855  -0.008  11.966  0.7788 -0.2621 -0.7178
 3795TIP3   OH232875   1.998   0.376   3.751  0.0884  0.2298 -0.8300
 3795TIP3    H132876   1.913   0.388   3.708 -0.0782 -0.7503 -0.7822
 3795TIP3    H232877   2.016   0.283   3.744 -0.1738 -0.0671  1.6471
 3796TIP3   OH232878   2.388   5.419   3.703  0.2555 -0.0024 -0.1803
 3796TIP3    H132879   2.460   5.470   3.740  1.8851 -2.0342 -0.3695
 3796TIP3    H232880   2.326   5.409   3.774  1.4545 -0.4556  0.8399
 3797TIP3   OH232881   6.630   2.887   2.759  0.0425  0.4922 -0.7788
 3797TIP3    H132882   6.606   2.795   2.747  0.7387  0.2487 -0.3858
 3797TIP3    H232883   6.576   2.916   2.833  0.0248  0.3213 -0.7236
 3798TIP3   OH232884   1.143   3.383   0.790 -0.4795  0.4011  0.5465
 3798TIP3    H132885   1.097   3.354   0.869  0.6942 -1.1201  0.7226
 3798TIP3    H232886   1.174   3.302   0.749 -1.4314  1.1062 -1.7555
 3799TIP3   OH232887   2.997   6.233   2.717  0.2915  0.0654 -0.0048
 3799TIP3    H132888   2.967   6.242   2.626  0.3901 -1.1630 -0.1814
 3799TIP3    H232889   3.040   6.316   2.736 -1.7045  1.2501 -0.3038
 3800TIP3   OH232890   3.266   5.030  11.193 -0.1086 -0.5891 -0.1936
 3800TIP3    H132891   3.297   4.952  11.238  0.1945 -0.8440 -0.8347
 3800TIP3    H232892   3.180   5.047  11.231 -0.7212 -1.9605 -0.9048
 3801TIP3   OH232893   2.347   3.964   3.063  0.1227 -0.0504 -0.5317
 3801TIP3    H132894   2.361   4.024   3.136  0.5338 -0.8439  0.0523
 3801TIP3    H232895   2.434   3.954   3.023  0.1903 -0.7504 -0.2259
 3802TIP3   OH232896   4.342   4.733  12.753 -0.2185  0.1900  0.0942
 3802TIP3    H132897   4.369   4.662  12.812  1.0933  0.9682  0.4836
 3802TIP3    H232898   4.362   4.700  12.666 -0.8018 -0.3985  0.1711
 3803TIP3   OH232899   2.176   3.495   2.791  0.3064  0.1385  0.1890
 3803TIP3    H132900   2.229   3.448   2.727  0.6722  1.1757 -0.2857
 3803TIP3    H232901   2.153   3.429   2.857  0.3165 -0.8317 -0.7568
 3804TIP3   OH232902   2.878   2.488   4.424 -0.1631 -0.5285  0.7894
 3804TIP3    H132903   2.793   2.508   4.464 -1.3696 -0.8620 -1.4347
 3804TIP3    H232904   2.893   2.396   4.446 -0.1088 -0.3286  1.6222
 3805TIP3   OH232905   6.061   6.061  12.463  0.2551  0.4684  0.2858
 3805TIP3    H132906   6.039   6.130  12.525  1.4748  1.6737 -0.5837
 3805TIP3    H232907   6.035   5.980  12.508 -0.0496  1.3786  1.8357
 3806TIP3   OH232908   1.126   0.370   1.326  0.1357  0.1238 -0.3772
 3806TIP3    H132909   1.068   0.412   1.262 -1.5038 -1.7108 -0.1945
 3806TIP3    H232910   1.105   0.413   1.409 -1.9304 -1.3057 -0.0865
 3807TIP3   OH232911   4.731   5.221   3.889 -0.4940  0.3093 -0.1439
 3807TIP3    H132912   4.690   5.289   3.942  1.0766  0.2795  1.1860
 3807TIP3    H232913   4.825   5.232   3.904 -0.1740 -1.9214 -0.1602
 3808TIP3   OH232914   2.590   3.664  12.095  0.6050  0.2068  0.2447
 3808TIP3    H132915   2.551   3.592  12.145  0.2188  0.5252  0.4098
 3808TIP3    H232916   2.650   3.705  12.157  0.9820 -0.0961  0.0860
 3809TIP3   OH232917   2.603   1.894  13.306 -0.1195  0.4684  0.3357
 3809TIP3    H132918   2.529   1.942  13.267 -0.2761 -0.8400 -1.0593
 3809TIP3    H232919   2.586   1.897  13.400 -2.9992 -1.3343 -0.0085
 3810TIP3   OH232920   5.914   1.861   2.430  1.2347  0.2121  0.1970
 3810TIP3    H132921   5.892   1.770   2.454  0.5466  0.3762  0.2235
 3810TIP3    H232922   5.932   1.904   2.513  2.0796 -0.0281  0.1417
 3811TIP3   OH232923   6.692   5.084  10.528 -0.7673 -0.5253 -0.0595
 3811TIP3    H132924   6.659   5.013  10.474 -0.4076  0.0055 -0.9950
 3811TIP3    H232925   6.614   5.129  10.560 -0.9860 -0.4089 -0.7379
 3812TIP3   OH232926   1.702   6.637   5.105  0.2006  0.0072 -0.5390
 3812TIP3    H132927   1.644   6.605   5.173 -1.1220  0.4922 -1.4001
 3812TIP3    H232928   1.760   6.564   5.086  0.2572 -0.2993  0.7272
 3813TIP3   OH232929   4.376   5.676  14.456 -0.1936 -0.5195  0.1404
 3813TIP3    H132930   4.426   5.625  14.393  1.2326 -0.7750  1.4300
 3813TIP3    H232931   4.290   5.634  14.457 -0.2557 -0.5306 -1.5573
 3814TIP3   OH232932   1.581   1.649  12.066  0.3402 -0.1582  0.6258
 3814TIP3    H132933   1.651   1.706  12.035  0.4302 -0.8446 -0.4655
 3814TIP3    H232934   1.531   1.626  11.988  0.0939 -1.2824  1.0810
 3815TIP3   OH232935   0.702   1.066   0.862  0.3268 -0.0862 -0.1239
 3815TIP3    H132936   0.756   0.993   0.832  0.0699 -0.4515  0.2943
 3815TIP3    H232937   0.672   1.040   0.949 -0.2040  0.2850 -0.1896
 3816TIP3   OH232938   3.326   4.045   2.893  0.0683  0.0272  0.0444
 3816TIP3    H132939   3.401   4.073   2.841  0.6094  0.3086  0.9470
 3816TIP3    H232940   3.363   3.983   2.957 -0.3950  0.4411  0.7295
 3817TIP3   OH232941   3.273   3.793  15.585  0.2746  0.0660  0.3037
 3817TIP3    H132942   3.250   3.768  15.496 -0.7992 -2.3820  1.1807
 3817TIP3    H232943   3.363   3.826  15.579  1.0949 -2.2611 -1.3776
 3818TIP3   OH232944   2.437   4.797   2.097 -0.0867  0.6023 -0.9086
 3818TIP3    H132945   2.389   4.767   2.021 -0.0135 -2.7562  0.2072
 3818TIP3    H232946   2.369   4.818   2.162 -0.0981  0.7634 -0.9712
 3819TIP3   OH232947   6.795   4.721   3.233 -0.1258  0.3605  0.3476
 3819TIP3    H132948   6.772   4.672   3.312  1.3739  0.3525  0.8091
 3819TIP3    H232949   6.737   4.798   3.235 -1.8892 -0.9015  0.0689
 3820TIP3   OH232950   5.082   4.513  15.119  0.1194 -0.1312 -0.7776
 3820TIP3    H132951   4.987   4.518  15.136 -0.1583 -1.4250 -1.8304
 3820TIP3    H232952   5.096   4.576  15.048 -0.0019 -0.1640 -0.8317
 3821TIP3   OH232953   0.464   1.862  12.556  0.0106  0.5353 -0.0464
 3821TIP3    H132954   0.545   1.845  12.506  0.8672  1.5724  0.9312
 3821TIP3    H232955   0.435   1.775  12.585  0.3096  0.0675 -1.1000
 3822TIP3   OH232956   0.641   1.141   5.085  0.1270  0.2788 -0.1536
 3822TIP3    H132957   0.546   1.132   5.089 -0.0134  1.7573  0.4647
 3822TIP3    H232958   0.673   1.092   5.161 -0.1560  0.0241 -0.1963
 3823TIP3   OH232959   0.456   2.906   3.716  0.0701 -0.0359  0.5540
 3823TIP3    H132960   0.498   2.950   3.790 -1.2202  1.1383  0.6350
 3823TIP3    H232961   0.378   2.864   3.753 -0.3185  0.1435 -0.0367
 3824TIP3   OH232962   1.431   2.366  16.239  0.1588  0.2991 -0.1566
 3824TIP3    H132963   1.427   2.321  16.323  2.3649 -0.4269 -0.3596
 3824TIP3    H232964   1.401   2.300  16.176 -2.6888  1.2245  0.0755
 3825TIP3   OH232965   3.241   1.086  14.849  0.5831 -0.7549  0.0431
 3825TIP3    H132966   3.243   1.061  14.941 -1.4668  0.6010  0.5184
 3825TIP3    H232967   3.332   1.079  14.820  1.1587 -1.8672  1.9679
 3826TIP3   OH232968   4.805   3.863  12.869  0.1560 -0.1211  0.3739
 3826TIP3    H132969   4.725   3.811  12.876 -0.1963  0.4262  0.4807
 3826TIP3    H232970   4.794   3.934  12.932  0.8973 -0.2524  0.6683
 3827TIP3   OH232971   0.322   1.249  10.877 -0.6953  0.5262  0.0389
 3827TIP3    H132972   0.294   1.279  10.790 -0.2796 -0.1860 -0.3574
 3827TIP3    H232973   0.344   1.157  10.864  1.9086  1.0412  0.2912
 3828TIP3   OH232974   6.509   0.479  15.766  0.2482  0.4048  0.3061
 3828TIP3    H132975   6.521   0.556  15.822 -2.9815  0.8718  0.5392
 3828TIP3    H232976   6.530   0.510  15.678  1.4328  0.7941  0.7016
 3829TIP3   OH232977   2.611   0.421   0.058 -0.7196 -0.2224 -0.2548
 3829TIP3    H132978   2.631   0.446  -0.032  1.4195  1.3686  0.5891
 3829TIP3    H232979   2.612   0.325   0.058  3.0468 -0.3109 -1.2352
 3830TIP3   OH232980   3.801   5.619  12.668  0.2429  0.1225 -0.7015
 3830TIP3    H132981   3.892   5.623  12.698  1.3301 -0.2501 -3.5322
 3830TIP3    H232982   3.778   5.527  12.674  0.8134 -0.1165 -1.7768
 3831TIP3   OH232983   4.918   1.313  14.799 -0.1038  0.1782  0.6924
 3831TIP3    H132984   4.826   1.287  14.797  0.4433 -2.9882  4.2323
 3831TIP3    H232985   4.958   1.263  14.728 -0.8977  0.6190 -0.0823
 3832TIP3   OH232986   1.466   2.575   1.224  0.3532  0.4768  0.7235
 3832TIP3    H132987   1.416   2.498   1.199 -1.3058  1.8743 -0.5028
 3832TIP3    H232988   1.542   2.540   1.271  0.8951 -2.0504 -1.7313
 3833TIP3   OH232989   2.197   3.545   4.820 -0.1563 -0.0320  0.2268
 3833TIP3    H132990   2.196   3.638   4.845 -1.2276  0.2218 -0.6827
 3833TIP3    H232991   2.179   3.545   4.726 -0.8896 -1.1897  0.3485
 3834TIP3   OH232992   3.892   5.696   4.468  0.0239 -0.3952 -0.1532
 3834TIP3    H132993   3.960   5.697   4.401  0.5375  1.2972  0.3562
 3834TIP3    H232994   3.937   5.665   4.547  0.0406  0.0206  0.0043
 3835TIP3   OH232995   6.543   3.594   4.589  0.0136  0.2412  0.1098
 3835TIP3    H132996   6.624   3.562   4.548  0.1643  1.0817 -0.2765
 3835TIP3    H232997   6.483   3.519   4.585 -0.2508  0.4932 -2.4180
 3836TIP3   OH232998   5.429   4.554  16.803 -0.0450 -0.1784 -0.2103
 3836TIP3    H132999   5.336   4.570  16.817 -0.0441 -0.9078  0.7062
 3836TIP3    H233000   5.472   4.634  16.834 -0.3358 -0.0261 -0.1956
 3837TIP3   OH233001   4.663   4.934  12.343 -0.3086 -0.6121 -0.0635
 3837TIP3    H133002   4.720   4.866  12.380  0.9615 -0.3496 -1.4318
 3837TIP3    H233003   4.628   4.895  12.263  1.6376  0.7934 -1.6857
 3838TIP3   OH233004   0.042   4.916  17.177  0.1738  0.3644  0.2220
 3838TIP3    H133005   0.011   4.876  17.258  0.4683 -0.2010  0.0574
 3838TIP3    H233006  -0.023   4.894  17.111  0.3351  0.1595  0.1317
 3839TIP3   OH233007   2.995   0.815  14.675 -0.1072 -0.0965 -0.4410
 3839TIP3    H133008   2.905   0.785  14.683 -0.3346  0.6118 -0.2371
 3839TIP3    H233009   3.010   0.823  14.581 -0.2342 -0.2786 -0.4767
 3840TIP3   OH233010   4.215   3.916  16.387  0.1318  0.0164  0.0056
 3840TIP3    H133011   4.308   3.935  16.372 -0.2931  1.0430 -1.5716
 3840TIP3    H233012   4.169   3.961  16.315 -1.5017 -1.4718  0.0492
 3841TIP3   OH233013   4.882   5.336   2.143 -0.4072 -0.1706 -0.7213
 3841TIP3    H133014   4.959   5.386   2.171 -1.0502  0.7784 -0.6116
 3841TIP3    H233015   4.851   5.381   2.065  0.2161 -1.6468 -1.8662
 3842TIP3   OH233016   6.791   1.037  15.427  0.2999  0.1911  0.6223
 3842TIP3    H133017   6.829   1.124  15.431 -1.1028  0.8240  1.0466
 3842TIP3    H233018   6.763   1.019  15.517 -0.1386 -0.3530  0.3827
 3843TIP3   OH233019   2.846   6.335   3.407 -0.0992  0.0833  0.1284
 3843TIP3    H133020   2.798   6.315   3.327 -0.9057 -0.4628  0.7322
 3843TIP3    H233021   2.778   6.361   3.470  0.5050  0.3301  0.6884
 3844TIP3   OH233022   0.075   2.499   4.596 -0.5599  0.1755 -0.4633
 3844TIP3    H133023   0.000   2.550   4.566  1.0005  1.7358 -1.9007
 3844TIP3    H233024   0.124   2.478   4.517  1.4654  0.7524  0.5580
 3845TIP3   OH233025   6.078   3.064  13.418 -0.0954  0.3036 -0.2177
 3845TIP3    H133026   6.092   3.081  13.511 -1.2679 -0.9990  0.2309
 3845TIP3    H233027   6.136   2.991  13.397 -0.2119  0.2562 -0.3839
 3846TIP3   OH233028   4.624   4.669   1.180 -0.5071 -0.2005 -0.1567
 3846TIP3    H133029   4.653   4.630   1.262  0.1723 -0.1836 -0.3802
 3846TIP3    H233030   4.634   4.763   1.193  2.7607 -0.2438 -1.3236
 3847TIP3   OH233031   6.245   5.503  16.647  0.2082  0.0152  0.2903
 3847TIP3    H133032   6.309   5.450  16.600  1.2531  0.9257  0.6448
 3847TIP3    H233033   6.247   5.588  16.603 -0.8340  0.0365  0.2478
 3848TIP3   OH233034   2.299   4.688   5.256 -0.4212 -0.1881 -0.3321
 3848TIP3    H133035   2.289   4.596   5.233 -0.8754 -0.3242  0.3935
 3848TIP3    H233036   2.287   4.691   5.351  1.0621  0.4185 -0.1353
 3849TIP3   OH233037   3.198   0.088   1.484 -0.1544  0.3542 -0.2087
 3849TIP3    H133038   3.109   0.065   1.510 -1.0536  1.8789 -1.7718
 3849TIP3    H233039   3.205   0.182   1.499  1.1194  0.3084 -0.3419
 3850TIP3   OH233040   0.070   4.725  14.321  0.7150 -0.2676 -0.4751
 3850TIP3    H133041   0.063   4.685  14.234  3.1534 -0.5239 -0.6407
 3850TIP3    H233042   0.138   4.674  14.365  0.0188  0.3098  1.3487
 3851TIP3   OH233043   0.316   5.796  12.861 -0.3572 -0.9440 -0.6599
 3851TIP3    H133044   0.312   5.716  12.809 -0.6341 -1.5733  0.2836
 3851TIP3    H233045   0.353   5.767  12.945 -0.4672 -0.0777 -0.3082
 3852TIP3   OH233046   3.934   6.534   5.629 -0.1832 -0.7037  0.3697
 3852TIP3    H133047   3.877   6.515   5.704 -0.2745 -0.1918  0.4394
 3852TIP3    H233048   4.010   6.578   5.668  0.3770 -1.5860  0.3042
 3853TIP3   OH233049   0.563   2.944  16.650  0.2177 -0.0618 -0.0534
 3853TIP3    H133050   0.556   2.904  16.736 -0.0767  0.7695  0.3143
 3853TIP3    H233051   0.602   2.876  16.595 -1.3924 -1.2825  0.2628
 3854TIP3   OH233052   1.020   3.384  16.850 -0.2692  0.2846 -0.2090
 3854TIP3    H133053   0.929   3.369  16.825  0.2373 -1.6726 -1.0640
 3854TIP3    H233054   1.026   3.351  16.940 -0.2048 -0.4739 -0.4858
 3855TIP3   OH233055   2.525   1.100  16.580  0.1060  0.3712  0.7452
 3855TIP3    H133056   2.479   1.136  16.504  1.0414  0.4568  0.2031
 3855TIP3    H233057   2.566   1.020  16.547  0.4695  0.3765  1.1815
 3856TIP3   OH233058   6.698   2.107  12.130 -0.0294  0.1786 -0.0421
 3856TIP3    H133059   6.737   2.046  12.192 -0.5385  1.3284  1.4645
 3856TIP3    H233060   6.651   2.052  12.068 -1.5573 -0.9728  2.0185
 3857TIP3   OH233061   0.527   1.948  11.909  0.4611  0.3027 -0.3279
 3857TIP3    H133062   0.499   1.915  11.994 -2.6291  0.6256 -1.1024
 3857TIP3    H233063   0.500   2.040  11.909  1.4091  0.6131 -1.2996
 3858TIP3   OH233064   4.823   3.368   0.480 -0.1990 -0.1468  0.1208
 3858TIP3    H133065   4.784   3.427   0.416 -1.1809 -0.3797  0.4936
 3858TIP3    H233066   4.917   3.370   0.460 -0.3801  0.4955 -0.7234
 3859TIP3   OH233067   6.441   5.682   4.314 -0.2837  0.3805  0.6117
 3859TIP3    H133068   6.421   5.644   4.229  0.3021 -0.8872  1.0207
 3859TIP3    H233069   6.531   5.656   4.332  0.1694  2.0251  0.8959
 3860TIP3   OH233070   4.065   6.432  11.722  0.4638 -0.2487 -0.1634
 3860TIP3    H133071   4.150   6.400  11.690 -0.3170 -2.0301 -0.5411
 3860TIP3    H233072   4.045   6.375  11.796  0.1880  1.0222  0.7751
 3861TIP3   OH233073   1.942   4.582  16.184  0.7215  0.2922  0.1268
 3861TIP3    H133074   2.032   4.598  16.212  0.8243  1.1979 -0.6931
 3861TIP3    H233075   1.893   4.572  16.266  1.5383 -0.1011  0.5817
 3862TIP3   OH233076   0.080   4.385   1.786  0.3907  0.3577 -0.3941
 3862TIP3    H133077   0.168   4.358   1.813 -0.0346 -1.2331 -0.4933
 3862TIP3    H233078   0.066   4.342   1.702 -0.9061 -0.3896  0.1645
 3863TIP3   OH233079   6.292   1.028   0.944 -0.2120 -0.1533  0.7536
 3863TIP3    H133080   6.338   0.945   0.934  0.8895 -0.2199  4.7524
 3863TIP3    H233081   6.211   1.005   0.989  0.6932  0.9557  3.0969
 3864TIP3   OH233082   5.285   1.248   5.063  0.6099  0.5543  0.3991
 3864TIP3    H133083   5.378   1.231   5.046 -0.0231 -1.7523 -1.3186
 3864TIP3    H233084   5.264   1.192   5.138 -0.0788 -1.7398 -1.3814
 3865TIP3   OH233085   2.161   3.685  12.531 -0.2611  0.5109  0.0354
 3865TIP3    H133086   2.094   3.753  12.539  0.0447  0.7650  0.4631
 3865TIP3    H233087   2.175   3.655  12.620 -0.9258 -0.6399 -0.2272
 3866TIP3   OH233088   2.501   2.186   5.164  0.2989 -0.3510 -0.0752
 3866TIP3    H133089   2.480   2.181   5.071  0.1444  2.6023 -0.2779
 3866TIP3    H233090   2.593   2.212   5.167 -0.2109  1.5387  0.5069
 3867TIP3   OH233091   5.688   1.159  11.714  0.6762 -0.4248 -0.4463
 3867TIP3    H133092   5.659   1.097  11.781 -1.0088  1.6133  0.8071
 3867TIP3    H233093   5.777   1.182  11.739 -0.3354  1.2591  1.9676
 3868TIP3   OH233094   1.302   3.856   5.335 -0.6892 -0.0312 -0.6215
 3868TIP3    H133095   1.395   3.866   5.354 -1.0747  2.9475  0.2453
 3868TIP3    H233096   1.288   3.902   5.253 -1.8114  2.5357  0.8689
 3869TIP3   OH233097   6.285   6.535   4.577 -0.2383  0.5280 -0.0577
 3869TIP3    H133098   6.286   6.628   4.598 -2.4900  0.7057 -0.4292
 3869TIP3    H233099   6.319   6.530   4.488 -0.3401  1.0349 -0.1280
 3870TIP3   OH233100   0.579   3.115   2.987  0.0791 -0.2983 -0.2943
 3870TIP3    H133101   0.611   3.171   2.916 -4.0966  0.4119 -1.9099
 3870TIP3    H233102   0.543   3.175   3.052  1.5659 -1.0416  1.3047
 3871TIP3   OH233103   6.197   6.412   1.676  1.1298 -0.4360  0.3640
 3871TIP3    H133104   6.210   6.332   1.624 -1.8079 -2.0290  1.8103
 3871TIP3    H233105   6.159   6.381   1.758 -1.0168  2.5130  0.6354
 3872TIP3   OH233106   1.912   1.244   1.798 -0.6257 -0.3075 -0.0075
 3872TIP3    H133107   1.828   1.213   1.764  0.0346 -1.4452 -0.6710
 3872TIP3    H233108   1.965   1.165   1.805  0.3464  0.3790  0.5302
 3873TIP3   OH233109   3.941   4.543   2.382  0.3936  0.2156 -0.3276
 3873TIP3    H133110   4.026   4.505   2.358  0.0724 -0.6241 -0.1421
 3873TIP3    H233111   3.953   4.574   2.472  0.1019 -1.1282  0.1860
 3874TIP3   OH233112   3.638   1.148  10.804 -0.6930 -0.1979 -0.6752
 3874TIP3    H133113   3.625   1.062  10.843 -0.1026  0.0712  0.1603
 3874TIP3    H233114   3.550   1.180  10.784 -1.1019  0.0255  1.3054
 3875TIP3   OH233115   2.369   3.063  16.250  0.7212 -0.4873 -0.1810
 3875TIP3    H133116   2.309   3.065  16.325  0.2478  0.0769 -0.5669
 3875TIP3    H233117   2.368   3.152  16.216  3.1622 -0.0037  0.8611
 3876TIP3   OH233118   0.771   1.551   3.995  0.5424 -0.5562  0.2235
 3876TIP3    H133119   0.727   1.598   4.066 -0.1251 -0.1957 -0.4210
 3876TIP3    H233120   0.737   1.461   4.000  1.4280 -0.8675  1.1243
 3877TIP3   OH233121   4.297   1.958  15.067  0.0596 -0.1567 -0.1774
 3877TIP3    H133122   4.215   1.936  15.112  0.9869 -0.8318  1.2276
 3877TIP3    H233123   4.316   2.048  15.094  0.3043 -0.3500  0.2868
 3878TIP3   OH233124   2.586   0.828  13.335  0.5190 -0.5049 -0.9325
 3878TIP3    H133125   2.528   0.768  13.382  0.4409 -1.4191 -2.1723
 3878TIP3    H233126   2.532   0.905  13.317  0.4081 -0.3462  0.0132
 3879TIP3   OH233127   3.162   3.825   3.135 -0.0035  0.1749  0.3576
 3879TIP3    H133128   3.147   3.745   3.185  1.4835 -0.2556  0.1363
 3879TIP3    H233129   3.140   3.802   3.045 -0.6128  0.3449  0.4533
 3880TIP3   OH233130   1.025   4.581   3.798 -0.4654  0.9447  0.3608
 3880TIP3    H133131   1.047   4.615   3.885  1.2407 -0.2949  0.4500
 3880TIP3    H233132   0.937   4.545   3.809 -1.3914  3.1931  0.8378
 3881TIP3   OH233133   3.575   5.494   4.254 -0.2757 -0.0655  0.3600
 3881TIP3    H133134   3.591   5.479   4.161 -0.7581  0.4944  0.1766
 3881TIP3    H233135   3.614   5.580   4.272 -1.3103  0.4326  0.3504
 3882TIP3   OH233136   6.622   5.575  17.130 -0.1781 -0.9381  0.1523
 3882TIP3    H133137   6.707   5.570  17.085 -0.7939 -0.1900 -1.1484
 3882TIP3    H233138   6.642   5.615  17.214  0.5716  0.7415 -0.7703
 3883TIP3   OH233139   5.064   0.966  16.577  0.0934  0.2124  0.2540
 3883TIP3    H133140   5.086   0.873  16.569 -0.6600  0.1042 -0.7424
 3883TIP3    H233141   5.135   1.003  16.631  0.4802 -0.8999  0.5252
 3884TIP3   OH233142   0.132   2.450  15.612  0.0011 -0.3479  0.2870
 3884TIP3    H133143   0.101   2.502  15.538  2.2296  0.0969 -0.4310
 3884TIP3    H233144   0.085   2.367  15.605  0.3222 -0.4104 -1.7832
 3885TIP3   OH233145   5.821   4.452   3.658 -0.3169  0.0018  0.0881
 3885TIP3    H133146   5.781   4.365   3.651 -0.7751  0.1997  0.1789
 3885TIP3    H233147   5.797   4.482   3.745 -0.0719  0.1808  0.0943
 3886TIP3   OH233148   6.590   1.801   5.560 -0.3963  0.6858 -0.0129
 3886TIP3    H133149   6.633   1.837   5.637 -0.3694 -0.0689  0.3325
 3886TIP3    H233150   6.643   1.831   5.486  2.1476 -2.0528  0.5036
 3887TIP3   OH233151   0.364   2.214  13.259 -0.1099  0.0431 -0.6051
 3887TIP3    H133152   0.276   2.178  13.244  0.0330 -0.1299 -1.0455
 3887TIP3    H233153   0.370   2.223  13.354 -1.3715  1.9862 -0.6476
 3888TIP3   OH233154   5.182   2.286   4.997 -0.0340 -0.1304  0.6172
 3888TIP3    H133155   5.106   2.237   4.965 -0.2739  0.5033  0.1882
 3888TIP3    H233156   5.149   2.375   5.010  0.6049  0.1185  0.5707
 3889TIP3   OH233157   5.806   1.581   4.255 -0.1217 -0.4349 -0.0840
 3889TIP3    H133158   5.821   1.571   4.161 -0.7647  0.3778 -0.2833
 3889TIP3    H233159   5.738   1.648   4.262 -0.2936 -0.6943  0.9510
 3890TIP3   OH233160   4.762   0.676  15.575 -0.5720  0.0847 -0.7335
 3890TIP3    H133161   4.670   0.682  15.601 -0.2180  1.9224  0.2345
 3890TIP3    H233162   4.793   0.593  15.613 -0.9367  1.1184  2.0322
 3891TIP3   OH233163   3.576   4.718  17.083 -0.3840  0.5580  0.2650
 3891TIP3    H133164   3.612   4.686  17.000 -0.2542  0.8376  0.2095
 3891TIP3    H233165   3.617   4.804  17.095 -1.4031  1.1162 -0.0511
 3892TIP3   OH233166   1.513   4.451   3.402  0.4856  0.2860  0.5110
 3892TIP3    H133167   1.541   4.385   3.340  1.2647  0.1649  0.9702
 3892TIP3    H233168   1.428   4.421   3.433  1.4433 -1.2774  1.7826
 3893TIP3   OH233169   3.801   4.319   3.498 -0.0463  0.1421  0.4916
 3893TIP3    H133170   3.892   4.322   3.527  0.4992  1.3333 -1.2147
 3893TIP3    H233171   3.805   4.281   3.410 -1.2082  0.1368  0.4291
 3894TIP3   OH233172   4.116   2.652  16.188 -0.4143 -0.1513 -0.1598
 3894TIP3    H133173   4.205   2.677  16.162 -0.2300 -0.2127  0.3973
 3894TIP3    H233174   4.126   2.612  16.274 -0.7495 -1.8381 -0.8535
 3895TIP3   OH233175   2.113   0.368  14.723  0.1800 -0.0235  0.0136
 3895TIP3    H133176   2.046   0.302  14.703  0.1053  0.2989 -0.8468
 3895TIP3    H233177   2.064   0.444  14.755  0.1435  0.1354 -0.4104
 3896TIP3   OH233178   2.589   3.825  10.405 -0.1924  0.6549 -0.1036
 3896TIP3    H133179   2.546   3.898  10.449  0.3883  0.3600  0.9892
 3896TIP3    H233180   2.532   3.750  10.423  0.7085  0.2768  1.2914
 3897TIP3   OH233181   2.859   0.512   3.443 -0.9418  0.1983 -0.2335
 3897TIP3    H133182   2.880   0.419   3.449 -0.1160  0.4668  2.6595
 3897TIP3    H233183   2.769   0.515   3.411 -0.8346 -1.5551 -0.7845
 3898TIP3   OH233184   5.818   4.179  12.280  0.0854  0.3315 -0.4473
 3898TIP3    H133185   5.909   4.208  12.293  0.2262  0.0785 -0.8450
 3898TIP3    H233186   5.810   4.099  12.332  0.5295 -0.4570 -1.5409
 3899TIP3   OH233187   3.852   0.332   0.796 -0.8186 -0.0339 -0.0725
 3899TIP3    H133188   3.794   0.291   0.860  0.9150  1.3384  2.5710
 3899TIP3    H233189   3.931   0.278   0.797 -0.7792 -0.0055 -1.0948
 3900TIP3   OH233190   6.834   6.277   3.374  0.1986 -0.1125 -0.1151
 3900TIP3    H133191   6.861   6.205   3.432  1.1573 -0.4217 -0.9179
 3900TIP3    H233192   6.756   6.314   3.416 -1.0882 -2.4057 -0.2888
 3901TIP3   OH233193   0.464   1.597  14.513  0.0013 -0.1094  0.7086
 3901TIP3    H133194   0.443   1.509  14.545 -0.4762  0.1028  0.9878
 3901TIP3    H233195   0.531   1.582  14.446  0.3605 -0.6329  1.1740
 3902TIP3   OH233196   0.420   1.383   2.341 -0.0528  0.3849 -0.1128
 3902TIP3    H133197   0.392   1.365   2.251  2.1047  2.8552 -1.4396
 3902TIP3    H233198   0.453   1.300   2.374 -0.4285 -0.4669 -1.7955
 3903TIP3   OH233199   2.565   3.044  12.857 -0.0955  0.0785  0.0916
 3903TIP3    H133200   2.654   3.017  12.832 -0.1448 -0.9760  0.9400
 3903TIP3    H233201   2.574   3.073  12.948 -0.1383  2.6477 -0.6553
 3904TIP3   OH233202   2.008   5.031  10.982  0.3557  0.1922  0.3041
 3904TIP3    H133203   2.057   4.953  10.957 -0.0715  0.2726 -0.8109
 3904TIP3    H233204   2.067   5.104  10.962 -1.0675  0.4910 -3.5716
 3905TIP3   OH233205   0.158   3.312  16.076 -0.1194 -1.1545 -0.2975
 3905TIP3    H133206   0.146   3.289  16.168  0.7744 -2.3713 -0.4656
 3905TIP3    H233207   0.112   3.396  16.066  2.2942  0.6166  1.9664
 3906TIP3   OH233208   1.206   1.601   2.195 -0.0844 -0.1079  0.0414
 3906TIP3    H133209   1.249   1.516   2.201  0.0791 -0.0555 -0.3692
 3906TIP3    H233210   1.171   1.605   2.106  2.1526  1.2880 -0.8882
 3907TIP3   OH233211   6.455   0.831   2.372 -0.1567 -0.1986  0.1806
 3907TIP3    H133212   6.497   0.916   2.386 -0.2469 -0.1829  0.3531
 3907TIP3    H233213   6.456   0.789   2.458  1.3732 -1.0568 -0.2083
 3908TIP3   OH233214   2.462   3.592  10.492 -0.0494 -0.3784  0.4887
 3908TIP3    H133215   2.380   3.552  10.465  1.1580 -1.8734 -1.2414
 3908TIP3    H233216   2.452   3.608  10.586 -2.7596  0.7235  0.1193
 3909TIP3   OH233217   0.295   1.801   6.415 -0.4706 -0.0035  0.5597
 3909TIP3    H133218   0.368   1.789   6.354  0.0990  2.0153  0.7437
 3909TIP3    H233219   0.318   1.748   6.491 -1.1685 -2.5211 -0.8732
 3910TIP3   OH233220   0.399   0.325   0.750  0.0259 -0.1581 -0.3333
 3910TIP3    H133221   0.378   0.417   0.761  3.1750  1.1127 -3.0243
 3910TIP3    H233222   0.470   0.309   0.812 -0.9241 -1.0225  0.5714
 3911TIP3   OH233223   0.514   0.215  15.096 -0.1590 -0.1491 -0.0491
 3911TIP3    H133224   0.556   0.287  15.049 -1.6725  0.1676 -0.9760
 3911TIP3    H233225   0.433   0.199  15.048 -0.7815 -1.1739  1.2882
 3912TIP3   OH233226   1.481   0.273  14.047 -0.0398 -0.2058  0.0372
 3912TIP3    H133227   1.554   0.244  13.993  0.2253  1.2400 -0.4195
 3912TIP3    H233228   1.412   0.209  14.031  0.7948 -1.0317 -0.2967
 3913TIP3   OH233229   6.644   3.322  16.328  0.0640  0.6657 -0.0322
 3913TIP3    H133230   6.724   3.325  16.380 -1.0768 -0.9027  1.9694
 3913TIP3    H233231   6.652   3.241  16.277 -0.6354  0.0149  0.8780
 3914TIP3   OH233232   5.626   1.981  11.458 -0.1092  0.2707  0.5082
 3914TIP3    H133233   5.678   2.054  11.423  1.9906 -0.5778  1.6837
 3914TIP3    H233234   5.687   1.908  11.463 -1.7665 -1.1553  0.8073
 3915TIP3   OH233235   0.081   5.014   6.264  0.4263 -0.4925  0.0409
 3915TIP3    H133236   0.101   5.104   6.240 -1.7046 -0.4479 -1.9214
 3915TIP3    H233237   0.000   5.020   6.316 -1.4443 -1.3510 -2.5674
 3916TIP3   OH233238   4.951   0.088  16.120  0.1423  0.1047  0.5841
 3916TIP3    H133239   4.975   0.084  16.213  0.2793  0.3650  0.5596
 3916TIP3    H233240   4.884   0.155  16.116 -2.3630 -2.2092  1.0324
 3917TIP3   OH233241   5.289   4.291  13.254 -0.6535 -0.3367  0.6342
 3917TIP3    H133242   5.278   4.207  13.209 -0.5370  0.4874 -1.0171
 3917TIP3    H233243   5.380   4.291  13.282  0.0942  0.2265 -1.5983
 3918TIP3   OH233244   2.985   1.438  11.443  0.0655  0.2138 -0.1157
 3918TIP3    H133245   3.010   1.465  11.531 -1.4597 -3.2978  1.6098
 3918TIP3    H233246   2.896   1.404  11.452  0.2190 -1.2043 -2.7696
 3919TIP3   OH233247   2.620   2.444   5.315  0.3031 -0.2738 -0.1359
 3919TIP3    H133248   2.701   2.403   5.286 -0.2053 -1.2322 -0.2123
 3919TIP3    H233249   2.631   2.537   5.293  1.4452 -0.3598  0.0224
 3920TIP3   OH233250   6.611   6.610  16.151 -0.4207  0.1317 -0.1272
 3920TIP3    H133251   6.599   6.550  16.077 -0.2954 -0.1778  0.1011
 3920TIP3    H233252   6.530   6.602  16.202 -0.8204  0.9054 -0.6268
 3921TIP3   OH233253   3.216   5.205  10.682 -0.3764 -0.3935 -0.2162
 3921TIP3    H133254   3.267   5.285  10.695  0.0375 -0.5640 -0.7562
 3921TIP3    H233255   3.129   5.226  10.717 -0.0062 -0.0234  0.4981
 3922TIP3   OH233256   1.417   1.792   4.915  1.0802  1.0526  0.2958
 3922TIP3    H133257   1.322   1.783   4.903  1.1140  0.3240  0.4997
 3922TIP3    H233258   1.427   1.853   4.988  0.6495 -1.6149  2.7704
 3923TIP3   OH233259   1.742   1.552   5.871 -0.1122  0.3811 -0.4511
 3923TIP3    H133260   1.824   1.552   5.919 -0.7181  2.8885  0.7275
 3923TIP3    H233261   1.674   1.543   5.938 -0.8767  0.9058 -1.1355
 3924TIP3   OH233262   1.139   1.673   5.904  0.2857  0.2444  0.4035
 3924TIP3    H133263   1.135   1.616   5.980  0.1461  1.6051  1.4598
 3924TIP3    H233264   1.104   1.757   5.935  0.6450  0.9671 -1.0381
 3925TIP3   OH233265   2.831   4.213  10.684  0.7606  0.4740 -0.5337
 3925TIP3    H133266   2.888   4.151  10.639  0.9578  0.6233 -0.4948
 3925TIP3    H233267   2.798   4.270  10.614  1.6354  1.1561 -0.4127
 3926TIP3   OH233268   6.676   3.983  16.560 -0.7170  0.2153 -0.4614
 3926TIP3    H133269   6.624   3.961  16.483 -0.4099 -0.6985 -0.4236
 3926TIP3    H233270   6.737   3.909  16.570 -0.7210  0.3340  0.6211
 3927TIP3   OH233271   5.617   0.410  11.663 -0.5628  1.0915 -0.6683
 3927TIP3    H133272   5.656   0.369  11.741 -2.3148  2.5414  1.0861
 3927TIP3    H233273   5.692   0.430  11.607  0.6603 -1.0110  0.0911
 3928TIP3   OH233274   1.085   0.571   5.784 -0.0929 -0.3554 -0.3546
 3928TIP3    H133275   1.134   0.603   5.708  0.7329  1.3525  0.8242
 3928TIP3    H233276   1.009   0.629   5.789 -0.3307 -0.6863 -0.0725
 3929TIP3   OH233277   1.056   0.850  15.979  0.2595  0.2129  0.3651
 3929TIP3    H133278   0.988   0.876  15.917  1.2198 -1.5039 -1.5407
 3929TIP3    H233279   1.130   0.823  15.923  1.8507  0.3062  2.3094
 3930TIP3   OH233280   0.312   2.509  13.238  0.5825 -0.1446 -0.1975
 3930TIP3    H133281   0.235   2.488  13.290  1.4907 -0.8152  0.9244
 3930TIP3    H233282   0.356   2.425  13.225 -0.0639 -0.1669 -2.8632
 3931TIP3   OH233283   6.654   2.832  14.239  0.1165  0.1754  0.9684
 3931TIP3    H133284   6.721   2.772  14.271 -0.2211 -0.3889  0.6426
 3931TIP3    H233285   6.600   2.850  14.316 -0.2141 -0.5327  0.9154
 3932TIP3   OH233286   1.067   3.406   2.414  0.4563  0.5259 -0.2558
 3932TIP3    H133287   1.055   3.344   2.486  2.4199  0.2776 -0.0739
 3932TIP3    H233288   0.991   3.463   2.419 -0.6275 -0.9183  0.5395
 3933TIP3   OH233289   3.678   4.622  12.507 -0.0061 -0.3732  0.1947
 3933TIP3    H133290   3.720   4.629  12.422 -1.8035  0.8606 -0.6490
 3933TIP3    H233291   3.746   4.586  12.564  1.0625 -1.8153 -1.8529
 3934TIP3   OH233292   6.612   4.364  11.982  0.3893 -0.1216  0.0480
 3934TIP3    H133293   6.534   4.382  11.929  1.1982 -2.7460 -2.2269
 3934TIP3    H233294   6.593   4.407  12.066 -2.4659  1.2963 -1.1634
 3935TIP3   OH233295   6.035   0.021  13.942  0.1535  0.0811  0.1962
 3935TIP3    H133296   6.034   0.117  13.949 -0.1798  0.2664 -1.7415
 3935TIP3    H233297   5.949  -0.007  13.973 -1.0794  0.7496 -2.3755
 3936TIP3   OH233298   3.053   0.484   2.383 -0.7298  0.1244 -0.4192
 3936TIP3    H133299   3.064   0.564   2.434 -1.8365  1.4760 -2.1553
 3936TIP3    H233300   2.988   0.507   2.316  2.5146 -0.5516 -4.1895
 3937TIP3   OH233301   3.545   5.685   4.982  0.3000  1.1051 -0.4743
 3937TIP3    H133302   3.557   5.672   4.888 -1.1987 -1.2141 -0.4188
 3937TIP3    H233303   3.474   5.749   4.988 -1.5676 -0.8064 -1.0310
 3938TIP3   OH233304   3.550   1.761  15.049  0.4544  0.0415  0.0340
 3938TIP3    H133305   3.642   1.759  15.075  0.4135 -2.0222  0.1239
 3938TIP3    H233306   3.542   1.694  14.982 -0.9007  0.5389 -0.3438
 3939TIP3   OH233307   5.970   6.251   4.863 -0.7016  0.1453 -0.2236
 3939TIP3    H133308   5.935   6.190   4.798 -2.0909 -0.1783  0.7792
 3939TIP3    H233309   6.006   6.323   4.812 -1.8580 -0.0514 -1.3622
 3940TIP3   OH233310   0.290   4.242   5.179  0.4559  0.0756  0.2930
 3940TIP3    H133311   0.258   4.243   5.269 -0.7814 -0.1952 -0.1266
 3940TIP3    H233312   0.226   4.189   5.131  0.8589  0.5656 -0.8210
 3941TIP3   OH233313   2.665   1.032   3.958 -0.2350  0.3054 -0.0306
 3941TIP3    H133314   2.737   1.030   3.895  1.5711 -0.8513  1.9117
 3941TIP3    H233315   2.596   0.979   3.918  0.8176 -0.3114 -1.0954
 3942TIP3   OH233316   3.579   4.934  14.650  0.1369  0.2533 -0.0198
 3942TIP3    H133317   3.548   5.020  14.678 -1.5400 -0.4671  0.4743
 3942TIP3    H233318   3.601   4.945  14.557  0.7683  1.3927  0.2417
 3943TIP3   OH233319   6.720   3.953  15.064 -0.6127 -0.0181 -0.0097
 3943TIP3    H133320   6.716   3.857  15.058  2.1263 -0.1717 -0.8314
 3943TIP3    H233321   6.717   3.971  15.158 -2.6553 -0.7563  0.1065
 3944TIP3   OH233322   6.720   5.198  16.824  0.0329  0.2649  0.0271
 3944TIP3    H133323   6.724   5.104  16.838 -1.8678  0.0977 -0.1985
 3944TIP3    H233324   6.730   5.236  16.911 -2.9215 -0.3790  0.7784
 3945TIP3   OH233325   3.011   3.855   3.915  0.4151 -0.3824  0.6626
 3945TIP3    H133326   2.931   3.853   3.863  0.2010  0.7640  0.9223
 3945TIP3    H233327   3.060   3.778   3.887  0.3469  0.2403 -1.3157
 3946TIP3   OH233328   2.444   0.770   6.149  0.0427 -0.6475 -1.1303
 3946TIP3    H133329   2.352   0.797   6.147 -0.5182 -2.3815 -0.1736
 3946TIP3    H233330   2.446   0.693   6.206  2.0501 -0.8116 -1.3494
 3947TIP3   OH233331   6.015   6.230   1.066 -0.2636 -0.0483 -0.4734
 3947TIP3    H133332   5.959   6.174   1.119  0.0758 -1.6463 -1.7250
 3947TIP3    H233333   5.973   6.232   0.980  0.2163  0.9049 -0.7018
 3948TIP3   OH233334   1.348   3.453   2.514  0.0616  0.0014 -0.6069
 3948TIP3    H133335   1.402   3.384   2.474 -0.6901 -0.4091 -0.9296
 3948TIP3    H233336   1.258   3.425   2.499 -0.2567  1.0050 -0.6461
 3949TIP3   OH233337   0.915   0.517  13.430  0.8422  0.1588  0.1906
 3949TIP3    H133338   0.854   0.493  13.499  2.2505  0.1920  1.4965
 3949TIP3    H233339   0.880   0.598  13.394 -1.6161 -1.4426 -1.3482
 3950TIP3   OH233340   2.770   4.728  12.093 -0.3325  0.2735 -0.4366
 3950TIP3    H133341   2.675   4.741  12.101 -0.2657  0.3411  0.3302
 3950TIP3    H233342   2.780   4.636  12.068 -0.4757 -1.1999  4.0934
 3951TIP3   OH233343   3.916   3.268  14.565 -0.1026  0.0453  0.1810
 3951TIP3    H133344   3.967   3.268  14.484  1.1000  2.0545  0.8522
 3951TIP3    H233345   3.825   3.275  14.536  0.0533 -2.0097 -1.0046
 3952TIP3   OH233346   5.284   5.084  13.231  0.0915 -0.3538  0.3600
 3952TIP3    H133347   5.284   4.993  13.260  0.0670  0.0549  1.7155
 3952TIP3    H233348   5.307   5.080  13.138 -1.6688 -1.8703 -0.0611
 3953TIP3   OH233349   4.547   0.627  10.995 -0.2327 -0.3698 -0.1684
 3953TIP3    H133350   4.475   0.680  10.961 -0.3697 -0.4544 -0.0097
 3953TIP3    H233351   4.622   0.650  10.939  0.1811  1.3652  1.0093
 3954TIP3   OH233352   6.136   2.559  14.663  0.6191 -0.2214 -0.5117
 3954TIP3    H133353   6.123   2.473  14.704 -0.5989 -0.4033 -1.2466
 3954TIP3    H233354   6.119   2.545  14.570 -0.9537  1.0580 -0.4743
 3955TIP3   OH233355   3.142   3.710  12.698 -0.1787  0.2649 -0.1047
 3955TIP3    H133356   3.205   3.780  12.714  0.4088 -0.0879 -0.8577
 3955TIP3    H233357   3.186   3.651  12.637 -0.3003 -1.2507  1.2026
 3956TIP3   OH233358   4.197   4.461   1.358 -0.1292  0.1978  0.5107
 3956TIP3    H133359   4.220   4.518   1.285 -1.4959  2.0880  1.4812
 3956TIP3    H233360   4.241   4.378   1.338  0.8531  1.1514 -1.6125
 3957TIP3   OH233361   3.159   0.019   5.459 -0.1542 -0.2412  0.0793
 3957TIP3    H133362   3.165   0.081   5.532 -0.9205 -0.4046  0.2885
 3957TIP3    H233363   3.242   0.030   5.412 -0.8240  2.0068 -0.7317
 3958TIP3   OH233364   1.933   2.450  16.545  0.5731  0.2971 -0.2577
 3958TIP3    H133365   1.950   2.503  16.468 -1.4595 -1.2407 -1.9105
 3958TIP3    H233366   1.997   2.379  16.541 -0.1842 -0.3709 -1.2143
 3959TIP3   OH233367   3.176   2.516   5.557  0.3732 -0.3009 -0.3095
 3959TIP3    H133368   3.211   2.598   5.522 -1.2030 -0.1724 -1.6966
 3959TIP3    H233369   3.104   2.542   5.613 -1.1972 -0.7277 -2.0256
 3960TIP3   OH233370   6.568   5.663  16.646  0.4199  0.6128 -0.2953
 3960TIP3    H133371   6.629   5.716  16.696 -0.8053  1.6248  0.1573
 3960TIP3    H233372   6.619   5.585  16.621  1.4900  0.8059  1.1859
 3961TIP3   OH233373   3.282   0.413   4.938  0.5352 -0.1787 -0.5256
 3961TIP3    H133374   3.235   0.343   4.893  0.1635  0.0196 -0.4447
 3961TIP3    H233375   3.266   0.491   4.885 -0.4256  0.1884  0.2842
 3962TIP3   OH233376   0.271   0.826   1.976 -0.2344  0.0423 -0.5439
 3962TIP3    H133377   0.292   0.740   1.937  1.0727 -0.2322  0.6795
 3962TIP3    H233378   0.337   0.838   2.045 -0.6566  1.8528 -0.4031
 3963TIP3   OH233379   3.198   6.422   4.673 -0.4944  0.1512 -0.1654
 3963TIP3    H133380   3.123   6.418   4.613  0.1963  1.9974 -1.2345
 3963TIP3    H233381   3.159   6.416   4.760 -1.6489 -1.2188 -0.7248
 3964TIP3   OH233382   4.859   3.161  16.528 -0.2787 -0.3604 -0.7780
 3964TIP3    H133383   4.845   3.069  16.553 -0.8089  0.1657  0.9857
 3964TIP3    H233384   4.827   3.166  16.438 -0.7006 -1.7943 -0.7385
 3965TIP3   OH233385   1.810   4.471   0.711 -0.4496 -0.1064  0.0207
 3965TIP3    H133386   1.844   4.556   0.737 -1.7297  0.2421  0.6145
 3965TIP3    H233387   1.718   4.472   0.737 -0.0631 -2.4069  1.9042
 3966TIP3   OH233388   1.130   1.244   0.775 -0.0251  0.1174  0.0718
 3966TIP3    H133389   1.158   1.153   0.779 -2.2271 -0.5675  1.5516
 3966TIP3    H233390   1.197   1.292   0.823  1.0777 -0.7293 -0.5902
 3967TIP3   OH233391   0.834   0.717  16.800 -0.7899  0.3337 -0.4006
 3967TIP3    H133392   0.775   0.657  16.754  0.4802 -1.7893  0.5502
 3967TIP3    H233393   0.896   0.659  16.845 -0.0940  2.3764  1.4442
 3968TIP3   OH233394   6.326   6.427   3.149 -0.3397 -0.1916 -0.0276
 3968TIP3    H133395   6.410   6.389   3.124 -1.4842 -1.9049 -1.6095
 3968TIP3    H233396   6.344   6.477   3.228  2.2339 -0.1210 -0.5677
 3969TIP3   OH233397   2.192   1.622  11.784 -0.0020  0.1780  0.1467
 3969TIP3    H133398   2.171   1.679  11.711  2.8798  0.6344 -0.4581
 3969TIP3    H233399   2.252   1.674  11.838  1.5387 -1.7086  0.3577
 3970TIP3   OH233400   1.920   0.880  13.981  0.4782  0.6133 -0.2965
 3970TIP3    H133401   1.878   0.812  14.034  0.5368  0.4315 -0.4810
 3970TIP3    H233402   1.858   0.952  13.981  0.8520  0.9510  0.7430
 3971TIP3   OH233403   2.214   2.602   0.578 -0.3796 -0.3438 -0.5553
 3971TIP3    H133404   2.279   2.589   0.508 -0.9071 -0.6622 -0.9922
 3971TIP3    H233405   2.152   2.665   0.542 -0.2169  0.0984 -0.0687
 3972TIP3   OH233406   6.037   1.302  12.870  0.2213  0.5930  0.2387
 3972TIP3    H133407   6.105   1.236  12.886 -1.1668 -0.9083  0.2228
 3972TIP3    H233408   6.017   1.339  12.956  0.8312  0.8261  0.2832
 3973TIP3   OH233409   5.627   4.806  13.670 -0.2550  0.5650 -0.5845
 3973TIP3    H133410   5.682   4.735  13.705  0.3661  0.3344 -1.9586
 3973TIP3    H233411   5.562   4.821  13.738  2.1431  1.6263  1.6690
 3974TIP3   OH233412   6.191   3.231   5.695  0.3896 -0.4930 -0.4573
 3974TIP3    H133413   6.270   3.183   5.670  0.5926 -1.2985  1.5269
 3974TIP3    H233414   6.149   3.175   5.760 -1.3307  0.3614 -0.7784
 3975TIP3   OH233415   4.331   1.510   1.920 -0.3649 -0.2151  0.2169
 3975TIP3    H133416   4.374   1.513   2.006  0.4662  2.3096 -0.2105
 3975TIP3    H233417   4.238   1.520   1.940 -0.1643  0.5065  0.8348
 3976TIP3   OH233418   4.684   1.455   2.984  0.3644 -0.1591 -0.4162
 3976TIP3    H133419   4.702   1.453   2.890 -1.2413  0.1868 -0.7597
 3976TIP3    H233420   4.616   1.520   2.994  0.9051  0.2127  1.0863
 3977TIP3   OH233421   3.616   6.301   0.021  0.2876  0.2144  0.4075
 3977TIP3    H133422   3.693   6.251   0.048  0.3475 -0.0466 -0.2518
 3977TIP3    H233423   3.542   6.253   0.058  0.4603  0.7346  1.4616
 3978TIP3   OH233424   3.970   1.286  12.342 -0.0722 -0.1778  0.3906
 3978TIP3    H133425   4.030   1.250  12.276 -0.6169  2.0530 -1.4461
 3978TIP3    H233426   3.976   1.225  12.416  1.9200 -1.8183 -1.0151
 3979TIP3   OH233427   2.560   6.234  13.401  0.2369  0.4108 -0.2746
 3979TIP3    H133428   2.597   6.186  13.476  0.0337 -1.6969 -1.4407
 3979TIP3    H233429   2.633   6.285  13.366  1.6594 -2.2017 -1.3821
 3980TIP3   OH233430   5.299   4.102   6.650  0.0620  0.0384 -0.5863
 3980TIP3    H133431   5.302   4.064   6.562  0.6311  0.0441 -0.5739
 3980TIP3    H233432   5.221   4.157   6.649 -0.1432 -0.2534 -0.9685
 3981TIP3   OH233433   3.064   4.130   6.021  0.2090 -0.0193  0.0751
 3981TIP3    H133434   3.109   4.181   6.088 -0.6057  0.5242  0.2205
 3981TIP3    H233435   3.123   4.132   5.945  1.1690 -0.6986  0.7774
 3982TIP3   OH233436   2.186   2.971  16.439  0.4236  0.0395  0.2545
 3982TIP3    H133437   2.189   2.884  16.479  0.0643 -0.5412 -0.9497
 3982TIP3    H233438   2.098   2.978  16.403  0.6123  0.7041 -0.0846
 3983TIP3   OH233439   4.737   0.263   0.236 -0.3253 -0.2878  0.2879
 3983TIP3    H133440   4.767   0.330   0.297  0.2853  0.9679 -1.3333
 3983TIP3    H233441   4.814   0.208   0.220 -0.8165 -1.4073  1.5896
 3984TIP3   OH233442   0.166   3.085  12.625 -0.4274  0.1290  0.2467
 3984TIP3    H133443   0.235   3.120  12.569  0.3960  0.0019  1.1478
 3984TIP3    H233444   0.115   3.028  12.568  0.6712 -0.3586 -0.2766
 3985TIP3   OH233445   5.271   6.340   3.771  0.5855 -0.4442  0.0403
 3985TIP3    H133446   5.189   6.362   3.815 -0.6389  0.4056 -2.4937
 3985TIP3    H233447   5.335   6.402   3.808 -0.7417  1.2814 -0.4253
 3986TIP3   OH233448   2.749   5.395  13.773  0.5293 -0.3681  0.1894
 3986TIP3    H133449   2.720   5.455  13.842 -0.5756 -0.8578  0.1750
 3986TIP3    H233450   2.797   5.450  13.712 -3.0520  1.2547 -1.4646
 3987TIP3   OH233451   5.843   2.728  12.361 -0.1770  0.3193 -0.3218
 3987TIP3    H133452   5.760   2.715  12.315 -0.6999 -0.0649  0.7188
 3987TIP3    H233453   5.821   2.784  12.435  0.2637 -0.7292  0.6138
 3988TIP3   OH233454   2.542   5.784  15.770  0.1099  0.2933  0.7033
 3988TIP3    H133455   2.566   5.865  15.815 -0.1381  0.5398  0.4029
 3988TIP3    H233456   2.503   5.813  15.688  0.7209 -0.1556  0.2487
 3989TIP3   OH233457   0.228   1.098  14.465 -0.5567  0.6157  0.0225
 3989TIP3    H133458   0.169   1.030  14.431 -0.6339  0.6677  0.0531
 3989TIP3    H233459   0.315   1.073  14.431 -0.7010  0.9014 -0.5644
 3990TIP3   OH233460   4.892   5.582  13.657 -0.3640  0.1482 -0.2693
 3990TIP3    H133461   4.875   5.630  13.738  0.3736  1.0630 -0.6443
 3990TIP3    H233462   4.885   5.490  13.682 -0.3888  0.4225  0.7779
 3991TIP3   OH233463   5.711   3.992   0.467  0.0975 -0.1732  0.0091
 3991TIP3    H133464   5.741   4.063   0.410  0.3074  0.6348  1.1162
 3991TIP3    H233465   5.666   3.932   0.407  0.0842  0.7829 -0.9772
 3992TIP3   OH233466   6.093   1.680   4.130 -0.1846  0.4785 -0.6117
 3992TIP3    H133467   6.065   1.616   4.065 -0.2581 -0.8411  0.6736
 3992TIP3    H233468   6.019   1.741   4.137 -2.1308 -1.8852  1.3714
 3993TIP3   OH233469   5.196   3.537   3.450  0.3459 -0.7102 -0.1930
 3993TIP3    H133470   5.123   3.552   3.390 -0.9459  0.2382  1.5225
 3993TIP3    H233471   5.195   3.443   3.467 -1.4663 -0.5270  0.9348
 3994TIP3   OH233472   4.904   4.736  12.032 -0.2619  0.2446 -0.4687
 3994TIP3    H133473   4.925   4.689  11.951  1.5111  0.7650 -0.3398
 3994TIP3    H233474   4.814   4.710  12.052 -0.0905 -1.3232 -1.6025
 3995TIP3   OH233475   4.570   5.779   1.348 -0.2522  0.2779 -0.1665
 3995TIP3    H133476   4.498   5.756   1.289 -1.3012  0.2303  1.0961
 3995TIP3    H233477   4.578   5.703   1.406 -0.0741  0.8335  0.5468
 3996TIP3   OH233478   5.844   4.868  15.557 -0.3666 -0.0078 -0.1502
 3996TIP3    H133479   5.811   4.837  15.473  1.4891 -3.3175  0.1754
 3996TIP3    H233480   5.890   4.950  15.536  3.1860 -2.4445 -3.2805
 3997TIP3   OH233481   0.332   5.858  16.749  0.1942  0.0222  0.3021
 3997TIP3    H133482   0.272   5.929  16.773  1.4129  1.7360 -1.4324
 3997TIP3    H233483   0.406   5.868  16.808  1.5155  1.9007 -1.5366
 3998TIP3   OH233484   4.409   0.974   5.258 -0.1104  0.5719 -0.2713
 3998TIP3    H133485   4.455   0.904   5.211  0.6218 -0.0061  1.2729
 3998TIP3    H233486   4.368   1.026   5.188 -1.0482 -1.6248 -1.4453
 3999TIP3   OH233487   4.297   6.842  10.292 -0.1717 -0.3823 -0.2085
 3999TIP3    H133488   4.303   6.903  10.365  1.0389 -0.3223 -0.3487
 3999TIP3    H233489   4.320   6.757  10.330  0.9575 -0.2686 -0.6091
 4000TIP3   OH233490   5.416   0.897   1.528  0.2378  0.0661 -0.2919
 4000TIP3    H133491   5.510   0.885   1.544  0.1798  0.7433  0.6050
 4000TIP3    H233492   5.374   0.826   1.577  0.1240  1.5382  1.8743
 4001TIP3   OH233493   5.430   1.152   1.638 -0.8784 -1.1289 -0.1764
 4001TIP3    H133494   5.355   1.206   1.661 -1.4835 -0.9673 -2.3072
 4001TIP3    H233495   5.391   1.073   1.600  0.0264 -2.1565  0.9549
 4002TIP3   OH233496   1.017   0.378   5.981 -0.1477 -0.3314  0.2338
 4002TIP3    H133497   1.058   0.424   5.908  0.6181 -2.6656 -0.9325
 4002TIP3    H233498   1.083   0.379   6.051 -0.5010  1.0632  0.5732
 4003TIP3   OH233499   5.280   1.430  14.596  0.0907 -0.5897 -0.0294
 4003TIP3    H133500   5.242   1.452  14.681 -2.0845 -3.9959  0.0522
 4003TIP3    H233501   5.371   1.406  14.616  0.5893  1.7029  0.7431
 4004TIP3   OH233502   4.010   1.241  16.875  0.1523 -0.3036 -0.3400
 4004TIP3    H133503   3.925   1.197  16.881 -0.2285  0.5166  0.8358
 4004TIP3    H233504   4.074   1.170  16.872 -0.5696 -0.9359 -1.3472
 4005TIP3   OH233505   6.809   4.744   5.047 -0.1957  0.3483 -0.3229
 4005TIP3    H133506   6.784   4.679   5.113 -0.6437 -0.3658 -1.1902
 4005TIP3    H233507   6.904   4.752   5.057 -0.0246 -1.0109 -0.7240
 4006TIP3   OH233508   6.521   1.548  15.887  0.2866  0.4712 -0.0152
 4006TIP3    H133509   6.449   1.609  15.900  0.7219  0.8246  0.8358
 4006TIP3    H233510   6.483   1.474  15.841 -0.2305  1.4256 -1.1553
 4007TIP3   OH233511   1.375   4.046  15.647 -0.2593 -0.1447  0.0739
 4007TIP3    H133512   1.344   4.098  15.722  0.8023  1.6928 -0.6874
 4007TIP3    H233513   1.444   3.991  15.683 -0.3357  0.0966  0.5976
 4008TIP3   OH233514   4.891   5.991  14.229 -0.0318  0.5252 -0.4671
 4008TIP3    H133515   4.900   6.074  14.277  0.9465  1.1950 -1.7541
 4008TIP3    H233516   4.978   5.974  14.193 -0.7145  0.0469 -1.9684
 4009TIP3   OH233517   5.777   3.500  15.426 -0.4637 -0.2759 -0.6964
 4009TIP3    H133518   5.851   3.550  15.460 -1.6043  0.7084  0.4556
 4009TIP3    H233519   5.781   3.512  15.331  0.4157  0.3860 -0.5870
 4010TIP3   OH233520   3.914   1.286  14.284 -0.3092 -0.7726  0.5242
 4010TIP3    H133521   3.851   1.319  14.219  2.4683 -0.5350 -2.3040
 4010TIP3    H233522   3.939   1.364  14.334 -0.6042 -0.4037  0.1110
 4011TIP3   OH233523   1.566   0.874  14.887  0.5321 -0.0244 -0.3987
 4011TIP3    H133524   1.630   0.931  14.844 -0.2633 -0.7293 -2.6690
 4011TIP3    H233525   1.579   0.789  14.846 -1.0970 -0.4487 -0.0868
 4012TIP3   OH233526   6.041   5.648  13.156 -0.1151 -0.2987  0.2502
 4012TIP3    H133527   6.061   5.645  13.250  0.1173  0.7313  0.2448
 4012TIP3    H233528   5.945   5.648  13.152 -0.1412  1.0068  0.5582
 4013TIP3   OH233529   6.518   1.866  14.895 -0.1047 -0.0237 -0.3439
 4013TIP3    H133530   6.557   1.950  14.872  0.8233  0.7668  3.4000
 4013TIP3    H233531   6.468   1.884  14.975  0.2639 -3.0423  0.7019
 4014TIP3   OH233532   4.891   2.413   6.433  0.2929 -0.5775  0.5740
 4014TIP3    H133533   4.970   2.390   6.383 -0.4147 -1.9226  0.0406
 4014TIP3    H233534   4.819   2.383   6.378 -0.7227  2.2489  0.1830
 4015TIP3   OH233535   3.800   3.002  14.476 -0.2048  0.8669  0.3524
 4015TIP3    H133536   3.805   3.091  14.510  0.4018  0.6934  0.7305
 4015TIP3    H233537   3.775   3.013  14.384 -0.1872  1.4188  0.4086
 4016TIP3   OH233538   3.697   6.267   3.862  0.0871  0.1060  0.4521
 4016TIP3    H133539   3.654   6.340   3.906 -0.9402  0.1152 -0.5261
 4016TIP3    H233540   3.669   6.274   3.771  1.0872 -0.7029  0.0613
 4017TIP3   OH233541   5.070   0.177  11.485  0.0070 -0.1959 -0.4610
 4017TIP3    H133542   5.022   0.182  11.402 -2.3456 -1.1493  0.7769
 4017TIP3    H233543   5.129   0.253  11.482 -1.3870  0.9151 -2.1668
 4018TIP3   OH233544   4.976   6.233   1.574 -0.2733  0.3606 -0.0573
 4018TIP3    H133545   5.009   6.242   1.663  1.3016  0.4510 -0.6214
 4018TIP3    H233546   4.976   6.138   1.558 -0.2969  0.3593 -0.0494
 4019TIP3   OH233547   2.324   1.398  14.184  0.5127 -0.1612  0.6143
 4019TIP3    H133548   2.388   1.444  14.239  0.0504  0.9952  0.2056
 4019TIP3    H233549   2.270   1.468  14.146  0.6469 -0.9435 -1.0950
 4020TIP3   OH233550   3.099   6.399  14.373 -0.2344  0.0941  0.0754
 4020TIP3    H133551   3.144   6.424  14.453  1.0206 -1.9569  0.0933
 4020TIP3    H233552   3.009   6.381  14.401  0.2511 -0.8465  1.1258
 4021TIP3   OH233553   0.748   6.661   4.825 -0.0781 -0.0381 -0.2331
 4021TIP3    H133554   0.762   6.681   4.732 -1.1939  1.8058 -0.0690
 4021TIP3    H233555   0.835   6.648   4.861  0.3881 -0.4665 -1.4701
 4022TIP3   OH233556   2.670   2.415   2.878  0.3117  0.4779  0.3233
 4022TIP3    H133557   2.704   2.501   2.903  0.6705  0.0917  1.1845
 4022TIP3    H233558   2.593   2.403   2.933  0.2483  0.2558  0.1871
 4023TIP3   OH233559   2.079   0.655   0.424 -0.3402  0.6220 -0.2915
 4023TIP3    H133560   2.013   0.650   0.492  1.0160  0.7689  1.0943
 4023TIP3    H233561   2.152   0.701   0.465  1.9758 -2.4794 -0.5795
 4024TIP3   OH233562   3.554   0.407   5.010 -0.2430  0.2059 -0.3405
 4024TIP3    H133563   3.482   0.393   4.948  1.4410  0.1468 -2.4236
 4024TIP3    H233564   3.633   0.396   4.957  1.3160  0.6224  1.7662
 4025TIP3   OH233565   4.383   0.087  15.926 -0.2672  0.0610  0.3392
 4025TIP3    H133566   4.439   0.088  16.004  2.1298 -0.3208 -1.2942
 4025TIP3    H233567   4.331   0.008  15.936 -0.9897  0.6956  2.1544
 4026TIP3   OH233568   4.038   3.813   5.526  0.4500  0.1139  0.6287
 4026TIP3    H133569   3.997   3.798   5.612  0.0901 -1.2450  0.2610
 4026TIP3    H233570   3.966   3.842   5.471 -0.4151 -3.2232 -0.2723
 4027TIP3   OH233571   2.399   3.484   0.643 -0.3318 -0.2124 -0.2163
 4027TIP3    H133572   2.481   3.481   0.593 -0.2183  0.1322 -0.0579
 4027TIP3    H233573   2.413   3.423   0.716 -0.5940 -0.9102 -0.7379
 4028TIP3   OH233574   0.087   5.653   4.492  0.0087  0.0259 -0.0531
 4028TIP3    H133575   0.131   5.714   4.432  1.5084 -0.7355  0.2276
 4028TIP3    H233576   0.083   5.700   4.575  1.3473 -0.2940  0.2183
 4029TIP3   OH233577   4.572   2.594  14.532 -0.1123  0.0914 -0.1129
 4029TIP3    H133578   4.606   2.541  14.460 -1.1113  0.2450 -0.7173
 4029TIP3    H233579   4.646   2.648  14.559  0.3800 -0.2415 -0.7715
 4030TIP3   OH233580   2.314   3.320   1.272  0.0239 -0.3961 -0.4047
 4030TIP3    H133581   2.258   3.376   1.218  0.4558  0.0301 -0.4196
 4030TIP3    H233582   2.370   3.274   1.209 -0.4785 -1.0259 -0.4083
 4031TIP3   OH233583   6.125   1.399   5.462 -0.3719 -0.0601 -0.2054
 4031TIP3    H133584   6.168   1.371   5.381 -1.4067 -1.8649 -0.1924
 4031TIP3    H233585   6.032   1.400   5.440 -0.8483 -2.3714  1.3738
 4032TIP3   OH233586   6.707   1.146  11.302 -0.2645 -0.1082 -0.4250
 4032TIP3    H133587   6.655   1.222  11.327 -0.3466 -0.4076  0.3637
 4032TIP3    H233588   6.796   1.168  11.329 -0.4214 -0.5951  0.5328
 4033TIP3   OH233589   0.304   3.409   5.841 -0.1524  0.0983 -0.5360
 4033TIP3    H133590   0.390   3.423   5.880  0.3794 -0.2637 -1.5666
 4033TIP3    H233591   0.280   3.495   5.805  0.1753 -0.0235 -1.0422
 4034TIP3   OH233592   4.391   3.478  16.082 -0.7212 -0.1912 -0.5204
 4034TIP3    H133593   4.457   3.408  16.083 -0.0414  0.4033 -1.7098
 4034TIP3    H233594   4.313   3.438  16.120  0.3703 -0.8516  1.1326
 4035TIP3   OH233595   5.546   0.053  13.680  0.2793 -0.1358 -0.2430
 4035TIP3    H133596   5.479  -0.012  13.700 -1.3442  1.2957 -0.7662
 4035TIP3    H233597   5.589   0.070  13.764  0.9249 -2.0224 -0.1517
 4036TIP3   OH233598   1.400   6.672   0.031  0.4414 -0.0585  0.0633
 4036TIP3    H133599   1.360   6.717  -0.043  1.6655 -2.0840 -1.9374
 4036TIP3    H233600   1.423   6.742   0.092 -0.5758  1.6896 -1.4669
 4037TIP3   OH233601   3.466   1.910   3.109  0.0905  0.1711  0.3491
 4037TIP3    H133602   3.391   1.951   3.150  1.6131  1.3730  2.1054
 4037TIP3    H233603   3.511   1.982   3.064  2.3597  0.4052  2.7768
 4038TIP3   OH233604   2.454   6.804   2.080  0.2781  0.2742  0.1185
 4038TIP3    H133605   2.420   6.885   2.044 -1.8232 -1.6534 -2.6738
 4038TIP3    H233606   2.379   6.762   2.122  0.3940 -1.5904 -1.3533
 4039TIP3   OH233607   6.356   2.263  15.436  0.4294 -0.3666  0.2536
 4039TIP3    H133608   6.408   2.291  15.511 -0.2904 -0.0076  0.6299
 4039TIP3    H233609   6.270   2.303  15.450  0.2369 -0.4355 -0.6740
 4040TIP3   OH233610   6.402   0.582   4.124  0.0710 -0.1668  0.5554
 4040TIP3    H133611   6.348   0.575   4.045 -0.0363 -0.7941  0.6837
 4040TIP3    H233612   6.343   0.616   4.191  0.4484  1.5539  0.0840
 4041TIP3   OH233613   5.751   3.102   0.245 -0.0104 -0.0234  0.3867
 4041TIP3    H133614   5.711   3.036   0.301 -1.6490 -0.7695 -1.5115
 4041TIP3    H233615   5.837   3.066   0.224  0.6652  0.3175  2.4074
 4042TIP3   OH233616   5.558   3.560  13.598 -0.6556 -0.0128  0.1797
 4042TIP3    H133617   5.578   3.490  13.660 -2.3472  0.7538  1.6665
 4042TIP3    H233618   5.463   3.558  13.589 -0.6933  1.6807 -0.2376
 4043TIP3   OH233619   4.547   5.567   1.540  0.2929 -0.4778 -0.1321
 4043TIP3    H133620   4.591   5.553   1.624 -1.9711 -2.2562  0.8663
 4043TIP3    H233621   4.587   5.503   1.482  1.2709  0.1753 -0.2085
 4044TIP3   OH233622   2.761   5.499   2.087 -0.5435 -0.2869  0.4235
 4044TIP3    H133623   2.775   5.588   2.119 -1.3476 -0.3926  1.0946
 4044TIP3    H233624   2.755   5.445   2.165 -0.2798 -0.9046  0.0278
 4045TIP3   OH233625   0.557   0.895  15.467  0.2450 -0.5272 -0.1720
 4045TIP3    H133626   0.497   0.940  15.526  0.3280 -1.6771  0.8459
 4045TIP3    H233627   0.568   0.808  15.506  1.4357 -0.8339 -1.1145
 4046TIP3   OH233628   2.508   4.131   3.668 -0.3723 -0.3969  0.2469
 4046TIP3    H133629   2.569   4.075   3.619  1.8031 -0.0175  2.3598
 4046TIP3    H233630   2.434   4.143   3.608  1.2838 -1.4767 -2.1902
 4047TIP3   OH233631   0.162   2.107   4.604  0.0449 -1.1902  0.0628
 4047TIP3    H133632   0.100   2.137   4.537 -0.9662 -0.0114  1.4785
 4047TIP3    H233633   0.237   2.165   4.595  0.7066 -2.1768 -1.1887
 4048TIP3   OH233634   5.299   2.187  13.747  0.6829  0.2394  0.1440
 4048TIP3    H133635   5.239   2.259  13.729  0.2634 -0.5986 -2.1922
 4048TIP3    H233636   5.383   2.217  13.714  0.7541  0.1030  0.2006
 4049TIP3   OH233637   0.470   2.705  12.311  0.4102 -0.2195  0.0619
 4049TIP3    H133638   0.555   2.713  12.354  0.1949  1.2746  0.2700
 4049TIP3    H233639   0.486   2.649  12.236  1.0670 -1.8566  1.3498
 4050TIP3   OH233640   2.400   0.439  16.586  0.6981  0.5570 -0.4024
 4050TIP3    H133641   2.434   0.370  16.643  1.7579  1.5122  0.1796
 4050TIP3    H233642   2.465   0.510  16.593  0.8705  0.7135 -2.8184
 4051TIP3   OH233643   5.155   2.569  14.000 -0.4154  0.9196 -0.2875
 4051TIP3    H133644   5.131   2.661  14.011 -1.7544  0.5649  0.0556
 4051TIP3    H233645   5.109   2.541  13.921  0.6952  0.7527 -0.8923
 4052TIP3   OH233646   2.639   5.036   3.553 -0.0280 -0.2984  0.1773
 4052TIP3    H133647   2.595   4.967   3.503  0.9259  0.3547 -1.6775
 4052TIP3    H233648   2.601   5.118   3.521  1.6928  0.2182 -0.6747
 4053TIP3   OH233649   0.761   6.186  15.426  0.6889 -0.1724 -0.3122
 4053TIP3    H133650   0.821   6.257  15.402  0.1446  0.9193  1.3412
 4053TIP3    H233651   0.804   6.142  15.499  0.8436 -1.3514 -1.0799
 4054TIP3   OH233652   2.671   1.498   3.364  0.5018  0.0330 -0.7421
 4054TIP3    H133653   2.644   1.449   3.442  0.5459 -2.2078 -2.0465
 4054TIP3    H233654   2.632   1.584   3.375 -1.3878 -0.9411  0.6930
 4055TIP3   OH233655   3.728   0.819  14.207 -0.0427  0.3838 -0.7652
 4055TIP3    H133656   3.730   0.778  14.120  0.2691  0.9370 -1.0275
 4055TIP3    H233657   3.636   0.844  14.220 -0.2536 -0.4865 -0.5564
 4056TIP3   OH233658   0.628   5.305   2.751 -0.4236  0.2178  0.3205
 4056TIP3    H133659   0.724   5.308   2.752 -0.4339  0.8886  1.3488
 4056TIP3    H233660   0.604   5.280   2.841 -1.2154  0.5903  0.2214
 4057TIP3   OH233661   1.923   6.569   4.680 -0.5713  0.3875  0.1830
 4057TIP3    H133662   1.890   6.659   4.673 -1.4012  0.0233 -0.9425
 4057TIP3    H233663   1.964   6.553   4.594 -1.9582 -0.8803 -0.2676
 4058TIP3   OH233664   6.658   2.491  11.495 -0.3685  0.1747  0.1895
 4058TIP3    H133665   6.709   2.478  11.416 -0.2213 -0.3433  0.3656
 4058TIP3    H233666   6.663   2.585  11.512  2.7995 -0.1607  1.7216
 4059TIP3   OH233667   0.252   3.835   1.382  0.1808  0.6535 -0.7842
 4059TIP3    H133668   0.302   3.907   1.420  1.4638 -0.3379 -0.5593
 4059TIP3    H233669   0.283   3.829   1.291  0.8513 -0.2839 -0.5030
 4060TIP3   OH233670   3.046   1.464   5.037  0.0102 -0.4846  0.2592
 4060TIP3    H133671   2.977   1.435   4.977  0.7377 -0.2623 -0.7004
 4060TIP3    H233672   3.119   1.487   4.980  0.6496 -0.0792  1.2275
 4061TIP3   OH233673   5.650   0.742  14.322 -0.1387 -0.3092 -0.6400
 4061TIP3    H133674   5.609   0.656  14.334  1.0621 -0.8971 -0.5005
 4061TIP3    H233675   5.736   0.733  14.364  0.4472  0.6069 -1.5925
 4062TIP3   OH233676   1.366   5.922   5.331  0.5519  0.1188 -0.7554
 4062TIP3    H133677   1.353   5.833   5.298  0.1835 -0.6201  1.2332
 4062TIP3    H233678   1.374   5.911   5.426 -0.6690  2.3322 -0.3362
 4063TIP3   OH233679   5.245   4.458  11.249 -0.4724 -0.0819  0.1806
 4063TIP3    H133680   5.236   4.366  11.223 -0.8581 -0.1769  0.6324
 4063TIP3    H233681   5.329   4.461  11.296 -0.8968 -0.4014  0.9736
 4064TIP3   OH233682   2.561   4.475   3.060 -0.4159 -0.7854  0.3983
 4064TIP3    H133683   2.488   4.436   3.107 -0.0373 -0.0802  1.6246
 4064TIP3    H233684   2.616   4.515   3.128 -0.4655  1.3382 -0.6946
 4065TIP3   OH233685   2.683   5.158  15.937  0.0571 -0.4102  0.7018
 4065TIP3    H133686   2.728   5.074  15.930 -1.3012 -1.0535 -1.4660
 4065TIP3    H233687   2.657   5.178  15.847 -3.9887 -0.1550  1.7493
 4066TIP3   OH233688   2.795   2.223   4.464 -0.5616 -0.4302  0.5346
 4066TIP3    H133689   2.805   2.190   4.553 -2.1999 -0.6706  0.6625
 4066TIP3    H233690   2.704   2.252   4.460 -0.1504  0.7822 -0.6763
 4067TIP3   OH233691   0.455   5.704   1.825 -0.3707 -0.2403  0.9602
 4067TIP3    H133692   0.427   5.795   1.829 -0.5814 -0.2948  0.7263
 4067TIP3    H233693   0.548   5.706   1.848 -0.5111 -0.0332  1.5283
 4068TIP3   OH233694   2.237   5.495  11.482 -0.7114 -0.1408  0.4046
 4068TIP3    H133695   2.306   5.442  11.443 -1.5114 -0.0950 -1.1243
 4068TIP3    H233696   2.241   5.474  11.576 -0.3352 -2.0983 -0.0116
 4069TIP3   OH233697   3.118   4.948   1.269  0.4607  0.5564 -0.4271
 4069TIP3    H133698   3.087   4.996   1.346  1.5014  1.0861 -0.3295
 4069TIP3    H233699   3.167   4.874   1.305 -1.6242 -1.0164 -0.5585
 4070TIP3   OH233700   6.667   6.165  15.413  0.1265  0.4108 -0.6964
 4070TIP3    H133701   6.591   6.108  15.397 -0.2490  0.9453 -0.8346
 4070TIP3    H233702   6.666   6.227  15.340  0.8168  0.2952 -0.8033
 4071TIP3   OH233703   1.404   4.622   1.797  0.3684  0.0469 -0.2014
 4071TIP3    H133704   1.398   4.530   1.821  1.2861  0.4635  1.8338
 4071TIP3    H233705   1.325   4.661   1.834 -0.2736  0.0306 -1.4919
 4072TIP3   OH233706   4.309   3.573  13.900  0.0068 -0.1078 -0.3463
 4072TIP3    H133707   4.238   3.571  13.835  0.3117  0.5807 -0.7105
 4072TIP3    H233708   4.302   3.660  13.939 -1.3131 -1.1180  1.8542
 4073TIP3   OH233709   2.964   6.752  14.373  0.4588 -0.3161 -0.5338
 4073TIP3    H133710   2.906   6.819  14.337 -0.8954 -0.3333  1.4762
 4073TIP3    H233711   2.929   6.669  14.339 -2.3315 -0.5631  2.4507
 4074TIP3   OH233712   6.211   2.265   3.865  0.0422 -0.3255  0.0997
 4074TIP3    H133713   6.132   2.297   3.821  0.6206  1.4607  0.2734
 4074TIP3    H233714   6.179   2.225   3.946 -0.6043  3.1732  1.7746
 4075TIP3   OH233715   5.881   4.634   5.282 -0.0355  0.3571  0.1139
 4075TIP3    H133716   5.892   4.620   5.188  0.0066 -0.7605  0.2690
 4075TIP3    H233717   5.969   4.652   5.315  0.1757 -0.7017  0.1515
 4076TIP3   OH233718   2.566   1.376   3.598  0.3818  0.3120  0.3564
 4076TIP3    H133719   2.473   1.376   3.577  0.7442  1.6994 -1.5530
 4076TIP3    H233720   2.572   1.426   3.679 -0.5977 -0.7266  1.1109
 4077TIP3   OH233721   5.955   1.602   5.213 -0.0649  0.6897  0.3693
 4077TIP3    H133722   5.902   1.598   5.294  1.3777 -1.2342  1.2962
 4077TIP3    H233723   5.890   1.616   5.144 -2.1750 -3.3980  1.2150
 4078TIP3   OH233724   2.667   2.148  16.875 -0.0149  0.3578 -0.3814
 4078TIP3    H133725   2.738   2.107  16.825 -1.0975 -0.9410 -0.9324
 4078TIP3    H233726   2.646   2.084  16.943 -0.7959  0.6271 -0.3581
 4079TIP3   OH233727   0.419   5.722  15.106 -0.4320  0.1336  0.1405
 4079TIP3    H133728   0.388   5.675  15.183 -2.7216  2.9220  1.1022
 4079TIP3    H233729   0.356   5.700  15.037 -0.9314  0.9661  0.3199
 4080TIP3   OH233730   2.406   5.297   2.975 -0.0418 -0.1575 -0.4980
 4080TIP3    H133731   2.352   5.220   2.995 -0.6464 -0.3221 -2.6006
 4080TIP3    H233732   2.493   5.261   2.958  0.9803  0.1373  3.2336
 4081TIP3   OH233733   3.242   1.860  11.390 -0.5078 -0.2722 -0.0454
 4081TIP3    H133734   3.285   1.946  11.389 -1.9595  0.4752 -0.5518
 4081TIP3    H233735   3.245   1.833  11.481  1.2616 -0.3809 -0.1023
 4082TIP3   OH233736   3.286   2.286   0.713  0.5733  0.4234 -0.8743
 4082TIP3    H133737   3.367   2.235   0.709  1.8575  2.0013  1.8011
 4082TIP3    H233738   3.249   2.265   0.798 -1.4147  0.3999 -1.7094
 4083TIP3   OH233739   6.141   2.585   3.263  0.4774  0.3460 -0.0081
 4083TIP3    H133740   6.074   2.651   3.280  1.1426  0.8706  0.6311
 4083TIP3    H233741   6.092   2.502   3.260 -0.2250  0.7407  0.2250
 4084TIP3   OH233742   0.239   3.648   5.743 -0.0529  0.6769 -0.0842
 4084TIP3    H133743   0.190   3.724   5.773 -0.3609  0.9394 -1.2100
 4084TIP3    H233744   0.277   3.675   5.659  0.3098 -0.2194 -0.2249
 4085TIP3   OH233745   3.711   2.969   4.511 -0.2941 -0.0288 -0.1655
 4085TIP3    H133746   3.617   2.949   4.505 -0.6266  0.4012  2.3290
 4085TIP3    H233747   3.739   2.923   4.591  1.5318  0.1971 -0.6472
 4086TIP3   OH233748   5.967   2.044   6.357  0.0174 -0.2446  0.4815
 4086TIP3    H133749   5.893   1.992   6.326  0.0156  0.2995 -0.4702
 4086TIP3    H233750   5.974   2.024   6.450 -0.1337 -1.7639  0.1935
 4087TIP3   OH233751   3.388   5.690  11.534 -0.0839 -0.2141 -0.0426
 4087TIP3    H133752   3.411   5.777  11.567 -0.0485 -0.0479 -0.4968
 4087TIP3    H233753   3.470   5.658  11.496 -0.4585  0.1775 -1.2268
 4088TIP3   OH233754   1.182   1.380  12.430 -0.2532  0.1236 -0.0578
 4088TIP3    H133755   1.198   1.384  12.336 -0.3542 -0.6521 -0.1106
 4088TIP3    H233756   1.197   1.469  12.460  1.6328 -0.0032 -0.5143
 4089TIP3   OH233757   2.261   4.261   0.784 -0.7134 -0.0604 -0.9491
 4089TIP3    H133758   2.307   4.226   0.861 -0.4911  2.9164  0.3939
 4089TIP3    H233759   2.327   4.312   0.738 -1.2973 -0.3912 -2.1856
 4090TIP3   OH233760   2.024   2.161  17.134  0.5188 -0.2638 -0.5264
 4090TIP3    H133761   1.944   2.137  17.089 -1.8801  2.8436  1.6553
 4090TIP3    H233762   2.079   2.202  17.067 -1.5090  1.2606 -1.3292
 4091TIP3   OH233763   5.224   6.702  15.532  0.0909 -0.2536  0.0513
 4091TIP3    H133764   5.229   6.795  15.509  1.6948 -0.5016 -0.7597
 4091TIP3    H233765   5.261   6.657  15.456  1.6219 -1.3973  1.4089
 4092TIP3   OH233766   5.866   1.360   4.392  0.2437 -0.3899  0.4417
 4092TIP3    H133767   5.827   1.284   4.348  1.8309  0.4167 -2.6156
 4092TIP3    H233768   5.842   1.434   4.337  3.6456  0.4787 -0.0656
 4093TIP3   OH233769   5.154   4.859  15.876  0.0739  0.2234 -0.1739
 4093TIP3    H133770   5.234   4.822  15.839  0.7638  0.6224  0.8516
 4093TIP3    H233771   5.162   4.953  15.862 -0.8697  0.1534 -1.2648
 4094TIP3   OH233772   4.738   2.614  10.514 -0.2506  0.0205 -0.3807
 4094TIP3    H133773   4.646   2.625  10.492 -0.2871 -0.3593 -0.4199
 4094TIP3    H233774   4.785   2.658  10.443 -0.4254  2.9420  1.1699
 4095TIP3   OH233775   1.525   3.119   5.124 -0.0474  0.0567 -0.1558
 4095TIP3    H133776   1.481   3.155   5.201  1.4716  0.0939  0.7316
 4095TIP3    H233777   1.454   3.089   5.068 -1.2105  0.5032  1.0249
 4096TIP3   OH233778   0.474   4.393  12.453  0.0002 -0.0146 -0.0943
 4096TIP3    H133779   0.418   4.333  12.502  0.9468  0.4836  1.6912
 4096TIP3    H233780   0.537   4.337  12.408  1.0166 -0.4117  1.7309
 4097TIP3   OH233781   5.652   5.999  11.872 -0.1107  0.2710 -0.5324
 4097TIP3    H133782   5.668   6.089  11.902 -0.7653 -0.0141  0.7515
 4097TIP3    H233783   5.664   5.945  11.951 -2.0492 -0.5030 -0.7003
 4098TIP3   OH233784   1.065   5.460   5.092 -0.1549 -0.1000  0.0007
 4098TIP3    H133785   1.082   5.553   5.083  1.7100 -0.5306 -2.0700
 4098TIP3    H233786   1.095   5.422   5.009 -0.3289 -2.6026  0.9768
 4099TIP3   OH233787   3.870   3.307   1.811  0.7707  0.2086 -0.0592
 4099TIP3    H133788   3.877   3.376   1.744 -0.0318 -0.5751 -0.9836
 4099TIP3    H233789   3.780   3.275   1.804  1.1595 -1.0151  0.2632
 4100TIP3   OH233790   1.737   0.238   5.757 -0.2496 -0.3703  0.0111
 4100TIP3    H133791   1.802   0.219   5.825  0.3162  1.9575  0.1896
 4100TIP3    H233792   1.789   0.257   5.679 -0.6850  1.4477  0.1384
 4101TIP3   OH233793   3.821   6.404   0.300 -0.0412 -0.0783 -0.3724
 4101TIP3    H133794   3.846   6.336   0.237  0.3139 -1.4007  1.1188
 4101TIP3    H233795   3.751   6.363   0.351  1.2606  0.0570  1.5930
 4102TIP3   OH233796   2.146   4.231  15.011  0.1033  0.1105  0.2005
 4102TIP3    H133797   2.113   4.182  15.086 -0.1757 -0.0682 -0.0353
 4102TIP3    H233798   2.134   4.323  15.035 -1.6190  0.0632 -0.3108
 4103TIP3   OH233799   3.380   4.834  11.353 -0.2169  0.4851 -0.5772
 4103TIP3    H133800   3.456   4.797  11.309 -0.0252  0.3448 -0.1351
 4103TIP3    H233801   3.348   4.764  11.410 -2.0229 -0.2378 -2.3735
 4104TIP3   OH233802   1.927   5.318   5.409  0.3264  0.1918  0.2703
 4104TIP3    H133803   1.925   5.297   5.503 -1.9280 -0.0390  0.2158
 4104TIP3    H233804   1.894   5.407   5.403  1.2004  0.4938 -0.2740
 4105TIP3   OH233805   3.418   2.807   3.394  0.7761  0.0934 -0.1116
 4105TIP3    H133806   3.372   2.723   3.389  0.6933  0.1634 -0.6765
 4105TIP3    H233807   3.350   2.870   3.420  0.5893  0.1628 -0.7473
 4106TIP3   OH233808   4.156   2.304  11.897 -0.1692  0.2097 -0.0139
 4106TIP3    H133809   4.153   2.211  11.921 -1.5277 -0.0199 -0.9462
 4106TIP3    H233810   4.069   2.337  11.920  0.7494  1.6087  1.5707
 4107TIP3   OH233811   2.106   3.793   0.443  0.4843  0.3381 -0.0219
 4107TIP3    H133812   2.134   3.871   0.490  0.8364 -0.0154  0.3582
 4107TIP3    H233813   2.016   3.777   0.474  0.7879 -0.0154  0.7015
 4108TIP3   OH233814   5.210   4.623  14.468  0.4222  0.9021  0.0808
 4108TIP3    H133815   5.241   4.572  14.393 -2.0879 -1.5436  0.5509
 4108TIP3    H233816   5.207   4.561  14.541 -0.3926  2.3443  1.3417
 4109TIP3   OH233817   1.197   0.088   5.897 -0.3921 -0.6003  0.0155
 4109TIP3    H133818   1.209   0.143   5.974  2.8737 -0.7243 -0.2822
 4109TIP3    H233819   1.220  -0.000   5.926  1.1220 -0.6121 -1.0874
 4110TIP3   OH233820   1.024   6.457   2.204  0.5909 -0.9451  0.3661
 4110TIP3    H133821   1.073   6.417   2.132 -0.2074  0.3474 -0.9427
 4110TIP3    H233822   1.076   6.534   2.228  0.5457 -1.0362  0.7539
 4111TIP3   OH233823   2.875   1.672   5.570  0.0280 -0.0088 -0.2060
 4111TIP3    H133824   2.891   1.651   5.478  0.8333  0.2884 -0.1472
 4111TIP3    H233825   2.944   1.624   5.617 -0.6026 -0.4543  0.2760
 4112TIP3   OH233826   0.406   6.444   2.677  0.0434 -0.0651 -0.3455
 4112TIP3    H133827   0.413   6.349   2.681  0.7311  0.0121  0.6405
 4112TIP3    H233828   0.480   6.476   2.729 -0.7397  0.9947  0.1651
 4113TIP3   OH233829   0.789   0.594   1.675  0.4268  0.1670  0.7175
 4113TIP3    H133830   0.797   0.587   1.580 -2.1629 -3.3862  0.5598
 4113TIP3    H233831   0.714   0.651   1.689 -1.1474 -1.6880  0.3599
 4114TIP3   OH233832   4.500   5.073   2.403  0.2337  0.0771  0.5146
 4114TIP3    H133833   4.478   5.133   2.474 -2.5989 -0.5591  0.2680
 4114TIP3    H233834   4.492   5.126   2.324 -0.7277 -0.2194  0.4054
 4115TIP3   OH233835   0.341   2.762  14.741 -0.4558  0.0687 -0.2282
 4115TIP3    H133836   0.324   2.855  14.722  0.9231 -0.0236 -2.1400
 4115TIP3    H233837   0.311   2.715  14.664 -1.1703 -1.1203  0.7345
 4116TIP3   OH233838   4.002   4.612  12.910 -0.0525 -0.1026  0.0058
 4116TIP3    H133839   3.937   4.557  12.955 -0.6168  1.1006  0.6899
 4116TIP3    H233840   3.973   4.613  12.819  0.8074 -2.1285 -0.3480
 4117TIP3   OH233841   0.600   6.141  12.941 -0.6526 -0.1354  0.0432
 4117TIP3    H133842   0.522   6.184  12.904  0.1682  0.7255 -0.7253
 4117TIP3    H233843   0.608   6.060  12.891 -1.6258 -0.7487  0.8222
 4118TIP3   OH233844   4.834   2.901   1.147 -0.1418  0.4654 -0.4114
 4118TIP3    H133845   4.780   2.828   1.177 -0.0038  1.1441  1.6612
 4118TIP3    H233846   4.920   2.862   1.132 -0.1517  0.1114  0.3711
 4119TIP3   OH233847   6.079   3.499  12.033  0.5949 -0.5780 -0.1099
 4119TIP3    H133848   6.077   3.586  12.072  0.4997 -0.8733  0.5489
 4119TIP3    H233849   6.171   3.483  12.014  0.7063 -0.6316  0.4535
 4120TIP3   OH233850   0.092   2.959  14.091 -0.2581 -0.3646  0.6408
 4120TIP3    H133851   0.169   2.909  14.063 -0.5735  0.4105 -1.9135
 4120TIP3    H233852   0.088   2.945  14.185  1.3833 -2.6983  0.4827
 4121TIP3   OH233853   0.864   4.604   4.556  0.1371 -0.2794 -0.8068
 4121TIP3    H133854   0.836   4.513   4.545  1.5407 -0.5892 -2.1117
 4121TIP3    H233855   0.931   4.600   4.625  1.2031 -0.4811 -1.8268
 4122TIP3   OH233856   4.497   6.155   1.194  0.2585  0.2119  0.3437
 4122TIP3    H133857   4.497   6.228   1.132  0.5630  0.1013  0.2088
 4122TIP3    H233858   4.428   6.176   1.257  1.0642  1.1649  0.9372
 4123TIP3   OH233859   5.200   2.710   5.788 -0.1230 -0.1245  0.9438
 4123TIP3    H133860   5.182   2.795   5.828 -2.0100 -0.1499  0.2183
 4123TIP3    H233861   5.168   2.646   5.851  0.9613 -0.3114  1.3250
 4124TIP3   OH233862   0.082   3.814   4.720  0.0523  0.9433  0.3917
 4124TIP3    H133863   0.022   3.887   4.704  0.4623  0.8680 -1.8514
 4124TIP3    H233864   0.153   3.852   4.772  0.7849  2.4869 -1.5962
 4125TIP3   OH233865   0.841   5.881  15.282  0.2696  0.3159  0.0063
 4125TIP3    H133866   0.916   5.895  15.225  1.7111 -0.1085  1.7077
 4125TIP3    H233867   0.797   5.966  15.285  1.0159  0.7292 -0.5618
 4126TIP3   OH233868   0.249   5.768  15.889  0.7674  0.0750 -0.0984
 4126TIP3    H133869   0.159   5.754  15.920  0.4772  2.2540  0.1456
 4126TIP3    H233870   0.304   5.740  15.963  0.1284  3.1893  1.7238
 4127TIP3   OH233871   2.512   1.365   0.936  0.8288  0.5178 -0.5143
 4127TIP3    H133872   2.552   1.314   0.866  2.3362  1.9529 -0.7586
 4127TIP3    H233873   2.422   1.333   0.941  0.5921  0.5531 -3.2788
 4128TIP3   OH233874   2.298   0.940   2.553  0.2323  0.1460  0.2923
 4128TIP3    H133875   2.335   1.015   2.599  0.2779 -0.5766  1.4692
 4128TIP3    H233876   2.247   0.893   2.619  0.8891 -1.3186 -0.2028
 4129TIP3   OH233877   5.671   5.985   4.547  0.4384 -0.4622  0.3555
 4129TIP3    H133878   5.651   6.064   4.597  1.0088  0.2745 -0.5441
 4129TIP3    H233879   5.766   5.974   4.555  0.6097 -0.0881 -0.8686
 4130TIP3   OH233880   5.439   2.902   2.604 -0.4037  0.0845 -0.0266
 4130TIP3    H133881   5.503   2.911   2.534 -1.5361 -3.7250 -1.8461
 4130TIP3    H233882   5.481   2.941   2.681  2.3657  1.2864 -1.9953
 4131TIP3   OH233883   3.803   6.760   1.931 -0.0370 -1.0587 -0.3644
 4131TIP3    H133884   3.891   6.725   1.948  0.7007 -0.4758 -2.5823
 4131TIP3    H233885   3.819   6.848   1.897 -1.5520 -0.5801  0.1167
 4132TIP3   OH233886   1.507   3.278   4.541 -0.2281  0.3738 -0.0024
 4132TIP3    H133887   1.479   3.235   4.621  0.4840 -1.0019 -0.4650
 4132TIP3    H233888   1.429   3.277   4.485 -0.3740  0.2182  0.2053
 4133TIP3   OH233889   0.450   5.762  16.119 -0.2651  0.2893  0.6903
 4133TIP3    H133890   0.537   5.757  16.078 -0.3550  0.2495  0.5043
 4133TIP3    H233891   0.458   5.707  16.197 -0.3129 -0.2366  0.3331
 4134TIP3   OH233892   4.390   0.702   4.074 -0.1142 -0.4292 -0.0989
 4134TIP3    H133893   4.344   0.690   3.991 -0.7377  0.0154  0.1677
 4134TIP3    H233894   4.425   0.792   4.069  0.5876 -0.7005 -0.2261
 4135TIP3   OH233895   5.848   0.777   3.768  0.4994  0.0195 -0.4153
 4135TIP3    H133896   5.765   0.782   3.719 -0.2442 -0.9061  0.6738
 4135TIP3    H233897   5.916   0.790   3.702 -0.3998 -2.5978 -2.0038
 4136TIP3   OH233898   3.313   3.541  12.274  0.3264  0.0811 -0.0906
 4136TIP3    H133899   3.370   3.583  12.338  0.9728 -0.1436 -0.5133
 4136TIP3    H233900   3.232   3.523  12.323  0.6592  0.2764  0.5476
 4137TIP3   OH233901   5.447   5.187  11.635 -0.1774  0.3762  0.6585
 4137TIP3    H133902   5.495   5.259  11.593 -0.9057  0.8639  0.6442
 4137TIP3    H233903   5.376   5.168  11.573 -0.1441 -0.1736  0.7921
 4138TIP3   OH233904   5.162   5.992   0.063 -0.0081 -0.0149  0.4122
 4138TIP3    H133905   5.153   6.045  -0.017  0.7949 -0.7743 -0.2050
 4138TIP3    H233906   5.073   5.968   0.086 -0.3715  1.4063  0.5753
 4139TIP3   OH233907   3.082   1.460  16.621  0.2695  0.1916 -0.5488
 4139TIP3    H133908   3.071   1.365  16.621  1.3755  0.0281  0.8203
 4139TIP3    H233909   3.127   1.478  16.703  1.7701  1.6993 -1.6525
 4140TIP3   OH233910   0.785   4.000   3.341  0.1637  0.1228 -0.2683
 4140TIP3    H133911   0.801   4.075   3.283  0.7515  0.4720  0.3326
 4140TIP3    H233912   0.690   3.992   3.344  0.0268  1.7958  0.8517
 4141TIP3   OH233913   6.265   2.001  12.123 -0.5058  0.1600 -0.2164
 4141TIP3    H133914   6.335   1.942  12.098  0.5101  1.3328 -0.2372
 4141TIP3    H233915   6.297   2.088  12.100 -1.7975  0.7625  0.1535
 4142TIP3   OH233916   4.728   0.264  14.020 -0.0733 -0.3154  0.0131
 4142TIP3    H133917   4.723   0.180  14.066  0.3665  0.0425  0.7403
 4142TIP3    H233918   4.710   0.329  14.087  0.2460  0.2050 -0.3976
 4143TIP3   OH233919   0.555   2.814   4.448 -1.0864  1.2643 -0.1716
 4143TIP3    H133920   0.493   2.747   4.420  2.3272 -3.1236  1.5002
 4143TIP3    H233921   0.637   2.791   4.405  0.8570  2.9336  2.3248
 4144TIP3   OH233922   5.484   6.827   0.724 -0.8406 -0.5470 -0.2195
 4144TIP3    H133923   5.419   6.862   0.663 -0.3401 -0.1452 -0.5354
 4144TIP3    H233924   5.453   6.740   0.746 -2.7716  0.4807  1.5046
 4145TIP3   OH233925   1.402   3.906   0.777 -0.0454  0.1361  0.0035
 4145TIP3    H133926   1.346   3.933   0.850  1.1155 -0.4885  1.1680
 4145TIP3    H233927   1.348   3.845   0.727 -0.5770 -0.0848  0.8221
 4146TIP3   OH233928   5.647   0.489   2.106  0.2698 -0.1723 -0.2302
 4146TIP3    H133929   5.568   0.505   2.157  0.4620 -1.6300  0.5790
 4146TIP3    H233930   5.717   0.533   2.154  0.3714 -1.1486  0.5492
 4147TIP3   OH233931   1.310   0.826  15.357  0.0883 -0.1798 -0.6798
 4147TIP3    H133932   1.321   0.732  15.373  1.4200 -0.1826 -1.4539
 4147TIP3    H233933   1.353   0.841  15.273  1.1114  1.3481  0.0749
 4148TIP3   OH233934   2.698   5.401   5.192  0.1437  0.1471  0.8207
 4148TIP3    H133935   2.742   5.483   5.215  0.4020  0.0249  0.7695
 4148TIP3    H233936   2.627   5.394   5.256 -0.2345  0.6944  0.4720
 4149TIP3   OH233937   0.466   2.866   3.019 -0.1833  0.1574 -0.0226
 4149TIP3    H133938   0.527   2.792   3.031 -0.2693 -0.0229 -0.6653
 4149TIP3    H233939   0.522   2.943   3.018  0.1895 -0.0945 -1.7683
 4150TIP3   OH233940   3.060   2.063  15.629 -0.2789 -0.1463  0.5454
 4150TIP3    H133941   3.146   2.025  15.612 -0.7205 -0.0645 -2.4002
 4150TIP3    H233942   3.006   1.989  15.655 -0.2260 -0.9704 -1.5135
 4151TIP3   OH233943   3.192   5.581  11.932  0.1755  0.2413 -0.0593
 4151TIP3    H133944   3.156   5.660  11.891  0.0796  0.3329  0.2007
 4151TIP3    H233945   3.286   5.587  11.916 -0.0904 -0.9161 -2.3421
 4152TIP3   OH233946   5.859   1.068   0.446  0.1915  0.3314 -0.1409
 4152TIP3    H133947   5.942   1.117   0.451 -0.0775  0.9543 -1.3870
 4152TIP3    H233948   5.860   1.029   0.359  0.5567 -2.2687  0.9323
 4153TIP3   OH233949   3.705   0.248  12.815  0.0741  0.1835  0.7264
 4153TIP3    H133950   3.785   0.298  12.799  0.9713 -0.5940  2.4264
 4153TIP3    H233951   3.701   0.240  12.910 -0.3926 -2.3253  0.5600
 4154TIP3   OH233952   2.462   2.756   0.188 -0.6194 -0.0865 -0.0693
 4154TIP3    H133953   2.430   2.719   0.271 -0.3616 -0.9857 -0.3560
 4154TIP3    H233954   2.455   2.684   0.126  0.8975  0.0219 -0.4068
 4155TIP3   OH233955   0.800   6.488   4.235 -0.2732  0.1011 -0.2106
 4155TIP3    H133956   0.734   6.537   4.285  0.0500 -0.4537  0.7911
 4155TIP3    H233957   0.871   6.550   4.222 -1.1281  0.8525 -1.6911
 4156TIP3   OH233958   3.843   1.333  10.877 -0.0790 -0.3725  0.2478
 4156TIP3    H133959   3.799   1.414  10.905 -0.4184 -1.3975  3.0210
 4156TIP3    H233960   3.787   1.263  10.909  0.4664 -1.7443 -1.6655
 4157TIP3   OH233961   4.243   6.254  12.568  0.4438  0.1871 -0.2951
 4157TIP3    H133962   4.308   6.313  12.530  0.4711 -0.2240 -0.8977
 4157TIP3    H233963   4.231   6.186  12.501 -0.3747  0.0956 -0.0547
 4158TIP3   OH233964   2.641   2.794  11.283 -0.2449  0.2182  0.0504
 4158TIP3    H133965   2.625   2.786  11.189 -0.1908  0.9069 -0.0185
 4158TIP3    H233966   2.573   2.738  11.323 -0.9706  0.7851 -0.3580
 4159TIP3   OH233967   6.826   1.645   2.837 -0.1994 -0.0153  0.2102
 4159TIP3    H133968   6.780   1.719   2.797 -1.8059 -1.2272 -0.2990
 4159TIP3    H233969   6.890   1.686   2.895  1.4807  1.8326 -2.6841
 4160TIP3   OH233970   2.096   6.405   2.650  0.4318 -0.3544  0.2626
 4160TIP3    H133971   2.041   6.457   2.708  1.9644  0.7753  0.7650
 4160TIP3    H233972   2.066   6.427   2.562  1.1496  1.5714  0.4494
 4161TIP3   OH233973   4.673   2.618  13.252  0.0457 -0.6158  0.3399
 4161TIP3    H133974   4.710   2.681  13.191  0.0857 -1.3853 -0.4586
 4161TIP3    H233975   4.721   2.633  13.334  0.5881 -0.1286 -0.0566
 4162TIP3   OH233976   3.827   0.950   3.444  0.3567  1.0774 -0.3702
 4162TIP3    H133977   3.919   0.966   3.426  0.2316  1.2516 -0.8510
 4162TIP3    H233978   3.816   0.855   3.430  0.9579  0.6090  1.8879
 4163TIP3   OH233979   4.671   6.446   1.798  0.1721  0.8164  0.1574
 4163TIP3    H133980   4.638   6.416   1.883  1.7097  0.6229  0.7134
 4163TIP3    H233981   4.674   6.367   1.744  0.5288  0.6801  0.3758
 4164TIP3   OH233982   6.643   5.429  13.338 -0.3267 -0.5783 -0.2914
 4164TIP3    H133983   6.672   5.399  13.424  0.4035 -0.2402 -0.4123
 4164TIP3    H233984   6.722   5.463  13.296 -0.8367  0.0853 -0.7495
 4165TIP3   OH233985   3.277   1.224  11.790  0.4926 -0.1423 -0.4831
 4165TIP3    H133986   3.238   1.291  11.846  0.9389 -0.0713 -0.2539
 4165TIP3    H233987   3.308   1.157  11.851  0.3413 -0.4062 -0.6927
 4166TIP3   OH233988   2.230   6.514  11.493  0.0229 -0.4913 -0.0287
 4166TIP3    H133989   2.244   6.425  11.526  0.6641  0.0037  1.1094
 4166TIP3    H233990   2.209   6.502  11.400 -0.1409 -1.8378  0.1587
 4167TIP3   OH233991   4.145   1.908   0.246 -0.0784 -0.1502  0.6047
 4167TIP3    H133992   4.210   1.978   0.236  0.4263 -0.5360  1.1322
 4167TIP3    H233993   4.072   1.951   0.292  0.3849 -0.0499  1.2689
 4168TIP3   OH233994   3.362   5.937  10.653 -0.2652 -0.3414  0.0768
 4168TIP3    H133995   3.454   5.956  10.672 -0.0759 -1.7577  0.7054
 4168TIP3    H233996   3.357   5.841  10.654 -1.3486 -0.3524 -1.9082
 4169TIP3   OH233997   4.362   4.582   3.416 -0.0357 -0.8792 -0.2952
 4169TIP3    H133998   4.398   4.527   3.346  1.3726 -0.6235  0.1812
 4169TIP3    H233999   4.315   4.522   3.473  1.3794 -1.6021  0.1507
 4170TIP3   OH234000   3.586   2.708  15.076 -0.6047  0.0573 -0.1673
 4170TIP3    H134001   3.633   2.692  14.994  0.7623 -0.3769  0.6665
 4170TIP3    H234002   3.647   2.680  15.144 -1.8423  0.1087  0.9949
 4171TIP3   OH234003   0.464   5.730   5.326 -0.5518  0.5046 -0.6197
 4171TIP3    H134004   0.402   5.763   5.262 -1.0700 -0.3663 -0.5877
 4171TIP3    H234005   0.419   5.656   5.367 -0.1901  0.9815  0.6809
 4172TIP3   OH234006   2.936   4.762  14.238  0.8189  0.5326  0.1423
 4172TIP3    H134007   2.875   4.793  14.304 -0.8757 -0.4239 -0.9107
 4172TIP3    H234008   2.884   4.706  14.181  2.6256 -0.1044 -0.9759
 4173TIP3   OH234009   3.608   5.158  17.141 -0.2646  0.1657  0.1431
 4173TIP3    H134010   3.654   5.135  17.060 -0.9295  0.5408 -0.3572
 4173TIP3    H234011   3.573   5.246  17.125 -0.1895  0.3512  0.9388
 4174TIP3   OH234012   0.175   4.610  16.297  0.7970 -0.1399 -0.1861
 4174TIP3    H134013   0.136   4.607  16.210 -0.7489 -1.1271  0.4962
 4174TIP3    H234014   0.111   4.656  16.351  1.4309 -0.1336  0.5876
 4175TIP3   OH234015   5.849   0.362  15.421 -0.5759  0.0195  0.1392
 4175TIP3    H134016   5.786   0.401  15.360 -0.5543 -1.1703 -0.6846
 4175TIP3    H234017   5.794   0.318  15.487 -0.6005  0.6039  0.5114
 4176TIP3   OH234018   0.556   6.350   2.278  0.3315 -0.0724 -0.1498
 4176TIP3    H134019   0.518   6.295   2.348  0.0838 -0.0966 -0.2999
 4176TIP3    H234020   0.638   6.383   2.315 -1.3243  2.6376  1.4725
 4177TIP3   OH234021   5.879   3.322   3.766 -0.2553  0.6327  0.0816
 4177TIP3    H134022   5.927   3.310   3.848  0.2014  2.0412  0.0554
 4177TIP3    H234023   5.787   3.313   3.790 -0.0666 -0.5206  0.4369
 4178TIP3   OH234024   6.534   3.415  14.750 -0.3189 -0.5215  0.7787
 4178TIP3    H134025   6.491   3.448  14.829  0.3053  2.3131  0.0376
 4178TIP3    H234026   6.628   3.419  14.770 -0.1637  0.0983 -0.0418
 4179TIP3   OH234027   4.501   0.452  15.805  0.9966 -0.4980  0.6823
 4179TIP3    H134028   4.472   0.534  15.846  1.3626 -0.1799  0.3168
 4179TIP3    H234029   4.442   0.440  15.731  0.0852 -1.2781  1.5099
 4180TIP3   OH234030   5.123   6.580   2.335 -0.5967 -0.5618  0.3930
 4180TIP3    H134031   5.047   6.587   2.392 -0.0485  0.5237  1.0265
 4180TIP3    H234032   5.177   6.512   2.375 -0.7030 -0.5342  0.5854
 4181TIP3   OH234033   5.498   1.068   5.762 -0.7993 -0.0075  0.2318
 4181TIP3    H134034   5.491   1.116   5.844 -0.2592  1.6094 -0.6227
 4181TIP3    H234035   5.586   1.029   5.764 -0.6008  0.4334  0.2304
 4182TIP3   OH234036   5.259   3.299   5.491  0.2093  0.0778  0.1920
 4182TIP3    H134037   5.333   3.262   5.538 -0.2962 -0.9576  0.2192
 4182TIP3    H234038   5.296   3.368   5.436  1.3171 -0.9441 -0.3841
 4183TIP3   OH234039   0.111   0.004  13.912  0.0110 -0.1770 -0.0761
 4183TIP3    H134040   0.131   0.038  13.999 -0.9423 -1.5186  0.7044
 4183TIP3    H234041   0.197  -0.005  13.870  0.6331 -0.9472  1.2873
 4184TIP3   OH234042   1.687   3.145   1.838 -0.4906 -0.1491 -0.1226
 4184TIP3    H134043   1.689   3.166   1.745 -0.7143 -2.7080 -0.7879
 4184TIP3    H234044   1.759   3.084   1.850  0.4464  1.2286  1.7488
 4185TIP3   OH234045   5.887   4.026   5.324  0.4100  0.2590 -0.4069
 4185TIP3    H134046   5.960   3.968   5.301 -1.9214 -2.0284 -2.7328
 4185TIP3    H234047   5.838   3.976   5.390 -0.0272  0.9620 -0.1943
 4186TIP3   OH234048   2.414   3.690   0.387 -0.3613 -0.4586  0.1495
 4186TIP3    H134049   2.465   3.728   0.458  1.1225 -0.7585 -0.7075
 4186TIP3    H234050   2.324   3.716   0.405  0.1132  0.2534  1.6126
 4187TIP3   OH234051   3.687   1.155  11.211  0.0151 -0.1955  0.0397
 4187TIP3    H134052   3.664   1.094  11.281 -0.7129  1.1597  1.0243
 4187TIP3    H234053   3.603   1.173  11.167  0.5655 -1.5895 -1.6904
 4188TIP3   OH234054   0.628   0.486  11.667  0.1318 -0.0698  0.1755
 4188TIP3    H134055   0.559   0.502  11.731  0.7669  1.1147  0.5894
 4188TIP3    H234056   0.694   0.553  11.685  0.5569 -0.0130 -1.3959
 4189TIP3   OH234057   5.581   4.862  16.463  0.3767 -0.2003  0.2001
 4189TIP3    H134058   5.606   4.877  16.372 -0.1270 -0.8321 -0.0491
 4189TIP3    H234059   5.534   4.778  16.462 -1.5893  0.8143  0.6577
 4190TIP3   OH234060   0.933   0.568  16.053 -0.4903 -0.1267  0.0686
 4190TIP3    H134061   0.939   0.592  16.146 -0.8479  1.7727 -0.3578
 4190TIP3    H234062   1.023   0.544  16.029 -0.1739  0.4219  0.6561
 4191TIP3   OH234063   1.982   6.569  15.430 -0.7061 -0.1571  0.6293
 4191TIP3    H134064   1.973   6.575  15.526 -0.3452 -0.1645  0.6643
 4191TIP3    H234065   1.892   6.562  15.398 -0.8644  0.3808  0.9341
 4192TIP3   OH234066   1.047   0.890   6.301 -0.5815 -0.0284 -0.0141
 4192TIP3    H134067   1.065   0.916   6.392  1.2401  0.6727 -0.5386
 4192TIP3    H234068   1.034   0.795   6.306 -2.3260  0.2071  1.2001
 4193TIP3   OH234069   2.231   0.461   5.462  0.2612  0.5559  0.5996
 4193TIP3    H134070   2.174   0.474   5.387 -0.3910 -2.6919  0.4013
 4193TIP3    H234071   2.172   0.445   5.535  0.8327 -1.7183  0.6245
 4194TIP3   OH234072   0.151   0.036   0.298 -0.0688 -0.1174 -0.0843
 4194TIP3    H134073   0.167   0.051   0.205 -0.3037 -1.6788 -0.4072
 4194TIP3    H234074   0.189   0.112   0.341  2.6346 -0.6725 -1.2520
 4195TIP3   OH234075   4.217   0.842   1.430 -0.5204 -0.4525 -0.6454
 4195TIP3    H134076   4.197   0.806   1.343 -1.4671 -0.8942 -0.2661
 4195TIP3    H234077   4.188   0.933   1.425  2.1986  0.4468 -1.7189
 4196TIP3   OH234078   0.671   6.729   0.665 -0.6083 -0.3083 -0.3055
 4196TIP3    H134079   0.753   6.721   0.616 -0.3385  0.5675 -0.0123
 4196TIP3    H234080   0.619   6.791   0.615 -1.0649 -0.7956 -0.4423
 4197TIP3   OH234081   5.482   2.129   5.601 -0.6618  0.3377  0.4325
 4197TIP3    H134082   5.522   2.207   5.564  0.2626 -0.9455 -1.4485
 4197TIP3    H234083   5.439   2.086   5.527 -0.0015 -1.6012  1.1085
 4198TIP3   OH234084   1.859   0.439  15.911 -0.7152  0.3848  0.1493
 4198TIP3    H134085   1.800   0.435  15.987 -1.7093 -1.6530 -0.6668
 4198TIP3    H234086   1.805   0.475  15.841 -0.7681 -0.6414 -0.3619
 4199TIP3   OH234087   4.802   6.514   6.564 -0.0659  1.0996  0.1160
 4199TIP3    H134088   4.736   6.445   6.566 -0.1494  1.1686  2.6636
 4199TIP3    H234089   4.751   6.595   6.560 -0.0640  1.1061  0.2402
 4200TIP3   OH234090   1.103   3.107  15.164  0.6903  0.6442  0.1710
 4200TIP3    H134091   1.059   3.183  15.201 -0.0311  1.1055 -1.5372
 4200TIP3    H234092   1.138   3.138  15.080  2.4620 -0.2807  0.5121
 4201TIP3   OH234093   3.525   1.932  13.506  0.1524 -0.1007  0.0846
 4201TIP3    H134094   3.510   1.847  13.464  1.1159 -0.2741  0.0780
 4201TIP3    H234095   3.602   1.919  13.562  0.6443  0.9001 -0.3297
 4202TIP3   OH234096   6.227   6.651   5.325  0.0251  0.1258 -0.0815
 4202TIP3    H134097   6.304   6.606   5.291 -1.1546 -1.6758 -0.5432
 4202TIP3    H234098   6.239   6.743   5.299  1.8081 -0.1797 -0.4674
 4203TIP3   OH234099   2.030   4.979  15.826 -1.1334  0.1817  0.1982
 4203TIP3    H134100   2.020   4.939  15.913  2.3700 -0.7759  0.3362
 4203TIP3    H234101   1.989   5.065  15.834 -0.7363  0.2068  2.8993
 4204TIP3   OH234102   3.153   4.262   1.632  0.2999 -0.2597  0.0583
 4204TIP3    H134103   3.200   4.327   1.683  1.2802 -1.0410  0.1758
 4204TIP3    H234104   3.145   4.187   1.690 -0.5695 -0.3680 -0.1748
 4205TIP3   OH234105   1.746   2.159   0.558  0.5063 -0.2542  0.0551
 4205TIP3    H134106   1.826   2.106   0.565 -1.0105 -2.8621 -0.9057
 4205TIP3    H234107   1.742   2.184   0.465 -0.5539 -1.5119 -0.2647
 4206TIP3   OH234108   3.231   1.782   1.735 -0.1501 -0.5453 -0.1378
 4206TIP3    H134109   3.162   1.831   1.779 -1.0745 -0.2000 -1.8831
 4206TIP3    H234110   3.256   1.715   1.798 -0.0919  1.0269  1.6270
 4207TIP3   OH234111   2.088   0.015   5.460 -0.4000 -0.1307  0.0457
 4207TIP3    H134112   2.048   0.006   5.374  0.5717  0.5743 -0.4973
 4207TIP3    H234113   2.181   0.029   5.442 -0.1841  0.0140  1.2105
 4208TIP3   OH234114   5.123   4.094  15.938 -0.3480 -0.0250 -0.7922
 4208TIP3    H134115   5.129   4.035  15.863 -0.3053 -1.4393  0.2706
 4208TIP3    H234116   5.172   4.050  16.008  0.0189  1.4695 -0.0520
 4209TIP3   OH234117   4.042   2.919   5.246  0.4686  0.4733  0.3125
 4209TIP3    H134118   4.035   2.857   5.173  1.3305  3.0567 -2.1816
 4209TIP3    H234119   3.956   2.960   5.251  0.6438  0.8583  0.1968
 4210TIP3   OH234120   5.135   3.986  14.329 -0.0618 -0.1227 -0.0981
 4210TIP3    H134121   5.066   4.044  14.360 -0.4278 -0.4809 -0.2334
 4210TIP3    H234122   5.197   3.981  14.402 -0.0659  0.3712 -0.0571
 4211TIP3   OH234123   4.250   5.291  15.770 -0.2820  0.6047 -0.9704
 4211TIP3    H134124   4.267   5.345  15.847 -1.3670 -2.5375  1.7319
 4211TIP3    H234125   4.313   5.322  15.705  2.0774  2.2313  1.8023
 4212TIP3   OH234126   6.468   2.759  17.070  0.4100  0.8585 -0.2332
 4212TIP3    H134127   6.477   2.699  16.996 -0.7418  0.2588  0.0720
 4212TIP3    H234128   6.534   2.827  17.056  1.4220 -0.2288 -0.8398
 4213TIP3   OH234129   1.347   4.316   3.805  0.8619  0.6519 -0.3590
 4213TIP3    H134130   1.277   4.349   3.862  0.1862 -0.7463 -0.3373
 4213TIP3    H234131   1.317   4.337   3.716 -0.0873 -0.7996 -0.4077
 4214TIP3   OH234132   4.265   6.369  14.823 -0.1343  0.4240  0.1750
 4214TIP3    H134133   4.325   6.362  14.897  0.8583  1.4481 -0.5060
 4214TIP3    H234134   4.233   6.280  14.809  0.7483 -0.0274  0.9453
 4215TIP3   OH234135   2.290   0.368   1.345 -0.1218 -0.1611  0.0103
 4215TIP3    H134136   2.372   0.337   1.383 -0.1481  0.4921  0.6221
 4215TIP3    H234137   2.285   0.459   1.372 -1.2065 -0.2829  0.2363
 4216TIP3   OH234138   1.009   3.671  14.405 -0.0375  0.3376  0.5999
 4216TIP3    H134139   1.050   3.719  14.477  1.2525  1.2031 -0.6695
 4216TIP3    H234140   0.997   3.736  14.336  1.5034 -1.0670 -1.0864
 4217TIP3   OH234141   6.018   1.497  16.772 -0.4832 -0.1993 -0.3392
 4217TIP3    H134142   5.983   1.571  16.722 -0.8049  0.7025  1.1479
 4217TIP3    H234143   6.064   1.539  16.845 -0.8024 -1.4864  0.6162
 4218TIP3   OH234144   2.964   4.049  11.779 -0.2188 -0.3193 -0.1240
 4218TIP3    H134145   3.014   4.113  11.729  1.2185 -1.0981  0.2470
 4218TIP3    H234146   2.889   4.028  11.724 -0.0426  0.7335 -0.7905
 4219TIP3   OH234147   4.747   4.782   2.886  0.1709  0.2533  0.0343
 4219TIP3    H134148   4.702   4.793   2.802 -0.7483 -0.1887  0.4542
 4219TIP3    H234149   4.830   4.740   2.863 -0.0400  0.2020 -0.6682
 4220TIP3   OH234150   3.250   4.978  15.943 -0.3145  0.5614  0.2247
 4220TIP3    H134151   3.334   4.981  15.989 -0.3786 -0.6393  0.4535
 4220TIP3    H234152   3.199   4.912  15.991 -1.6310  1.7011  0.4793
 4221TIP3   OH234153   1.982   3.922  11.524  0.7739  0.0489 -0.4337
 4221TIP3    H134154   2.011   4.013  11.531  3.2042 -0.7555  0.9682
 4221TIP3    H234155   1.918   3.911  11.594 -0.1307  0.8505 -1.1101
 4222TIP3   OH234156   3.382   6.286  16.987  0.6225 -0.1215 -0.3406
 4222TIP3    H134157   3.396   6.245  17.072 -4.4715  0.6684  1.2193
 4222TIP3    H234158   3.406   6.378  17.000 -0.0116 -0.0314  0.2114
 4223TIP3   OH234159   0.441   1.562  15.210  0.1041 -0.3984  0.3714
 4223TIP3    H134160   0.479   1.547  15.297  0.1424  0.3590  0.4868
 4223TIP3    H234161   0.366   1.620  15.227 -0.5256 -1.0924  0.0283
 4224TIP3   OH234162   3.357   4.766  13.385 -0.5843  0.2247  0.2239
 4224TIP3    H134163   3.428   4.702  13.372 -2.4402 -2.2357  1.3123
 4224TIP3    H234164   3.374   4.803  13.471 -0.2232  0.1640  0.1812
 4225TIP3   OH234165   5.920   1.227   1.641  0.0940  0.1309  0.3326
 4225TIP3    H134166   5.847   1.218   1.702 -0.6950 -3.4850 -0.8956
 4225TIP3    H234167   5.879   1.226   1.554  1.4578  0.3930 -0.3409
 4226TIP3   OH234168   3.318   6.809   5.135  0.3397 -0.7381  0.1141
 4226TIP3    H134169   3.305   6.887   5.190  0.5913  0.6453 -1.6886
 4226TIP3    H234170   3.394   6.765   5.174 -0.6485 -0.8705  1.9887
 4227TIP3   OH234171   3.242   0.286  11.292 -0.1256 -0.0394 -0.1988
 4227TIP3    H134172   3.167   0.321  11.341  0.5705 -1.0931  1.7157
 4227TIP3    H234173   3.208   0.208  11.249 -0.5744  0.5065 -0.8482
 4228TIP3   OH234174   4.133   2.817   4.343 -0.1902 -0.0773 -0.0108
 4228TIP3    H134175   4.116   2.909   4.323  2.2897  0.9114  1.9794
 4228TIP3    H234176   4.077   2.799   4.419 -1.3679 -0.5592 -0.9515
 4229TIP3   OH234177   0.630   5.035   4.810  0.0790  0.2471  0.1799
 4229TIP3    H134178   0.560   4.970   4.806  0.6272 -0.4506  1.3899
 4229TIP3    H234179   0.603   5.096   4.878  0.8267 -0.2815  0.9771
 4230TIP3   OH234180   3.983   3.682   6.263 -0.3155  0.0822 -0.8921
 4230TIP3    H134181   4.079   3.685   6.256 -0.3053 -0.6514 -1.1556
 4230TIP3    H234182   3.961   3.590   6.251 -0.9091 -0.0960  1.0653
 4231TIP3   OH234183   0.890   4.390   4.913 -0.3192  0.9918 -0.1715
 4231TIP3    H134184   0.835   4.325   4.956 -1.2990  1.2579 -0.9871
 4231TIP3    H234185   0.886   4.367   4.820  1.0994  0.9147 -0.2430
 4232TIP3   OH234186   2.794   0.057  11.201 -0.0919  0.1249  0.0048
 4232TIP3    H134187   2.776   0.005  11.279  0.2695  0.2998  0.2053
 4232TIP3    H234188   2.763   0.145  11.224  1.7720  0.6391  0.6774
 4233TIP3   OH234189   2.408   1.332   2.465 -0.1811  0.7865 -0.0114
 4233TIP3    H134190   2.410   1.427   2.453  0.3782  0.7044 -0.6200
 4233TIP3    H234191   2.485   1.300   2.417 -0.6545 -0.0210 -0.2536
 4234TIP3   OH234192   1.651   5.110  15.712  0.4717 -0.2836  0.2755
 4234TIP3    H134193   1.645   5.185  15.770 -2.2055 -0.3619  0.2244
 4234TIP3    H234194   1.662   5.148  15.625 -0.2965  0.0615  0.3186
 4235TIP3   OH234195   6.164   2.699   1.675  0.0719 -0.2004 -0.4060
 4235TIP3    H134196   6.136   2.735   1.759 -0.1907  0.3397 -0.7172
 4235TIP3    H234197   6.092   2.721   1.615  0.9691  0.8638 -1.1289
 4236TIP3   OH234198   1.642   5.350  10.869  0.7906 -0.2132 -0.4898
 4236TIP3    H134199   1.697   5.272  10.876  1.7469 -0.1510 -4.7729
 4236TIP3    H234200   1.561   5.319  10.829 -0.3096  0.5260  1.0590
 4237TIP3   OH234201   5.691   2.693   5.777  0.1423 -0.2478 -0.3342
 4237TIP3    H134202   5.606   2.735   5.777 -0.5563 -1.6016 -0.0578
 4237TIP3    H234203   5.700   2.656   5.865  1.9941  1.7171  0.3906
 4238TIP3   OH234204   0.888   2.576  12.904  0.3880 -0.1976 -0.2626
 4238TIP3    H134205   0.880   2.571  12.999 -2.6041 -0.0787 -0.3996
 4238TIP3    H234206   0.838   2.501  12.872  0.5643  0.2936 -1.7459
 4239TIP3   OH234207   4.466   1.876   3.908  0.0926 -0.3592  0.2229
 4239TIP3    H134208   4.557   1.896   3.885 -0.0157 -0.1359 -0.0142
 4239TIP3    H234209   4.473   1.803   3.970  0.5949  1.7175  2.7627
 4240TIP3   OH234210   3.443   4.182   1.596 -0.0812 -0.2789  0.2511
 4240TIP3    H134211   3.398   4.107   1.634  1.2518 -0.3437  1.8276
 4240TIP3    H234212   3.527   4.146   1.566  0.3012  0.4414  0.4298
 4241TIP3   OH234213   1.438   3.471   5.238 -0.5334  0.5631 -0.2476
 4241TIP3    H134214   1.510   3.437   5.291 -0.6255 -0.5557 -0.8054
 4241TIP3    H234215   1.359   3.444   5.285 -0.6176 -0.5395 -0.9819
 4242TIP3   OH234216   5.373   0.790  14.031 -1.0877 -0.3673  0.0237
 4242TIP3    H134217   5.290   0.822  13.994 -1.0658 -0.2999  0.0332
 4242TIP3    H234218   5.440   0.846  13.992 -0.9851 -0.8403 -0.4805
 4243TIP3   OH234219   5.570   2.640  12.990 -0.1465 -0.0707 -0.0316
 4243TIP3    H134220   5.643   2.699  12.972  0.7604 -1.3320 -0.6318
 4243TIP3    H234221   5.493   2.688  12.958  0.4950  0.9831 -0.0491
 4244TIP3   OH234222   0.036   5.509   1.698 -0.1307  0.3360  0.3491
 4244TIP3    H134223  -0.040   5.459   1.728 -0.3790  0.9198  0.6977
 4244TIP3    H234224   0.090   5.520   1.777 -0.2829  0.9822  0.3676
 4245TIP3   OH234225   0.447   4.499   0.261  0.3475 -0.3172  0.7999
 4245TIP3    H134226   0.531   4.453   0.266  1.1429  0.7449 -1.4730
 4245TIP3    H234227   0.459   4.576   0.317  0.1075 -1.2135  2.1300
 4246TIP3   OH234228   2.629   1.508   3.844  0.2672  0.1511 -0.0970
 4246TIP3    H134229   2.662   1.421   3.867  0.6330  0.3806  0.2462
 4246TIP3    H234230   2.693   1.569   3.880  0.1002  0.5625 -0.4849
 4247TIP3   OH234231   1.506   0.902   1.131 -0.3929 -0.4636  0.6981
 4247TIP3    H134232   1.427   0.878   1.083 -1.4339 -0.8464  2.5072
 4247TIP3    H234233   1.572   0.837   1.103 -0.6218  0.0039 -0.9910
 4248TIP3   OH234234   3.117   4.473   2.517 -0.0878 -0.0297  0.5911
 4248TIP3    H134235   3.138   4.421   2.594 -0.7086 -2.1640 -0.6069
 4248TIP3    H234236   3.041   4.526   2.544 -1.4968 -2.0963  0.9701
 4249TIP3   OH234237   4.920   3.759  15.882 -0.3235 -0.3594 -0.5377
 4249TIP3    H134238   4.888   3.800  15.963  0.3383  1.6335 -1.2113
 4249TIP3    H234239   4.876   3.674  15.879 -2.1234  0.4517  0.7633
 4250TIP3   OH234240   3.397   2.499  15.121 -0.4544 -0.3541  0.6566
 4250TIP3    H134241   3.417   2.450  15.041  0.8804  0.9321  0.1646
 4250TIP3    H234242   3.469   2.562  15.130 -1.8866  1.2626  1.4533
 4251TIP3   OH234243   4.737   1.874  16.567  0.6517  0.1190 -0.4346
 4251TIP3    H134244   4.703   1.866  16.478 -0.2038 -1.2080 -0.0050
 4251TIP3    H234245   4.815   1.819  16.567  2.3517  2.3568 -1.1244
 4252TIP3   OH234246   2.361   0.456   1.778 -0.1900  0.1838 -0.2371
 4252TIP3    H134247   2.287   0.499   1.821  0.2106  0.2594  0.3922
 4252TIP3    H234248   2.323   0.378   1.738 -0.6461  0.3326 -0.1057
 4253TIP3   OH234249   6.427   2.130  16.212 -0.1440  0.1358  0.3910
 4253TIP3    H134250   6.402   2.209  16.165 -0.0261  1.3199  2.2150
 4253TIP3    H234251   6.522   2.131  16.214 -0.1429  1.2200  2.3430
 4254TIP3   OH234252   5.480   5.628  13.288  0.3501  0.4073  0.3431
 4254TIP3    H134253   5.420   5.625  13.363 -0.0682  0.7851  0.0276
 4254TIP3    H234254   5.565   5.647  13.326 -0.0441  1.6903  0.6302
 4255TIP3   OH234255   0.504   1.562  10.807  0.2548  0.8597 -0.2363
 4255TIP3    H134256   0.506   1.535  10.716 -3.7210  1.3685 -0.6673
 4255TIP3    H234257   0.563   1.501  10.852  1.8452  0.2123 -2.9812
 4256TIP3   OH234258   3.216   1.191  16.700  0.2695  0.1219 -0.1424
 4256TIP3    H134259   3.217   1.172  16.794  0.0950 -1.4009 -0.4187
 4256TIP3    H234260   3.304   1.221  16.680  0.7218 -0.8748  0.2747
 4257TIP3   OH234261   3.113   5.773  11.576 -0.4087 -0.0431 -0.3019
 4257TIP3    H134262   3.076   5.692  11.608  0.7278 -0.6997 -0.5882
 4257TIP3    H234263   3.190   5.746  11.526 -0.6671  1.1210 -1.3977
 4258TIP3   OH234264   6.686   4.311   2.869  0.0192  0.2035 -0.2705
 4258TIP3    H134265   6.656   4.229   2.830 -0.8412  0.4529 -0.1424
 4258TIP3    H234266   6.778   4.317   2.843  0.5745 -1.6028  1.0502
 4259TIP3   OH234267   3.672   3.037  14.220 -0.0011 -0.2987  0.3319
 4259TIP3    H134268   3.606   2.975  14.251  1.3923 -3.3026 -2.1005
 4259TIP3    H234269   3.736   2.982  14.175  1.7172  2.9261 -1.5032
 4260TIP3   OH234270   2.740   4.746  16.070  0.2507  0.2097  0.2516
 4260TIP3    H134271   2.708   4.664  16.032  0.4717  0.6259 -0.8692
 4260TIP3    H234272   2.800   4.781  16.005  2.3527 -0.0965  1.8949
 4261TIP3   OH234273   5.387   2.037  15.470 -0.0225  0.1829 -0.7445
 4261TIP3    H134274   5.452   2.074  15.530 -0.5468 -1.2756  0.8266
 4261TIP3    H234275   5.424   1.952  15.445 -1.1253 -0.5248 -0.0817
 4262TIP3   OH234276   0.143   5.067  14.937  0.9741  0.0590 -0.3604
 4262TIP3    H134277   0.147   5.044  15.030  0.7537  1.5535  0.0388
 4262TIP3    H234278   0.113   5.158  14.935 -0.2562 -0.3259 -1.9496
 4263TIP3   OH234279   6.488   2.293  14.855 -0.1463 -0.0805 -0.2450
 4263TIP3    H134280   6.487   2.342  14.772 -0.5886 -1.2474 -0.9601
 4263TIP3    H234281   6.448   2.352  14.918  3.0702  2.1107 -0.0479
 4264TIP3   OH234282   4.395   2.577  14.754  0.2518  0.0485  0.2852
 4264TIP3    H134283   4.429   2.667  14.751 -0.2193  0.2619  1.1296
 4264TIP3    H234284   4.452   2.529  14.694  0.7119  0.8413  0.0617
 4265TIP3   OH234285   1.409   3.148   1.848 -0.9022 -0.2625  0.2926
 4265TIP3    H134286   1.500   3.119   1.852 -0.8045  0.0198  0.1314
 4265TIP3    H234287   1.382   3.155   1.940 -0.4551  0.6078  0.3713
 4266TIP3   OH234288   4.115   6.360  15.762  0.5426 -0.0401  0.6478
 4266TIP3    H134289   4.166   6.282  15.741  1.1047 -0.0633  1.9633
 4266TIP3    H234290   4.149   6.429  15.705  1.2178 -0.3566  0.6704
 4267TIP3   OH234291   5.273   5.085  11.485 -0.5426 -0.6211 -0.6552
 4267TIP3    H134292   5.281   5.105  11.392  0.4269 -0.0225 -0.4462
 4267TIP3    H234293   5.215   5.153  11.519 -2.1449 -1.7016 -1.0798
 4268TIP3   OH234294   4.964   1.877  16.314 -0.2114 -0.8012  0.2451
 4268TIP3    H134295   4.940   1.952  16.368 -1.2126 -1.7250  1.1414
 4268TIP3    H234296   4.885   1.858  16.263  0.5966 -0.1901 -1.2939
 4269TIP3   OH234297   0.834   0.117   3.844  0.3560  0.3531 -0.2054
 4269TIP3    H134298   0.778   0.107   3.920 -0.1579 -0.3728 -0.6656
 4269TIP3    H234299   0.923   0.100   3.877  0.4547  2.4522  0.7252
 4270TIP3   OH234300   6.416   1.033  10.686 -0.5457  0.0900 -0.1047
 4270TIP3    H134301   6.496   0.980  10.677 -1.2736 -0.7667 -1.9873
 4270TIP3    H234302   6.427   1.078  10.770  0.7582 -1.9695  0.9154
 4271TIP3   OH234303   2.099   5.932  13.677 -0.1901  0.1534 -0.1179
 4271TIP3    H134304   2.011   5.956  13.706 -0.6247 -2.5091  1.0310
 4271TIP3    H234305   2.127   5.864  13.739  1.7917 -0.6522 -1.7788
 4272TIP3   OH234306   3.527   2.909  11.177  0.3619 -0.5351  0.4123
 4272TIP3    H134307   3.598   2.859  11.218  0.7214 -0.0071  0.4357
 4272TIP3    H234308   3.531   2.885  11.085  2.2273  1.3994 -0.0927
 4273TIP3   OH234309   2.554   3.852   5.086 -0.1905  0.1455  0.1571
 4273TIP3    H134310   2.606   3.906   5.027 -0.2620 -0.1887 -0.2233
 4273TIP3    H234311   2.476   3.904   5.104  0.0345  0.4306  0.3112
 4274TIP3   OH234312   5.968   6.127  15.225 -0.2486 -0.5408 -0.4928
 4274TIP3    H134313   6.018   6.045  15.231  0.5569  0.0001  0.4552
 4274TIP3    H234314   5.909   6.124  15.300 -0.1278 -0.1964 -0.3843
 4275TIP3   OH234315   5.470   4.696  17.035 -0.3837 -0.2775 -0.2162
 4275TIP3    H134316   5.442   4.686  17.126  0.4884  0.0791  0.1075
 4275TIP3    H234317   5.557   4.736  17.041  0.2896 -1.5167 -1.1547
 4276TIP3   OH234318   6.604   1.483   3.075 -0.0791 -0.7154 -0.0230
 4276TIP3    H134319   6.659   1.557   3.102 -2.7313  0.6702  2.1668
 4276TIP3    H234320   6.602   1.488   2.980  1.0658  1.0910 -0.0143
 4277TIP3   OH234321   4.068   3.377  15.211  0.0942  0.0139 -0.1038
 4277TIP3    H134322   4.057   3.281  15.209  0.0093  0.0252 -0.1860
 4277TIP3    H234323   4.156   3.390  15.246 -0.3808 -0.0617  1.1829
 4278TIP3   OH234324   0.201   2.438   6.234 -0.0616 -0.0345 -0.2268
 4278TIP3    H134325   0.134   2.445   6.165  0.6633 -0.2961 -0.9714
 4278TIP3    H234326   0.247   2.521   6.231 -0.6073  0.3074  0.5696
 4279TIP3   OH234327   2.700   5.370   2.766  0.2013  0.2649 -0.1085
 4279TIP3    H134328   2.742   5.356   2.681 -1.3699  0.5526 -0.9813
 4279TIP3    H234329   2.760   5.428   2.813  2.2107 -1.6790 -0.0864
 4280TIP3   OH234330   2.511   5.844   6.074 -0.2208 -0.2173  0.0817
 4280TIP3    H134331   2.424   5.825   6.107 -0.0146  0.0631  0.7955
 4280TIP3    H234332   2.504   5.931   6.036 -0.3823 -0.4182 -0.3593
 4281TIP3   OH234333   1.892   2.852   5.163  0.1900  0.2206 -0.3753
 4281TIP3    H134334   1.962   2.842   5.227  0.0458 -0.4294 -0.3135
 4281TIP3    H234335   1.921   2.924   5.106  0.8428  0.0468 -0.2705
 4282TIP3   OH234336   0.755   4.388  12.000 -0.5519 -0.7076 -0.7052
 4282TIP3    H134337   0.757   4.483  11.984  1.2001 -0.4566  0.5986
 4282TIP3    H234338   0.780   4.349  11.917 -0.3029  0.0382 -0.9903
 4283TIP3   OH234339   4.336   6.638  15.086 -0.1972  0.2507 -0.1490
 4283TIP3    H134340   4.380   6.553  15.089  2.6252  1.5592 -1.1271
 4283TIP3    H234341   4.314   6.650  14.993  0.2673  0.9525 -0.1768
 4284TIP3   OH234342   2.294   3.770  13.308 -0.5843 -0.3368 -0.0240
 4284TIP3    H134343   2.332   3.783  13.395  0.0266 -1.2212 -0.1405
 4284TIP3    H234344   2.365   3.728  13.258 -0.6759  0.8396 -1.1659
 4285TIP3   OH234345   1.477   6.495   5.686 -0.2944  0.1013  0.1368
 4285TIP3    H134346   1.467   6.460   5.774 -2.4950  0.1786 -0.0135
 4285TIP3    H234347   1.559   6.457   5.654 -0.0168 -0.8018  1.8056
 4286TIP3   OH234348   4.442   1.809  12.948  0.1199  0.3173  0.1721
 4286TIP3    H134349   4.410   1.777  12.864 -0.0376  1.1619 -0.0972
 4286TIP3    H234350   4.537   1.795  12.944  0.1747  0.8025 -0.3510
 4287TIP3   OH234351   4.869   1.528   6.136 -1.4442 -0.1474 -0.2197
 4287TIP3    H134352   4.846   1.439   6.163 -0.4622 -0.4027 -0.1849
 4287TIP3    H234353   4.851   1.582   6.212 -1.0067 -0.4889  0.1308
 4288TIP3   OH234354   3.338   0.646   1.787 -0.2967  0.0956  0.1143
 4288TIP3    H134355   3.356   0.556   1.816  1.3812  0.1563 -0.6197
 4288TIP3    H234356   3.249   0.643   1.752 -1.2007 -0.6912  2.3263
 4289TIP3   OH234357   6.566   0.155   5.434  0.1648 -0.5466 -0.1470
 4289TIP3    H134358   6.566   0.249   5.453  1.3921 -0.2973 -1.2458
 4289TIP3    H234359   6.627   0.118   5.498 -0.0436 -0.5520  0.0517
 4290TIP3   OH234360   4.184   5.859   0.299 -0.4946  0.1887  0.3640
 4290TIP3    H134361   4.121   5.913   0.347  0.6924  0.4137  1.7574
 4290TIP3    H234362   4.259   5.917   0.285 -0.7018  0.0338 -1.5758
 4291TIP3   OH234363   1.810   2.346   5.488 -0.4726 -0.0121  0.0794
 4291TIP3    H134364   1.743   2.343   5.556 -0.6024 -0.4540 -0.0722
 4291TIP3    H234365   1.815   2.439   5.464 -1.2880 -0.0260 -0.1729
 4292TIP3   OH234366   3.329   3.204  12.731  0.1099 -0.6212 -0.3578
 4292TIP3    H134367   3.326   3.291  12.693 -2.7307 -0.8235 -0.8347
 4292TIP3    H234368   3.338   3.219  12.825 -2.0465  0.3623 -0.2372
 4293TIP3   OH234369   0.564   6.072   3.080 -1.0847 -0.5487  0.0976
 4293TIP3    H134370   0.498   6.100   3.143  0.2107 -1.9217  2.1591
 4293TIP3    H234371   0.630   6.141   3.081 -0.5323 -1.0598  1.1380
 4294TIP3   OH234372   2.425   0.406   2.939  0.6863  0.3049  0.3389
 4294TIP3    H134373   2.484   0.404   2.864  0.1726  1.5556 -0.1100
 4294TIP3    H234374   2.369   0.329   2.927  1.0486  0.1212 -0.1947
 4295TIP3   OH234375   4.357   5.639  15.671  0.0934  0.2017 -0.1391
 4295TIP3    H134376   4.349   5.565  15.612 -0.4136  0.0995  0.0564
 4295TIP3    H234377   4.398   5.708  15.618  0.6975 -0.2602 -0.2762
 4296TIP3   OH234378   5.370   5.579   2.603  0.1876 -0.2813  0.3428
 4296TIP3    H134379   5.409   5.613   2.523 -0.8417  1.1742  0.4246
 4296TIP3    H234380   5.440   5.529   2.645  1.1407  0.0731 -0.7915
 4297TIP3   OH234381   3.579   6.140   5.359 -0.5009 -0.0508  0.0251
 4297TIP3    H134382   3.556   6.163   5.449  0.5569  1.7237 -0.1014
 4297TIP3    H234383   3.604   6.048   5.363  0.4385  0.2434  1.7496
 4298TIP3   OH234384   5.374   3.914   2.818 -0.4391 -0.0914 -0.0092
 4298TIP3    H134385   5.459   3.905   2.775 -0.1549  0.7513  0.3437
 4298TIP3    H234386   5.379   3.858   2.895 -0.2600 -0.1640 -0.0740
 4299TIP3   OH234387   6.253   4.221   3.920 -0.0090 -0.0711  0.4052
 4299TIP3    H134388   6.332   4.211   3.867 -0.4784  0.4374 -0.4229
 4299TIP3    H234389   6.190   4.263   3.861 -1.1729 -1.2040  0.7892
 4300TIP3   OH234390   4.962   2.138   4.642 -0.5303 -0.1122  0.6570
 4300TIP3    H134391   4.967   2.076   4.715 -0.8792  0.5392  1.2380
 4300TIP3    H234392   4.870   2.137   4.615 -0.7565  0.9491  1.3697
 4301TIP3   OH234393   5.328   1.721   4.534  0.1004  0.2595  0.4209
 4301TIP3    H134394   5.263   1.714   4.465 -0.5778 -1.4531  1.1572
 4301TIP3    H234395   5.410   1.739   4.489 -0.4877  0.1014 -0.7413
 4302TIP3   OH234396   1.679   3.088  13.785 -0.3141 -0.4227  0.4654
 4302TIP3    H134397   1.752   3.150  13.788  0.8232 -1.7397  2.5936
 4302TIP3    H234398   1.690   3.043  13.701  0.8257  0.0079  0.3607
 4303TIP3   OH234399   6.755   3.780   0.609  0.1105  0.3454 -0.1033
 4303TIP3    H134400   6.767   3.867   0.570  0.9113  0.5999  0.6726
 4303TIP3    H234401   6.767   3.794   0.703  1.0151 -0.7213 -0.0300
 4304TIP3   OH234402   3.736   3.451  15.029 -0.1052  0.8681 -0.1713
 4304TIP3    H134403   3.720   3.357  15.018  0.7955  0.4842  1.4261
 4304TIP3    H234404   3.799   3.473  14.961 -1.3946  0.6669 -1.4745
 4305TIP3   OH234405   1.771   3.487   2.738 -0.2982 -0.1164 -0.2940
 4305TIP3    H134406   1.685   3.529   2.743 -0.5505 -0.6367 -0.2188
 4305TIP3    H234407   1.833   3.557   2.761 -0.7314  0.1436  0.0925
 4306TIP3   OH234408   0.623   0.552   2.615 -0.5291  0.3238  0.3375
 4306TIP3    H134409   0.702   0.567   2.563 -0.2481 -0.8340  0.3886
 4306TIP3    H234410   0.611   0.632   2.665  0.7272  0.4525  0.4671
 4307TIP3   OH234411   2.244   6.599  16.920 -0.3445 -0.4376  0.1899
 4307TIP3    H134412   2.292   6.526  16.958 -2.3239 -1.0836  1.6659
 4307TIP3    H234413   2.198   6.638  16.995 -1.3493  0.7236 -0.9818
 4308TIP3   OH234414   3.758   2.115   3.827  0.2901 -0.3176 -0.0300
 4308TIP3    H134415   3.819   2.042   3.840  0.5595 -0.3320 -1.2977
 4308TIP3    H234416   3.749   2.154   3.914  1.1194 -1.0940  0.4200
 4309TIP3   OH234417   2.741   4.350   3.519  0.1163  0.4817 -0.0494
 4309TIP3    H134418   2.798   4.423   3.544  3.2248 -1.9423  0.5984
 4309TIP3    H234419   2.746   4.289   3.594 -0.7208 -1.2830 -1.3469
 4310TIP3   OH234420   5.846   2.388   0.783  0.3838 -0.1193  0.0840
 4310TIP3    H134421   5.838   2.430   0.869 -0.2272  0.2577 -0.1530
 4310TIP3    H234422   5.902   2.312   0.799 -1.0093 -0.9834  1.1661
 4311TIP3   OH234423   5.123   6.272   1.348  0.0792 -0.0165  0.4034
 4311TIP3    H134424   5.148   6.180   1.356 -0.0700 -0.1479 -0.5192
 4311TIP3    H234425   5.065   6.288   1.421  1.8858 -0.0384  1.9232
 4312TIP3   OH234426   3.757   5.499   4.724  0.5754  0.2586  0.3048
 4312TIP3    H134427   3.839   5.549   4.717  1.9176 -1.8701  0.0380
 4312TIP3    H234428   3.736   5.501   4.817  0.5348  1.3845  0.2875
 4313TIP3   OH234429   1.259   4.593   0.804 -0.4064 -0.5736  0.1412
 4313TIP3    H134430   1.186   4.574   0.863 -1.1669  1.1168 -0.1953
 4313TIP3    H234431   1.292   4.679   0.833  0.9426 -0.9378 -0.2253
 4314TIP3   OH234432   4.136   3.282  13.215  0.2312  0.3687  0.2837
 4314TIP3    H134433   4.195   3.260  13.143 -0.6825 -2.8206  0.3500
 4314TIP3    H234434   4.064   3.220  13.207  0.2762 -0.4429  4.1905
 4315TIP3   OH234435   0.319   6.622   0.044 -0.2633  0.5690 -0.0674
 4315TIP3    H134436   0.379   6.697   0.040  0.0193  0.3608  0.1687
 4315TIP3    H234437   0.326   6.592   0.135  0.3301 -0.3120 -0.3917
 4316TIP3   OH234438   5.410   0.920   2.082  0.3985 -0.5041 -0.2313
 4316TIP3    H134439   5.492   0.928   2.034 -0.0815  0.1381 -0.9746
 4316TIP3    H234440   5.364   0.848   2.039  1.9740 -3.2738  2.3567
 4317TIP3   OH234441   0.666   6.579  11.884  0.0231  0.4743 -0.0689
 4317TIP3    H134442   0.584   6.561  11.838  0.0088 -0.1859  0.2021
 4317TIP3    H234443   0.735   6.551  11.823  0.0393  0.7258 -0.1669
 4318TIP3   OH234444   5.481   6.648   4.541  0.3467  0.2558  0.6474
 4318TIP3    H134445   5.411   6.713   4.545  0.5851  0.7843 -1.7384
 4318TIP3    H234446   5.540   6.672   4.612 -1.8603 -0.2544  2.7693
 4319TIP3   OH234447   1.997   0.217   0.873 -0.3179 -0.1006 -0.2625
 4319TIP3    H134448   1.994   0.137   0.926 -1.0480 -1.2636 -1.9675
 4319TIP3    H234449   1.906   0.247   0.871 -1.2789 -2.5922 -4.3697
 4320TIP3   OH234450   0.081   0.413   5.869 -0.3513 -0.1309 -0.6481
 4320TIP3    H134451   0.050   0.327   5.840 -0.9569 -0.4827  0.9748
 4320TIP3    H234452   0.010   0.448   5.923  0.4052  0.8537 -0.2628
 4321TIP3   OH234453   4.412   2.070   1.014 -0.3520  0.3178  0.7200
 4321TIP3    H134454   4.473   1.997   1.004 -2.3616 -2.0077  3.6312
 4321TIP3    H234455   4.351   2.061   0.940  0.0638 -0.2591  0.4436
 4322TIP3   OH234456   6.486   2.869   0.552 -0.1663 -0.2355 -0.6097
 4322TIP3    H134457   6.404   2.820   0.559 -0.1498 -0.2478 -0.5071
 4322TIP3    H234458   6.458   2.961   0.546 -0.1426 -0.1279  0.7231
 4323TIP3   OH234459   6.418   3.199   5.151  0.0270  0.4508 -0.3930
 4323TIP3    H134460   6.440   3.154   5.232 -0.0417 -0.2085 -0.7366
 4323TIP3    H234461   6.452   3.142   5.082 -0.8862  0.4625 -0.8606
 4324TIP3   OH234462   4.847   6.222  11.722  0.4938 -0.2036  0.2124
 4324TIP3    H134463   4.920   6.208  11.782  0.5277 -1.0498 -0.0127
 4324TIP3    H234464   4.771   6.190  11.770  0.2760  0.5519  0.3935
 4325TIP3   OH234465   6.179   6.816  15.872 -0.6116 -0.1895 -0.2251
 4325TIP3    H134466   6.139   6.884  15.926  0.7052  0.5821 -0.1743
 4325TIP3    H234467   6.235   6.864  15.811 -0.5455 -1.1698 -0.9604
 4326TIP3   OH234468   1.892   1.375   0.976  0.0395 -0.5179  0.0407
 4326TIP3    H134469   1.803   1.410   0.976  0.8781  1.8162  0.0715
 4326TIP3    H234470   1.901   1.332   0.891 -0.8664 -0.0493 -0.3026
 4327TIP3   OH234471   1.039   3.585  16.088 -0.2635 -0.4944 -0.6866
 4327TIP3    H134472   1.102   3.539  16.033 -0.2483 -1.3311  0.0167
 4327TIP3    H234473   1.076   3.673  16.098  0.5560 -0.8317 -0.6703
 4328TIP3   OH234474   3.690   5.452   5.085  0.0354 -0.1983  0.7324
 4328TIP3    H134475   3.621   5.512   5.058  1.0844  0.8131  0.1671
 4328TIP3    H234476   3.670   5.369   5.043 -0.4099  0.3048 -0.0536
 4329TIP3   OH234477   3.430   3.343   6.140  0.0255 -0.0565 -0.2768
 4329TIP3    H134478   3.475   3.422   6.172 -0.7650 -0.4442  1.9202
 4329TIP3    H234479   3.337   3.365   6.146 -0.2001 -1.1564  0.3569
 4330TIP3   OH234480   5.566   1.495   2.885 -0.0743 -0.0111 -0.3193
 4330TIP3    H134481   5.590   1.486   2.977 -0.1831 -0.5384 -0.3412
 4330TIP3    H234482   5.471   1.480   2.883 -0.3490  1.5013 -0.3118
 4331TIP3   OH234483   3.952   6.301   1.908 -0.0368  0.1552  0.4430
 4331TIP3    H134484   3.964   6.333   1.818  1.3839 -1.6274 -0.0574
 4331TIP3    H234485   3.892   6.227   1.899 -0.0466  0.0901  1.0046
 4332TIP3   OH234486   1.678   6.495   1.999  0.1184  0.2093  1.0596
 4332TIP3    H134487   1.742   6.566   1.986  0.1826 -0.2040 -1.3303
 4332TIP3    H234488   1.730   6.422   2.031  0.0059  1.2452  3.8631
 4333TIP3   OH234489   2.425   0.536  14.784 -0.2352  0.1516 -0.0751
 4333TIP3    H134490   2.417   0.441  14.796 -1.3853  0.1293 -0.8585
 4333TIP3    H234491   2.357   0.572  14.840  1.2140  0.6357  1.4506
 4334TIP3   OH234492   1.570   6.259   4.290  0.3075 -0.4816  1.0888
 4334TIP3    H134493   1.588   6.165   4.293  0.4326 -0.5375 -0.6261
 4334TIP3    H234494   1.657   6.300   4.284  0.2008 -0.4756 -1.6193
 4335TIP3   OH234495   4.866   4.025   4.293  0.0640  0.0685  0.0871
 4335TIP3    H134496   4.930   4.078   4.246  0.1425  0.4059  0.5726
 4335TIP3    H234497   4.919   3.966   4.347  0.1601 -3.0714 -3.0368
 4336TIP3   OH234498   2.508   2.647  14.479  0.2390  0.3907  0.0147
 4336TIP3    H134499   2.447   2.595  14.531 -0.3698  0.2044 -0.8742
 4336TIP3    H234500   2.490   2.738  14.504  1.5273  0.2101  1.8134
 4337TIP3   OH234501   5.345   2.253  17.098  0.7183 -0.8024  0.0568
 4337TIP3    H134502   5.283   2.291  17.035  2.0833  1.8959  0.1750
 4337TIP3    H234503   5.431   2.278  17.064  1.5705 -0.8655  2.0220
 4338TIP3   OH234504   3.737   1.221  12.687  0.5668 -0.0749  0.2541
 4338TIP3    H134505   3.706   1.131  12.673  0.7925 -0.0582 -0.3801
 4338TIP3    H234506   3.741   1.259  12.599 -0.4577  0.8731  0.5831
 4339TIP3   OH234507   4.983   6.221   3.353 -0.1106  0.3120 -0.1323
 4339TIP3    H134508   4.893   6.209   3.323  0.2966  0.3439 -1.4303
 4339TIP3    H234509   4.998   6.315   3.347 -0.3722  0.4612  1.2764
 4340TIP3   OH234510   1.638   4.379  12.895  0.7125 -0.4789  0.1782
 4340TIP3    H134511   1.545   4.402  12.892  0.9999  0.7827  0.4580
 4340TIP3    H234512   1.643   4.295  12.849 -0.9058 -1.7621  2.1863
 4341TIP3   OH234513   5.007   5.248   5.635  0.0544  0.2877 -0.6881
 4341TIP3    H134514   5.094   5.272   5.667 -0.1214  1.4456 -1.0275
 4341TIP3    H234515   5.021   5.167   5.586  1.0969  0.8701 -1.4082
 4342TIP3   OH234516   0.531   3.681  14.734  0.6833  0.1273  0.0871
 4342TIP3    H134517   0.446   3.706  14.698  0.2598  0.8702  1.5077
 4342TIP3    H234518   0.591   3.685  14.660 -0.1592  1.4692 -0.5649
 4343TIP3   OH234519   1.224   2.762  14.578  0.8041 -0.5246 -0.1772
 4343TIP3    H134520   1.230   2.798  14.490  2.0530  1.4352  0.6526
 4343TIP3    H234521   1.155   2.695  14.572 -1.4674  1.7910 -1.8891
 4344TIP3   OH234522   6.728   5.862   2.094  0.1441  0.2883 -0.6614
 4344TIP3    H134523   6.791   5.906   2.150 -0.6616  0.6656 -0.0411
 4344TIP3    H234524   6.740   5.904   2.008 -0.6108  1.7394 -0.0851
 4345TIP3   OH234525   5.297   0.371   0.519  0.6922  0.0383 -0.2249
 4345TIP3    H134526   5.211   0.412   0.518  0.1628 -1.0418 -0.6381
 4345TIP3    H234527   5.350   0.425   0.460  0.3980  0.8741  0.2503
 4346TIP3   OH234528   4.150   3.588  12.099  0.0967  0.5882  0.7959
 4346TIP3    H134529   4.146   3.626  12.187 -0.7387  0.0881  0.9816
 4346TIP3    H234530   4.238   3.609  12.068  0.4844  0.5686  1.8462
 4347TIP3   OH234531   2.203   1.623  10.929  0.3458  0.1489  0.0256
 4347TIP3    H134532   2.115   1.661  10.929  1.3058  2.5571  0.7070
 4347TIP3    H234533   2.194   1.545  10.875 -2.1576  0.4338 -0.1300
 4348TIP3   OH234534   6.118   1.454  15.477 -0.0901 -0.7537 -0.3083
 4348TIP3    H134535   6.147   1.473  15.388  0.4349 -0.3804 -0.0666
 4348TIP3    H234536   6.023   1.448  15.471 -0.2766  1.5246 -0.5059
 4349TIP3   OH234537   4.154   2.527   3.960 -0.5842  0.0198 -0.5789
 4349TIP3    H134538   4.165   2.432   3.956  0.5839  0.1955 -2.4126
 4349TIP3    H234539   4.201   2.560   3.884  0.7452  2.2413  1.0920
 4350TIP3   OH234540   0.798   2.128  13.622  0.1642 -0.0895 -0.2878
 4350TIP3    H134541   0.856   2.052  13.629  0.8387  0.3571 -0.8381
 4350TIP3    H234542   0.793   2.145  13.528 -2.6714 -1.4684 -0.4978
 4351TIP3   OH234543   1.213   5.075   0.666  0.2138 -0.1281  0.2228
 4351TIP3    H134544   1.300   5.043   0.692 -0.1065 -0.2857  1.1078
 4351TIP3    H234545   1.156   4.999   0.675 -0.3615  0.4194  1.3813
 4352TIP3   OH234546   1.779   1.367  12.919  0.6083  0.4487  0.6701
 4352TIP3    H134547   1.798   1.320  13.000 -0.0452  0.4845  0.8441
 4352TIP3    H234548   1.848   1.433  12.913  1.0341  0.0252  0.8625
 4353TIP3   OH234549   2.250   4.044   5.702 -0.0396  0.6565 -0.4163
 4353TIP3    H134550   2.183   4.021   5.637 -1.1701  1.1742  0.5295
 4353TIP3    H234551   2.224   4.131   5.733 -0.1358 -0.0338  1.5010
 4354TIP3   OH234552   6.174   0.584  14.165 -0.1127  0.1150 -0.5867
 4354TIP3    H134553   6.164   0.646  14.237  0.5085 -0.4371 -0.0186
 4354TIP3    H234554   6.231   0.630  14.103  0.8966 -0.1305  0.1384
 4355TIP3   OH234555   5.018   5.164   1.846 -0.6825  0.2067  0.3025
 4355TIP3    H134556   5.038   5.133   1.934 -0.2330  0.0525  0.1513
 4355TIP3    H234557   5.008   5.259   1.855  0.9719  0.4198  0.2589
 4356TIP3   OH234558   5.825   1.583  15.257  0.0417 -0.0577 -0.2413
 4356TIP3    H134559   5.814   1.678  15.260 -3.1871 -0.2690  4.1997
 4356TIP3    H234560   5.793   1.558  15.170 -1.6612  2.7191 -0.5280
 4357TIP3   OH234561   0.434   6.599  13.096  0.4239  0.0343  0.6922
 4357TIP3    H134562   0.431   6.619  13.002 -0.9134  1.0796  0.9243
 4357TIP3    H234563   0.528   6.599  13.118  0.7597 -0.4248 -0.6759
 4358TIP3   OH234564   5.644   6.099   4.156 -0.0318  0.1180 -0.6084
 4358TIP3    H134565   5.578   6.113   4.224 -0.2539  2.1242 -1.1920
 4358TIP3    H234566   5.726   6.127   4.197  0.0198  0.2123 -0.7773
 4359TIP3   OH234567   6.405   6.467   4.834 -0.1739  0.3381  0.4340
 4359TIP3    H134568   6.329   6.517   4.865 -0.0205  0.8034  0.0748
 4359TIP3    H234569   6.402   6.475   4.739  0.3135  0.3451  0.4178
 4360TIP3   OH234570   0.116   4.401   2.759 -0.4864 -0.0054  0.0354
 4360TIP3    H134571   0.188   4.364   2.809  0.8220  2.6315  0.2712
 4360TIP3    H234572   0.138   4.384   2.668 -1.2031 -1.9241  0.1835
 4361TIP3   OH234573   4.083   5.332  16.176 -0.2434 -0.2895  0.0388
 4361TIP3    H134574   3.989   5.311  16.173 -0.4747  0.7872 -1.9273
 4361TIP3    H234575   4.119   5.270  16.239 -2.3986 -0.2032  1.4529
 4362TIP3   OH234576   3.769   5.964  12.705  0.0975 -0.5380  0.0970
 4362TIP3    H134577   3.799   5.897  12.643 -0.1567 -0.4090 -0.1693
 4362TIP3    H234578   3.847   6.017  12.723 -0.0343  0.0159 -0.8675
 4363TIP3   OH234579   2.440   6.579   4.425 -0.3591 -0.6163  0.7621
 4363TIP3    H134580   2.348   6.563   4.445 -0.1819 -1.7971  0.7026
 4363TIP3    H234581   2.474   6.494   4.396  0.1428  0.3124 -1.6652
 4364TIP3   OH234582   3.198   5.693  12.359 -0.2380  0.0000 -0.6042
 4364TIP3    H134583   3.213   5.606  12.397  0.2124 -0.9530 -2.7865
 4364TIP3    H234584   3.114   5.684  12.313 -0.7935  1.1221  0.1598
 4365TIP3   OH234585   2.977   1.452   3.618  0.4536  0.6741  0.1774
 4365TIP3    H134586   2.950   1.392   3.687 -0.1073  1.0162  0.2595
 4365TIP3    H234587   3.056   1.494   3.653  1.0640 -0.2724 -0.0349
 4366TIP3   OH234588   6.158   2.057  11.748  0.2275  0.4439 -0.3099
 4366TIP3    H134589   6.178   2.145  11.779 -0.2449  0.1490  0.9218
 4366TIP3    H234590   6.158   2.064  11.653 -1.3949  2.1764 -0.2583
 4367TIP3   OH234591   6.454   3.898  12.416 -0.2006 -0.1561 -0.3959
 4367TIP3    H134592   6.440   3.952  12.494 -0.4542 -0.3444 -0.3088
 4367TIP3    H234593   6.519   3.834  12.443 -0.0705 -0.0390 -0.4290
 4368TIP3   OH234594   6.583   6.534   4.624  1.2975  0.4946 -0.0418
 4368TIP3    H134595   6.559   6.626   4.621 -1.7764 -0.2261 -1.0062
 4368TIP3    H234596   6.612   6.514   4.535  2.1442  0.5429  0.2151
 4369TIP3   OH234597   0.570   4.945  15.911  0.1436 -0.0801  0.2508
 4369TIP3    H134598   0.639   4.927  15.846 -0.2056 -2.4090  0.4450
 4369TIP3    H234599   0.494   4.969  15.858  0.1926 -0.7850 -0.1536
 4370TIP3   OH234600   4.433   1.831  16.272 -0.3708 -0.1328 -0.1334
 4370TIP3    H134601   4.484   1.872  16.202 -1.7002  1.9542  0.0034
 4370TIP3    H234602   4.369   1.776  16.227 -0.1466 -0.1131 -0.4760
 4371TIP3   OH234603   1.187   5.789  16.623  0.1421 -0.0048 -0.2765
 4371TIP3    H134604   1.244   5.843  16.568  0.3189  0.0136 -0.0768
 4371TIP3    H234605   1.158   5.848  16.693 -0.7002  0.1882 -0.7768
 4372TIP3   OH234606   3.847   3.623  14.793 -0.1127 -0.6632  0.3947
 4372TIP3    H134607   3.804   3.593  14.713 -0.1284 -0.2124  0.2298
 4372TIP3    H234608   3.779   3.670  14.841  0.0103 -0.5550  0.4646
 4373TIP3   OH234609   2.046   6.810  15.133  0.3145 -0.2088 -0.1040
 4373TIP3    H134610   2.078   6.855  15.212  0.8650 -3.9091  1.9740
 4373TIP3    H234611   1.952   6.806  15.144  0.1167  1.2488 -0.8858
 4374TIP3   OH234612   0.964   0.898   2.653 -0.0099 -0.3087  0.0598
 4374TIP3    H134613   0.975   0.991   2.676 -0.2851 -0.0859 -0.6898
 4374TIP3    H234614   0.928   0.858   2.732  0.0492  0.2368  0.3694
 4375TIP3   OH234615   6.778   0.814   4.355 -0.4935 -0.2326 -0.0926
 4375TIP3    H134616   6.856   0.775   4.396 -0.6733 -0.4233  0.0694
 4375TIP3    H234617   6.719   0.832   4.428  0.4888  2.5180  0.1720
 4376TIP3   OH234618   5.014   0.214  12.726  0.0648 -0.1209 -0.5358
 4376TIP3    H134619   5.047   0.302  12.707  1.5060  0.0683  2.1895
 4376TIP3    H234620   4.946   0.228  12.792  0.1404 -0.9987 -0.2564
 4377TIP3   OH234621   1.041   0.646  13.655  0.5160  0.4938 -0.4499
 4377TIP3    H134622   1.124   0.603  13.636  0.7051  0.8533 -0.4470
 4377TIP3    H234623   0.988   0.632  13.577  0.3193 -0.3429 -0.1814
 4378TIP3   OH234624   0.338   1.885  10.795 -0.3472 -0.1625  0.5800
 4378TIP3    H134625   0.408   1.939  10.832 -1.4593  1.1589  0.7865
 4378TIP3    H234626   0.371   1.860  10.709  0.9855 -0.7765  1.2305
 4379TIP3   OH234627   0.749   2.824  12.356 -0.3886 -0.1712  0.1808
 4379TIP3    H134628   0.813   2.794  12.293 -0.0186  3.3533 -1.3566
 4379TIP3    H234629   0.778   2.787  12.440  1.6590 -1.3724 -0.9767
 4380TIP3   OH234630   5.396   4.363  11.923 -0.2438 -0.2691  0.1122
 4380TIP3    H134631   5.302   4.379  11.928  0.1623  1.9122  2.5892
 4380TIP3    H234632   5.406   4.271  11.946 -1.7052 -0.2679  0.8483
 4381TIP3   OH234633   3.417   0.332   0.307  0.1806 -0.2902  0.5364
 4381TIP3    H134634   3.375   0.274   0.243 -1.9193  0.3713  1.2169
 4381TIP3    H234635   3.475   0.387   0.255  0.9088 -1.8063 -0.3440
 4382TIP3   OH234636   6.350   2.484  15.023  0.1667  0.1512  0.2986
 4382TIP3    H134637   6.413   2.551  14.993  0.8703 -1.3920 -1.9242
 4382TIP3    H234638   6.264   2.524  15.008  0.5471  1.6773  1.8617
 4383TIP3   OH234639   5.272   0.072   0.543 -0.2795 -0.4022  0.0754
 4383TIP3    H134640   5.280   0.166   0.554  1.5071 -0.3579 -1.1720
 4383TIP3    H234641   5.200   0.061   0.481  0.2120  0.2050 -0.6094
 4384TIP3   OH234642   1.776   1.036   5.219  0.0998 -0.1983 -0.0632
 4384TIP3    H134643   1.700   1.078   5.259  0.0717 -1.1688  0.9487
 4384TIP3    H234644   1.742   0.994   5.141  0.6141  3.9619 -2.8356
 4385TIP3   OH234645   1.451   3.154  11.744 -0.2566  0.3262  0.8717
 4385TIP3    H134646   1.386   3.086  11.759 -0.1051 -0.3334 -1.2464
 4385TIP3    H234647   1.533   3.117  11.778 -0.3140 -0.2780  0.3610
 4386TIP3   OH234648   0.372   0.576   0.491  1.0560  0.2626 -0.4177
 4386TIP3    H134649   0.420   0.642   0.440  0.1647  2.6445  1.5965
 4386TIP3    H234650   0.420   0.570   0.573  0.0038 -0.0916  0.1893
 4387TIP3   OH234651   3.179   2.581   3.655  0.6261  0.1410  0.3409
 4387TIP3    H134652   3.209   2.579   3.746  2.2863 -0.6788 -0.2018
 4387TIP3    H234653   3.131   2.664   3.648  1.0958  0.5599  1.7673
 4388TIP3   OH234654   5.198   4.111   5.396 -0.3613  0.1717 -0.5991
 4388TIP3    H134655   5.126   4.114   5.459 -0.1193  1.1422 -0.3479
 4388TIP3    H234656   5.272   4.150   5.443  0.0715  0.0685 -1.1825
 4389TIP3   OH234657   4.461   4.428  10.876  0.2236  0.3844 -0.0529
 4389TIP3    H134658   4.513   4.419  10.796  0.4146 -1.8006  0.2348
 4389TIP3    H234659   4.370   4.431  10.845  0.3865  1.6496 -0.4355
 4390TIP3   OH234660   6.257   0.134   5.517  0.7143 -0.0019  0.3581
 4390TIP3    H134661   6.340   0.159   5.476  0.2417 -0.8520 -1.1748
 4390TIP3    H234662   6.195   0.129   5.445 -1.1649  2.3562  1.6614
 4391TIP3   OH234663   6.547   1.529  15.161 -0.4276  0.6750 -0.4435
 4391TIP3    H134664   6.592   1.553  15.080  2.1609  1.2112  1.0225
 4391TIP3    H234665   6.476   1.593  15.169 -1.9520 -0.5231 -3.1107
 4392TIP3   OH234666   5.586   5.441  12.301 -0.4478 -0.0113  0.4904
 4392TIP3    H134667   5.537   5.374  12.347  0.3117 -0.2438  0.9772
 4392TIP3    H234668   5.591   5.410  12.211 -3.4072  1.2533 -0.2155
 4393TIP3   OH234669   0.283   0.287  13.537 -0.6177  0.4927 -0.4673
 4393TIP3    H134670   0.206   0.250  13.581 -0.8051 -1.0870 -1.9916
 4393TIP3    H234671   0.354   0.278  13.600 -1.5859  1.7827  0.8928
 4394TIP3   OH234672   4.244   5.341  14.588  0.1492 -0.1159  0.0415
 4394TIP3    H134673   4.326   5.382  14.616 -0.3596  0.9141  0.0632
 4394TIP3    H234674   4.206   5.404  14.527 -1.6293  0.4086  1.6010
 4395TIP3   OH234675   6.685   5.701   1.786 -0.1239 -0.4179  0.2721
 4395TIP3    H134676   6.775   5.672   1.771  0.2925  1.7523 -2.2088
 4395TIP3    H234677   6.694   5.779   1.840 -0.4429  0.1705 -0.5097
 4396TIP3   OH234678   5.467   1.989  17.147  0.5779 -0.0586 -0.4310
 4396TIP3    H134679   5.461   1.963  17.239  0.5583  0.5495 -0.2562
 4396TIP3    H234680   5.424   2.075  17.144 -1.2330 -0.9317 -1.3686
 4397TIP3   OH234681   6.022   1.684  12.397  0.1856  0.0725  0.1404
 4397TIP3    H134682   5.950   1.747  12.408 -2.2451 -2.1244 -1.8352
 4397TIP3    H234683   6.022   1.634  12.478 -1.8581 -1.0533 -0.4642
 4398TIP3   OH234684   0.015   0.279  15.772  0.4938  0.4965 -0.1698
 4398TIP3    H134685  -0.024   0.257  15.687  0.8249 -1.0094  0.0387
 4398TIP3    H234686  -0.060   0.289  15.830  0.2949  0.8815 -0.4853
 4399TIP3   OH234687   1.503   5.122  14.805 -0.0261 -0.0210  0.0862
 4399TIP3    H134688   1.585   5.126  14.856 -0.0562  0.2474  0.1181
 4399TIP3    H234689   1.510   5.042  14.754  2.0174  1.8216 -2.8442
 4400TIP3   OH234690   3.776   5.001  14.895 -0.4657  0.1536  0.3710
 4400TIP3    H134691   3.727   4.996  14.813  0.2922 -1.8829 -0.0147
 4400TIP3    H234692   3.868   4.993  14.869 -0.3136 -3.1734  1.4974
 4401TIP3   OH234693   5.720   0.682   4.532 -0.4323 -0.6493 -0.2139
 4401TIP3    H134694   5.669   0.763   4.528  0.3113 -0.1431  0.1702
 4401TIP3    H234695   5.799   0.706   4.582  0.0589 -1.4702 -0.5720
 4402TIP3   OH234696   6.015   1.777   2.195 -0.2048 -0.2829 -0.2890
 4402TIP3    H134697   6.001   1.849   2.133  0.8658 -0.6580 -1.0049
 4402TIP3    H234698   5.989   1.812   2.280 -0.0672  0.8177 -0.6888
 4403TIP3   OH234699   4.479   4.441  13.413 -0.0521 -0.8789  0.2309
 4403TIP3    H134700   4.513   4.359  13.446  0.5921 -1.4806 -1.7508
 4403TIP3    H234701   4.387   4.441  13.436 -0.3066 -2.6831 -0.6295
 4404TIP3   OH234702   6.742   3.278  12.436 -0.2502  0.1695  0.4624
 4404TIP3    H134703   6.759   3.292  12.529  0.3629  0.3454  0.3298
 4404TIP3    H234704   6.735   3.366  12.399 -2.3300  0.1287  0.6477
 4405TIP3   OH234705   3.546   4.968   4.754 -0.2621 -0.5959  0.0669
 4405TIP3    H134706   3.490   5.034   4.715  0.9409  0.4461  0.0592
 4405TIP3    H234707   3.485   4.903   4.789 -1.4884  0.7251  0.4767
 4406TIP3   OH234708   2.845   5.438  15.339  0.1980 -0.0911  0.3731
 4406TIP3    H134709   2.913   5.409  15.278 -0.1614  1.2201 -0.7164
 4406TIP3    H234710   2.892   5.467  15.417  0.7390 -0.9188  0.3598
 4407TIP3   OH234711   1.744   4.022   4.927  0.3403  0.2531  0.5855
 4407TIP3    H134712   1.673   3.966   4.959  0.5595  0.8295  2.1978
 4407TIP3    H234713   1.771   3.982   4.845 -0.2888 -1.3305  1.1072
 4408TIP3   OH234714   1.622   3.251  12.276 -0.6134 -0.8624 -0.2657
 4408TIP3    H134715   1.699   3.224  12.327 -0.9050 -0.0818  0.6281
 4408TIP3    H234716   1.644   3.232  12.185 -0.3857 -3.0613  0.2057
 4409TIP3   OH234717   1.558   6.540   4.534  0.0107 -0.3771  0.1311
 4409TIP3    H134718   1.524   6.615   4.486 -0.7901 -0.6658  0.2367
 4409TIP3    H234719   1.636   6.513   4.485  2.5821  2.7792  2.0749
 4410TIP3   OH234720   6.219   4.440   5.924 -0.1814  0.0135 -0.0372
 4410TIP3    H134721   6.189   4.406   6.008 -1.6136  1.6522  0.1822
 4410TIP3    H234722   6.253   4.364   5.877 -0.7681 -1.1956  1.4313
 4411TIP3   OH234723   0.133   6.274   5.067 -0.5120  0.3810  0.2166
 4411TIP3    H134724   0.173   6.317   5.142  2.7337  0.6354 -1.4751
 4411TIP3    H234725   0.170   6.186   5.067 -1.3881 -0.0099 -0.4736
 4412TIP3   OH234726   2.131   6.328  14.970 -0.3464 -0.1488 -0.3310
 4412TIP3    H134727   2.192   6.391  14.933  0.3351 -0.3913  0.3538
 4412TIP3    H234728   2.089   6.374  15.042  2.2564 -1.2936  2.0814
 4413TIP3   OH234729   5.514   0.131   4.412  0.3615 -0.3067  0.3139
 4413TIP3    H134730   5.429   0.120   4.454  0.0399  0.7361 -0.0314
 4413TIP3    H234731   5.577   0.120   4.483 -0.1257  0.3379  0.8570
 4414TIP3   OH234732   2.943   1.590  11.234 -1.0106  0.0118  0.2016
 4414TIP3    H134733   2.962   1.524  11.301  3.8812  0.0971 -0.7122
 4414TIP3    H234734   2.962   1.547  11.151  0.5380  1.9232 -0.5260
 4415TIP3   OH234735   3.953   2.550  14.525  0.4639 -0.5498  0.3680
 4415TIP3    H134736   4.001   2.467  14.527  1.0377 -0.2512 -0.4638
 4415TIP3    H234737   3.951   2.579  14.617 -0.8050 -2.0627  0.8590
 4416TIP3   OH234738   0.760   0.894   5.225  0.2493 -0.0250 -0.0595
 4416TIP3    H134739   0.752   0.892   5.320  0.0395  1.2131 -0.0301
 4416TIP3    H234740   0.737   0.806   5.197 -0.9607 -0.0726  0.9584
 4417TIP3   OH234741   6.015   4.605   3.513 -0.8303 -0.0691  0.6141
 4417TIP3    H134742   6.008   4.531   3.452 -0.1845  0.1319  0.2865
 4417TIP3    H234743   5.936   4.600   3.566 -1.2993 -0.3861 -0.0964
 4418TIP3   OH234744   3.309   0.012  12.144 -0.2139 -0.5795  0.0571
 4418TIP3    H134745   3.329   0.064  12.221  1.7017  1.0637 -1.4348
 4418TIP3    H234746   3.222   0.040  12.117 -0.1926  0.0743  0.6536
 4419TIP3   OH234747   6.144   2.494  14.144 -0.7651 -0.1034 -0.1341
 4419TIP3    H134748   6.078   2.427  14.130  1.6491 -2.7563  0.3799
 4419TIP3    H234749   6.214   2.473  14.083  1.1220  0.4511  1.7163
 4420TIP3   OH234750   1.188   4.598  10.754  0.1613  0.3116  0.1871
 4420TIP3    H134751   1.278   4.567  10.762  0.4141  0.4588 -1.6821
 4420TIP3    H234752   1.189   4.686  10.791  0.3228 -0.3779  1.9083
 4421TIP3   OH234753   2.347   0.039   4.350 -1.0688 -0.1526 -1.2707
 4421TIP3    H134754   2.311  -0.049   4.345  1.1086 -1.0753 -1.8077
 4421TIP3    H234755   2.418   0.033   4.415  0.2344  0.7359 -2.5372
 4422TIP3   OH234756   1.102   3.648  16.605 -0.6280 -0.0327  0.1043
 4422TIP3    H134757   1.138   3.729  16.568  0.8892 -0.6486  0.1315
 4422TIP3    H234758   1.121   3.582  16.539 -1.8394 -0.3905  0.0900
 4423TIP3   OH234759   3.622   0.371  10.391  0.1256  0.0532 -0.4558
 4423TIP3    H134760   3.654   0.312  10.458 -1.2257 -0.6086 -0.3589
 4423TIP3    H234761   3.553   0.322  10.346  0.7946  0.5795 -2.1448
 4424TIP3   OH234762   3.661   5.668   2.175 -0.1020 -0.2368 -0.4605
 4424TIP3    H134763   3.699   5.756   2.181  0.3205 -0.5143  2.5196
 4424TIP3    H234764   3.681   5.628   2.259 -1.8101 -2.5924 -1.0843
 4425TIP3   OH234765   6.541   0.447  11.928  0.1032  0.4138 -0.2249
 4425TIP3    H134766   6.508   0.441  11.839 -0.9150 -2.2922  0.2493
 4425TIP3    H234767   6.464   0.471  11.981  0.0914 -0.5844  0.2270
 4426TIP3   OH234768   2.862   5.058   5.939  0.2881 -0.3926  0.2029
 4426TIP3    H134769   2.772   5.091   5.938 -0.3794 -2.0605 -1.0804
 4426TIP3    H234770   2.916   5.136   5.924 -1.0502  0.4202 -0.6482
 4427TIP3   OH234771   5.722   3.502   4.178 -0.4213  0.0684  0.0715
 4427TIP3    H134772   5.734   3.407   4.187  0.1169  0.1058 -0.2273
 4427TIP3    H234773   5.794   3.540   4.228 -1.1662  0.3344  0.9624
 4428TIP3   OH234774   4.936   5.465   5.788 -0.1084 -0.1170 -0.0950
 4428TIP3    H134775   4.958   5.383   5.743  0.8847 -0.0298  0.2103
 4428TIP3    H234776   4.844   5.480   5.767  0.0228 -0.6825 -1.1381
 4429TIP3   OH234777   2.766   3.589   0.315 -0.6364 -0.4116 -0.5159
 4429TIP3    H134778   2.730   3.541   0.390  1.2094 -2.3739 -0.7790
 4429TIP3    H234779   2.695   3.647   0.287 -1.9464 -0.8151  1.7062
 4430TIP3   OH234780   4.126   6.415  13.293  0.0607  0.2387 -0.3560
 4430TIP3    H134781   4.052   6.364  13.259  0.3192  0.3212 -1.0731
 4430TIP3    H234782   4.200   6.355  13.287  0.1646  0.3541 -0.2147
 4431TIP3   OH234783   1.453   4.647   3.875  0.0045  0.4168 -0.7157
 4431TIP3    H134784   1.452   4.643   3.780  1.1688  0.3153 -0.7296
 4431TIP3    H234785   1.504   4.725   3.896 -0.5878  0.6698 -0.1703
 4432TIP3   OH234786   4.549   4.055   6.045 -0.2039  0.4367 -0.1447
 4432TIP3    H134787   4.608   4.077   5.973  0.3599 -0.5205  0.0217
 4432TIP3    H234788   4.518   3.967   6.025  1.1638 -0.4901  1.5440
 4433TIP3   OH234789   3.751   6.477  14.609  0.0371 -0.4996 -0.3158
 4433TIP3    H134790   3.755   6.548  14.545 -2.1394 -0.4940 -0.5275
 4433TIP3    H234791   3.839   6.439  14.609  0.8842  1.3465 -1.1574
 4434TIP3   OH234792   4.111   6.228   0.322  0.2406 -0.5324 -0.4046
 4434TIP3    H134793   4.057   6.295   0.363  0.5306  0.4952 -1.6299
 4434TIP3    H234794   4.089   6.147   0.368  0.4397  0.5083  1.6256
 4435TIP3   OH234795   3.674   2.484   0.013  0.3671  0.2460  0.1378
 4435TIP3    H134796   3.579   2.473   0.018  0.1474  0.8559 -1.7936
 4435TIP3    H234797   3.703   2.423  -0.054  1.0988  1.1851 -0.4412
 4436TIP3   OH234798   1.927   4.120   5.148  0.3419  0.1277 -0.2516
 4436TIP3    H134799   1.923   4.209   5.114  0.2738 -0.0792 -0.8011
 4436TIP3    H234800   1.891   4.066   5.077 -1.4135 -0.1598  0.7850
 4437TIP3   OH234801   2.249   5.857   4.700  0.4526  0.3007  0.3609
 4437TIP3    H134802   2.246   5.846   4.795  3.5136  1.8804  0.7614
 4437TIP3    H234803   2.218   5.947   4.685 -1.7196 -0.4968 -0.4215
 4438TIP3   OH234804   5.644   5.811  12.116 -0.5508  0.1842  0.1564
 4438TIP3    H134805   5.697   5.748  12.164 -0.6017  2.3086  3.3163
 4438TIP3    H234806   5.585   5.758  12.062  0.5267 -2.3707  1.3588
 4439TIP3   OH234807   5.869   0.409  13.471  0.2268  0.0234  0.6989
 4439TIP3    H134808   5.832   0.341  13.527 -1.7293  0.1692 -0.3379
 4439TIP3    H234809   5.793   0.453  13.432  1.4573  1.9696  0.3449
 4440TIP3   OH234810   1.644   4.012   6.615 -0.9134  0.4327  0.3797
 4440TIP3    H134811   1.728   4.055   6.600 -0.2037 -1.2151 -0.6691
 4440TIP3    H234812   1.586   4.048   6.547 -0.0147 -0.9663 -1.2142
 4441TIP3   OH234813   0.181   1.614  11.120 -0.0865  0.5759 -0.2654
 4441TIP3    H134814   0.274   1.634  11.110  0.4102 -0.4172  1.7974
 4441TIP3    H234815   0.148   1.608  11.030  1.0652  4.0931 -1.0759
 4442TIP3   OH234816   3.456   3.215  16.910  0.1874  0.5678  0.2543
 4442TIP3    H134817   3.544   3.235  16.877  0.2247 -0.2713 -0.1872
 4442TIP3    H234818   3.433   3.132  16.868 -0.9494  0.9363  0.1240
 4443TIP3   OH234819   6.358   1.429  13.536  0.0210 -0.2445 -0.2881
 4443TIP3    H134820   6.448   1.452  13.513 -0.7825  1.1478 -2.4470
 4443TIP3    H234821   6.357   1.334  13.542  1.7365 -0.2427  0.3811
 4444TIP3   OH234822   2.938   0.597   0.847  0.0892  0.3096 -0.0178
 4444TIP3    H134823   2.893   0.554   0.919  0.0310 -0.2905 -0.4048
 4444TIP3    H234824   2.892   0.680   0.835 -0.3748  0.0760  0.1450
 4445TIP3   OH234825   6.491   5.225   4.942  0.0453  0.2298  0.3837
 4445TIP3    H134826   6.544   5.244   5.019  0.3736 -1.0804  0.5015
 4445TIP3    H234827   6.463   5.135   4.953  1.4086 -0.5593 -1.7435
 4446TIP3   OH234828   1.492   0.941   5.319 -0.2107  0.5531 -0.0641
 4446TIP3    H134829   1.437   0.895   5.257  0.1580 -1.1987  0.8399
 4446TIP3    H234830   1.563   0.880   5.339  1.0825  2.0528  0.1566
 4447TIP3   OH234831   0.727   2.350  12.467 -0.0495  0.3557  0.7984
 4447TIP3    H134832   0.682   2.294  12.530 -1.6708 -0.4990 -1.0016
 4447TIP3    H234833   0.661   2.370  12.401  1.4193  1.6216 -0.3827
 4448TIP3   OH234834   2.316   1.225   2.973  0.7125  0.4809  0.2252
 4448TIP3    H134835   2.256   1.252   3.042 -0.6916 -0.0672 -0.7231
 4448TIP3    H234836   2.311   1.129   2.974 -1.2199  0.4622 -2.1332
 4449TIP3   OH234837   5.990   3.637  15.593  0.5297 -0.0119 -0.1772
 4449TIP3    H134838   5.930   3.614  15.664  1.8160 -0.5410  0.7735
 4449TIP3    H234839   6.073   3.595  15.617  1.5214  1.4005 -1.0215
 4450TIP3   OH234840   4.542   1.201   4.009 -0.6537  0.6792 -0.5538
 4450TIP3    H134841   4.537   1.264   4.080  0.3949 -0.7887  0.9076
 4450TIP3    H234842   4.627   1.216   3.969 -1.3262  1.6428 -1.6925
 4451TIP3   OH234843   1.728   0.361   2.877  0.6480  0.3235  0.4695
 4451TIP3    H134844   1.735   0.269   2.902  1.2889  0.1981 -0.1547
 4451TIP3    H234845   1.715   0.407   2.960  0.1793 -0.3373  0.7719
 4452TIP3   OH234846   4.117   1.986   6.260  0.1353  0.4751 -0.6753
 4452TIP3    H134847   4.167   2.056   6.302  0.3445  0.4995 -0.9677
 4452TIP3    H234848   4.156   1.976   6.174 -0.9823  1.1660 -1.2823
 4453TIP3   OH234849   3.600   3.661  16.239 -0.7434  0.0252  0.6851
 4453TIP3    H134850   3.518   3.709  16.243  0.1530  1.6230  0.6615
 4453TIP3    H234851   3.588   3.599  16.167 -1.6798  0.7280  0.2166
 4454TIP3   OH234852   0.313   2.715  12.697  0.2550  0.2959  0.0167
 4454TIP3    H134853   0.277   2.640  12.745  1.6455 -1.6237 -1.7890
 4454TIP3    H234854   0.265   2.716  12.614  1.0745  0.6539 -0.4636
 4455TIP3   OH234855   2.778   0.817   2.710 -0.2372 -0.3097 -0.2301
 4455TIP3    H134856   2.746   0.900   2.675  0.1810  0.4643  1.1308
 4455TIP3    H234857   2.700   0.763   2.721 -0.5275 -0.0494 -1.0039
 4456TIP3   OH234858   3.954   4.819   0.840 -0.0883  0.1424 -0.1471
 4456TIP3    H134859   3.997   4.833   0.756  0.1711 -0.2577 -0.0812
 4456TIP3    H234860   4.023   4.831   0.905 -0.3345  0.6621  0.0213
 4457TIP3   OH234861   6.280   4.534   0.581  0.0358  0.2437 -0.4784
 4457TIP3    H134862   6.243   4.613   0.621  1.6875  0.0643  1.5829
 4457TIP3    H234863   6.346   4.567   0.520  1.2317  0.5046  0.9094
 4458TIP3   OH234864   6.148   6.195   2.911 -0.1039  0.5124 -0.4355
 4458TIP3    H134865   6.137   6.149   2.995 -2.4021 -0.8700 -1.3961
 4458TIP3    H234866   6.123   6.285   2.930 -1.0890  0.1112  0.3060
 4459TIP3   OH234867   3.823   1.489  11.293 -0.3514  0.0956 -0.2732
 4459TIP3    H134868   3.816   1.405  11.338  0.2291 -1.2055 -2.4668
 4459TIP3    H234869   3.915   1.513  11.302  0.0283 -0.7457 -1.6707
 4460TIP3   OH234870   1.371   0.876  11.277  0.0313  0.1066  0.0153
 4460TIP3    H134871   1.390   0.905  11.187 -1.0705  0.9975  0.0440
 4460TIP3    H234872   1.282   0.906  11.293  0.1606 -0.1746  1.3650
 4461TIP3   OH234873   3.841   6.051   5.597 -0.0849  0.1005 -0.0880
 4461TIP3    H134874   3.902   5.978   5.614  1.5492  1.6550  1.1402
 4461TIP3    H234875   3.797   6.026   5.516  0.8787 -1.9601 -0.0591
 4462TIP3   OH234876   3.561   0.862  13.138 -0.0852  0.2614  0.6205
 4462TIP3    H134877   3.481   0.845  13.087 -0.7222  2.0096  0.9614
 4462TIP3    H234878   3.627   0.885  13.072  0.7130 -2.8301  0.1760
 4463TIP3   OH234879   2.778   4.925   4.965  0.1163  0.2083  0.3504
 4463TIP3    H134880   2.811   4.978   5.037 -0.7066 -2.2792  2.7502
 4463TIP3    H234881   2.749   4.843   5.007  0.0713 -1.6096 -2.8897
 4464TIP3   OH234882   4.933   4.663  14.400  0.0534 -0.5337 -0.4747
 4464TIP3    H134883   4.883   4.717  14.339  1.2531  1.6674  0.3824
 4464TIP3    H234884   5.023   4.666  14.366  0.3379 -1.0764  0.2118
 4465TIP3   OH234885   5.724   3.414  15.122 -0.3139 -0.0191  0.3004
 4465TIP3    H134886   5.673   3.342  15.160  0.3404 -0.3988  0.4764
 4465TIP3    H234887   5.732   3.392  15.030 -0.5950  0.1173  0.2424
 4466TIP3   OH234888   4.645   2.765  14.322 -0.3729 -0.4573  0.1391
 4466TIP3    H134889   4.634   2.808  14.406  2.4664 -1.1240  0.9810
 4466TIP3    H234890   4.617   2.829  14.257 -2.2893  0.1922  1.5356
 4467TIP3   OH234891   4.960   2.034  13.087 -0.0788  0.3802  0.2348
 4467TIP3    H134892   5.037   2.070  13.043 -0.1376 -0.4922 -0.6194
 4467TIP3    H234893   4.995   1.974  13.152 -0.0189 -0.0834 -0.2129
 4468TIP3   OH234894   6.844   4.642   3.529 -0.0604 -0.4467 -0.5365
 4468TIP3    H134895   6.890   4.649   3.613 -1.6182 -0.9444  0.4292
 4468TIP3    H234896   6.827   4.548   3.520 -2.5089 -0.1633  0.1625
 4469TIP3   OH234897   2.173   0.186   5.208  0.6411 -0.1763  0.1117
 4469TIP3    H134898   2.253   0.161   5.253  1.1957  2.1381  0.5511
 4469TIP3    H234899   2.199   0.194   5.116  0.8022  0.1229  0.1831
 4470TIP3   OH234900   3.574   5.992   2.683  0.0184 -0.2218  0.4812
 4470TIP3    H134901   3.539   6.033   2.604  0.6322  0.5397  0.5936
 4470TIP3    H234902   3.540   5.903   2.681  1.1974 -0.6773 -1.3964
 4471TIP3   OH234903   6.652   3.343  11.413  0.3143  0.3790  0.0924
 4471TIP3    H134904   6.744   3.316  11.416  0.1203 -0.6815 -1.7243
 4471TIP3    H234905   6.646   3.416  11.474  1.7107 -1.3513  2.4820
 4472TIP3   OH234906   3.798   2.069  16.671 -0.0965 -0.1898  0.4522
 4472TIP3    H134907   3.883   2.029  16.654  0.5853  0.0099  2.9599
 4472TIP3    H234908   3.788   2.137  16.604  1.9100  0.0245  0.3336
 4473TIP3   OH234909   5.028   6.551   5.607  0.1723  0.7169 -0.7635
 4473TIP3    H134910   5.034   6.539   5.702 -0.6347  1.5707 -0.5828
 4473TIP3    H234911   5.073   6.475   5.570  0.6537  0.4611  0.3012
 4474TIP3   OH234912   4.435   5.918   5.412  0.2848  0.5321  0.3112
 4474TIP3    H134913   4.407   5.835   5.450  0.7603  0.5964  0.8099
 4474TIP3    H234914   4.353   5.960   5.385  0.0981 -0.4801 -0.7688
 4475TIP3   OH234915   5.059   2.421  10.459  0.2817 -0.5040 -0.1150
 4475TIP3    H134916   5.027   2.333  10.480 -1.5064  0.3958  1.2292
 4475TIP3    H234917   5.027   2.437  10.370 -2.3309 -0.0247  0.8260
 4476TIP3   OH234918   1.002   4.947   4.255 -0.3610 -0.1965 -0.0974
 4476TIP3    H134919   0.998   4.861   4.297  2.7840 -0.2308  0.3460
 4476TIP3    H234920   1.094   4.958   4.232 -1.0705  2.1267 -2.2201
 4477TIP3   OH234921   5.543   1.494   2.130 -0.0834  0.0459 -0.1685
 4477TIP3    H134922   5.448   1.482   2.129 -0.1041  0.1976  0.0786
 4477TIP3    H234923   5.578   1.405   2.125 -0.2293 -0.3525  3.4977
 4478TIP3   OH234924   0.291   5.303   4.959 -0.2053  0.2168 -0.3235
 4478TIP3    H134925   0.241   5.227   4.989  0.4557  0.3814  1.3322
 4478TIP3    H234926   0.381   5.272   4.954 -0.2987  0.1488 -2.4809
 4479TIP3   OH234927   0.891   2.807   0.719 -0.2494 -0.0321  0.1147
 4479TIP3    H134928   0.859   2.897   0.710 -3.0263 -0.9920 -0.7795
 4479TIP3    H234929   0.986   2.815   0.716 -0.3431  2.9638  1.2230
 4480TIP3   OH234930   5.325   3.811  13.920 -0.4701 -0.3125 -0.5551
 4480TIP3    H134931   5.343   3.847  14.006 -1.3789  0.4397 -0.6731
 4480TIP3    H234932   5.377   3.730  13.917  0.2493  0.0959  0.3517
 4481TIP3   OH234933   0.332   6.346   3.003  0.2147  0.0515 -0.1655
 4481TIP3    H134934   0.298   6.366   3.090  0.0723  0.8240 -0.3850
 4481TIP3    H234935   0.306   6.422   2.949 -0.3560 -0.7500 -1.0577
 4482TIP3   OH234936   3.788   5.867  16.480 -0.2451 -0.8312 -0.4205
 4482TIP3    H134937   3.741   5.817  16.547 -1.0792  0.5711  0.0805
 4482TIP3    H234938   3.720   5.918  16.436  0.6213  0.1515 -0.6518
 4483TIP3   OH234939   2.985   5.488  13.668 -0.0691 -0.1372 -0.2463
 4483TIP3    H134940   3.068   5.441  13.657  0.1183 -0.0908  0.7816
 4483TIP3    H234941   2.997   5.537  13.750  0.3132  2.9309 -2.0169
 4484TIP3   OH234942   0.988   3.859  13.284 -0.0143 -0.2428  0.3397
 4484TIP3    H134943   1.005   3.832  13.374  1.2115  1.2237  0.5824
 4484TIP3    H234944   0.910   3.915  13.291  0.8120  0.8888  0.7000
 4485TIP3   OH234945   6.127   2.750  16.336 -0.1915 -0.1365 -0.2492
 4485TIP3    H134946   6.098   2.839  16.357  1.9536  1.1620 -2.2009
 4485TIP3    H234947   6.114   2.743  16.241 -2.4798 -2.8541  0.1261
 4486TIP3   OH234948   5.499   3.582  15.751 -0.1957 -0.2853  0.3006
 4486TIP3    H134949   5.593   3.578  15.768 -0.2536  0.1964  0.7257
 4486TIP3    H234950   5.460   3.526  15.818 -0.4730  2.0635  2.2430
 4487TIP3   OH234951   0.886   0.695   4.269 -0.2084  0.0679  0.3417
 4487TIP3    H134952   0.967   0.648   4.290 -0.4447 -0.6407 -0.3009
 4487TIP3    H234953   0.882   0.766   4.334  0.0552 -0.9141  1.4701
 4488TIP3   OH234954   4.730   1.720   4.173 -0.6287 -0.0277 -0.0628
 4488TIP3    H134955   4.707   1.705   4.265 -0.7833 -0.4727 -0.1697
 4488TIP3    H234956   4.653   1.688   4.124  0.3472 -1.9716 -0.4473
 4489TIP3   OH234957   0.537   3.121   5.781 -0.2837 -0.0167 -0.3913
 4489TIP3    H134958   0.570   3.202   5.742  1.6018 -0.9039 -0.7426
 4489TIP3    H234959   0.543   3.135   5.875  0.0440  0.2596 -0.4503
 4490TIP3   OH234960   2.004   4.384   0.905  0.3626 -0.1764 -0.7227
 4490TIP3    H134961   2.084   4.341   0.875  0.8333  1.5738 -2.1446
 4490TIP3    H234962   1.945   4.378   0.830 -0.5311 -0.6626  0.0050
 4491TIP3   OH234963   3.313   6.319  15.581 -0.4904  0.3524 -0.1189
 4491TIP3    H134964   3.319   6.332  15.487  0.6434  1.4170  0.0727
 4491TIP3    H234965   3.380   6.254  15.601  0.0969  1.0208  0.1018
 4492TIP3   OH234966   2.518   3.939  15.255 -0.2869 -0.3445  0.6657
 4492TIP3    H134967   2.585   3.987  15.206 -0.6764  0.2923  0.7504
 4492TIP3    H234968   2.496   3.865  15.198  0.2766 -0.3973  0.5064
 4493TIP3   OH234969   6.196   3.696  16.972 -0.0038 -0.4544 -0.1247
 4493TIP3    H134970   6.184   3.605  16.999  0.6003 -0.7852 -0.9156
 4493TIP3    H234971   6.116   3.740  16.999  0.5635 -0.7341  2.1692
 4494TIP3   OH234972   3.596   4.258   4.999 -0.8970 -0.6206  0.0136
 4494TIP3    H134973   3.568   4.283   5.087 -0.8600 -0.1629 -0.1029
 4494TIP3    H234974   3.618   4.340   4.957  0.0361 -0.9185 -0.1034
 4495TIP3   OH234975   3.384   5.329  16.443 -0.0588 -0.3464 -0.7596
 4495TIP3    H134976   3.320   5.399  16.462 -1.5350 -2.2208  1.9490
 4495TIP3    H234977   3.437   5.324  16.523  0.8706 -1.4619 -1.4247
 4496TIP3   OH234978   3.269   5.389  15.635 -0.0038  0.1930 -0.2057
 4496TIP3    H134979   3.287   5.438  15.715  0.7188 -0.7943  0.2614
 4496TIP3    H234980   3.351   5.344  15.616  0.4847  1.9513 -2.6563
 4497TIP3   OH234981   0.264   1.950  11.788 -0.3396 -0.0581  0.1302
 4497TIP3    H134982   0.332   1.969  11.723  1.5552 -0.2523  1.9583
 4497TIP3    H234983   0.216   2.032  11.796  0.1716  0.3359 -0.6450
 4498TIP3   OH234984   2.090   0.421  13.859 -0.2742 -0.1365 -0.2953
 4498TIP3    H134985   2.066   0.329  13.856  0.0915 -0.2237 -0.7062
 4498TIP3    H234986   2.008   0.467  13.839 -0.1364 -0.4330 -1.6537
 4499TIP3   OH234987   4.296   3.357  13.419  0.3504 -0.0659  0.1497
 4499TIP3    H134988   4.232   3.329  13.354 -1.3018  3.1961  0.1271
 4499TIP3    H234989   4.373   3.304  13.403 -1.2992 -1.9885 -1.9274
 4500TIP3   OH234990   1.921   3.738   4.824  0.1671 -0.1327 -0.3520
 4500TIP3    H134991   1.972   3.679   4.769  2.1429  1.3690 -0.2549
 4500TIP3    H234992   1.892   3.808   4.765 -0.0211  0.0935  0.0018
 4501TIP3   OH234993   5.028   1.524   1.734 -0.2906 -0.2292 -0.2011
 4501TIP3    H134994   4.956   1.494   1.790 -1.7972  0.8578 -1.5001
 4501TIP3    H234995   5.023   1.620   1.737  0.9001 -0.1393 -0.5775
 4502TIP3   OH234996   1.916   1.879  11.770 -0.4934 -0.0165  0.4755
 4502TIP3    H134997   1.951   1.968  11.756  0.6619 -0.6640 -1.1035
 4502TIP3    H234998   1.923   1.837  11.684  0.3528 -2.1085  1.5001
 4503TIP3   OH234999   1.594   1.622   4.778  0.1681 -0.4059  0.4707
 4503TIP3    H135000   1.542   1.553   4.737  1.6546 -2.1622  1.3585
 4503TIP3    H235001   1.540   1.654   4.850 -0.3332 -1.0564  0.3894
 4504TIP3   OH235002   4.002   0.500   4.526 -0.4565  0.5359 -0.0675
 4504TIP3    H135003   3.922   0.458   4.494 -0.4968 -0.8287  1.6795
 4504TIP3    H235004   4.073   0.446   4.492 -0.2934  1.1842 -0.8010
 4505TIP3   OH235005   1.453   2.809  10.694 -0.6153 -0.3995  0.4009
 4505TIP3    H135006   1.480   2.760  10.616 -0.1475 -0.7360  0.7595
 4505TIP3    H235007   1.536   2.832  10.737 -0.8609 -0.0218  0.6798
 4506TIP3   OH235008   6.334   3.207  11.567  0.0471 -0.7835 -0.3410
 4506TIP3    H135009   6.395   3.243  11.503  0.3165  0.7562  0.7107
 4506TIP3    H235010   6.248   3.237  11.537 -0.2809 -2.9834 -1.8430
 4507TIP3   OH235011   3.883   1.910  15.829 -0.0143 -0.1447 -0.2583
 4507TIP3    H135012   3.955   1.890  15.888  0.4942 -2.1521 -1.4393
 4507TIP3    H235013   3.823   1.836  15.839 -0.9436  0.5261 -0.7263
 4508TIP3   OH235014   5.793   2.978  13.768 -0.3258 -0.7162 -0.5615
 4508TIP3    H135015   5.878   2.954  13.731  0.0191  0.2606 -0.4347
 4508TIP3    H235016   5.730   2.947  13.704  0.2870  1.7634 -2.5194
 4509TIP3   OH235017   6.353   2.278  12.775  0.4612 -0.1735 -0.0724
 4509TIP3    H135018   6.257   2.278  12.781  0.4127  0.4147 -0.7757
 4509TIP3    H235019   6.381   2.226  12.850 -0.4607 -2.0609 -0.9737
 4510TIP3   OH235020   1.580   5.241   5.577 -0.1199 -0.4285  0.0257
 4510TIP3    H135021   1.618   5.209   5.495  2.3170 -2.7644  1.8782
 4510TIP3    H235022   1.544   5.327   5.555  3.8227  0.8301 -2.6630
 4511TIP3   OH235023   6.234   0.569  11.868  0.4612 -0.0730  0.1590
 4511TIP3    H135024   6.146   0.568  11.906 -0.6670 -1.3013 -2.2518
 4511TIP3    H235025   6.260   0.477  11.866  0.6949 -0.0049 -1.3939
 4512TIP3   OH235026   2.522   5.844   3.817 -0.3238  0.2881  0.0347
 4512TIP3    H135027   2.532   5.752   3.842 -1.0500  0.4956  1.1722
 4512TIP3    H235028   2.428   5.856   3.808 -0.3134  1.1462  0.8625
 4513TIP3   OH235029   0.842   0.919   3.281 -0.5195 -0.0297 -0.4892
 4513TIP3    H135030   0.880   0.975   3.213  0.2918  0.0387  0.0059
 4513TIP3    H235031   0.899   0.932   3.357 -0.5188 -1.2779 -0.2669
 4514TIP3   OH235032   3.439   5.854  17.073 -0.1528 -0.8404 -0.0445
 4514TIP3    H135033   3.457   5.766  17.040 -1.0596 -0.3429 -1.9608
 4514TIP3    H235034   3.353   5.846  17.115  0.3650 -1.1425  1.0038
 4515TIP3   OH235035   2.990   5.410   5.487 -0.6028 -0.1099  0.3953
 4515TIP3    H135036   3.072   5.420   5.438 -1.9002  1.0616 -1.6439
 4515TIP3    H235037   2.959   5.322   5.464 -0.1393 -0.4099  0.8806
 4516TIP3   OH235038   1.342   2.872   5.706  0.4234  0.1959 -0.0331
 4516TIP3    H135039   1.416   2.910   5.753  0.2905 -0.3943  0.6561
 4516TIP3    H235040   1.267   2.925   5.732  0.3653 -0.0739  0.3404
 4517TIP3   OH235041   1.979   5.292  11.641  0.0830  0.1861 -0.0014
 4517TIP3    H135042   1.976   5.298  11.545  2.2697 -2.4209 -0.3521
 4517TIP3    H235043   1.954   5.201  11.659  0.0331  0.5535  1.9172
 4518TIP3   OH235044   0.295   4.935  14.661  0.1529  0.6482  0.1833
 4518TIP3    H135045   0.367   4.957  14.719  0.2553 -0.3225  0.4284
 4518TIP3    H235046   0.217   4.969  14.705 -0.0640 -1.9397  2.0118
 4519TIP3   OH235047   2.755   5.459  11.461  0.1932 -0.1687 -0.4229
 4519TIP3    H135048   2.767   5.380  11.408  0.1082 -0.4947  0.0386
 4519TIP3    H235049   2.812   5.524  11.421  0.7744 -0.6616 -0.4003
 4520TIP3   OH235050   2.909   6.184  16.622 -0.2128 -0.1199  0.2846
 4520TIP3    H135051   2.932   6.114  16.560  1.1268 -1.0278  1.7271
 4520TIP3    H235052   2.986   6.191  16.679 -0.4914  2.2741  0.4418
 4521TIP3   OH235053   6.268   3.216  15.749  0.0522 -0.0533  0.7735
 4521TIP3    H135054   6.254   3.122  15.734 -0.1588  0.0521  0.2608
 4521TIP3    H235055   6.194   3.243  15.802 -1.1526  0.2677 -0.9668
 4522TIP3   OH235056   4.394   0.995   2.514  0.0909  0.2136  0.2153
 4522TIP3    H135057   4.432   0.908   2.524  0.3214  0.3036  0.1390
 4522TIP3    H235058   4.379   1.005   2.420 -2.2107 -0.6888  0.4274
 4523TIP3   OH235059   3.463   3.427   2.572 -0.2616  0.1028 -0.5684
 4523TIP3    H135060   3.457   3.351   2.515  0.5696  0.9290 -1.8210
 4523TIP3    H235061   3.557   3.446   2.577 -0.3740  0.4143  0.5794
 4524TIP3   OH235062   5.421   4.058   3.726  0.1082  0.1813 -0.0362
 4524TIP3    H135063   5.399   4.068   3.634 -0.9087  1.5002  0.3204
 4524TIP3    H235064   5.392   3.969   3.749 -1.8438  0.6760 -0.4221
 4525TIP3   OH235065   0.218   2.807  11.979  0.1818  0.0393 -0.1476
 4525TIP3    H135066   0.178   2.823  12.064  0.4263 -0.6451  0.1020
 4525TIP3    H235067   0.283   2.876  11.969  0.1072  0.1580  0.1850
 4526TIP3   OH235068   2.736   3.307   4.363 -0.1627  0.3112 -0.1595
 4526TIP3    H135069   2.784   3.380   4.403 -1.4869  0.3146  1.5576
 4526TIP3    H235070   2.758   3.231   4.416 -1.1033  0.0747 -0.0953
 4527TIP3   OH235071   4.818   6.224   2.240  0.8335  0.5149 -0.0120
 4527TIP3    H135072   4.730   6.212   2.277  0.7712 -0.9161 -0.5506
 4527TIP3    H235073   4.840   6.315   2.259 -0.1687  0.4976  1.4217
 4528TIP3   OH235074   3.800   5.062  15.499 -0.1848 -0.7393  0.2381
 4528TIP3    H135075   3.731   5.037  15.561 -0.5480  0.6213  0.4013
 4528TIP3    H235076   3.870   4.999  15.515 -0.7969 -1.2330  1.0908
 4529TIP3   OH235077   0.526   1.149  12.632 -0.2276 -0.4617  0.2248
 4529TIP3    H135078   0.614   1.183  12.649 -0.5840  0.1336  0.9716
 4529TIP3    H235079   0.532   1.107  12.546  0.3423  1.1394 -0.5568
 4530TIP3   OH235080   5.221   4.939  14.929 -0.3531  0.3463 -0.0961
 4530TIP3    H135081   5.239   4.921  14.836 -0.0818  1.0834 -0.2001
 4530TIP3    H235082   5.126   4.943  14.934 -0.3921 -0.3114 -0.2158
 4531TIP3   OH235083   5.733   4.501   4.441 -0.1624  0.0469 -0.4673
 4531TIP3    H135084   5.821   4.538   4.441 -1.5044  3.9594  2.5107
 4531TIP3    H235085   5.737   4.430   4.505  0.7424  0.5551  0.0645
 4532TIP3   OH235086   4.461   0.726   1.524  0.2220  0.0273 -0.2942
 4532TIP3    H135087   4.386   0.786   1.517  0.0957  0.0094  0.7519
 4532TIP3    H235088   4.422   0.641   1.539  0.4508 -0.0146  0.0651
 4533TIP3   OH235089   3.733   3.349   0.327 -0.2285 -0.4252  0.1662
 4533TIP3    H135090   3.684   3.327   0.247 -0.6985 -1.1768  0.6386
 4533TIP3    H235091   3.681   3.418   0.368  0.5118  0.6262 -0.6334
 4534TIP3   OH235092   6.615   5.421   4.789  0.2594 -0.0420 -0.0692
 4534TIP3    H135093   6.563   5.365   4.846  1.1354 -1.9173 -1.0232
 4534TIP3    H235094   6.696   5.437   4.839  0.4849 -0.6074 -0.2412
 4535TIP3   OH235095   5.476   5.577   2.352 -1.0325 -0.3238 -0.1008
 4535TIP3    H135096   5.437   5.494   2.326  0.9807 -1.2352 -0.4118
 4535TIP3    H235097   5.513   5.612   2.271  1.9687 -1.3311  0.7114
 4536TIP3   OH235098   0.451   3.869   4.958 -0.4250 -0.1938 -0.1389
 4536TIP3    H135099   0.517   3.803   4.934  1.1154  1.5022 -0.8301
 4536TIP3    H235100   0.500   3.951   4.963 -2.4351  1.0896 -0.2770
 4537TIP3   OH235101   1.670   1.110   1.202 -0.1165 -0.2326 -0.4221
 4537TIP3    H135102   1.628   1.028   1.175  3.8243 -2.5440 -0.3677
 4537TIP3    H235103   1.668   1.107   1.297 -2.2977  1.1983 -0.3630
 4538TIP3   OH235104   3.606   2.143  16.894 -0.3305  0.0659 -0.5174
 4538TIP3    H135105   3.616   2.156  16.800  0.0104  1.4771 -0.3111
 4538TIP3    H235106   3.564   2.057  16.902 -2.6005  0.9289 -2.0665
 4539TIP3   OH235107   3.111   2.577   2.906 -0.6113 -0.8521  0.3228
 4539TIP3    H135108   3.078   2.513   2.968 -4.4876  0.5297 -0.0235
 4539TIP3    H235109   3.082   2.545   2.821  2.3059 -1.3594 -0.5821
 4540TIP3   OH235110   2.400   1.827   4.919  0.4813  0.4829  0.7719
 4540TIP3    H135111   2.349   1.752   4.949 -0.3296  0.0748 -1.4403
 4540TIP3    H235112   2.348   1.903   4.946 -0.6010  0.1115 -0.1713
 4541TIP3   OH235113   1.021   0.472   4.112 -0.0894  0.1578 -0.1871
 4541TIP3    H135114   1.000   0.524   4.035  0.7131 -0.2345 -0.6901
 4541TIP3    H235115   0.968   0.509   4.182  1.0313  2.1954 -0.3339
 4542TIP3   OH235116   5.134   3.147  15.810 -0.1963 -0.2845 -0.0569
 4542TIP3    H135117   5.078   3.217  15.842  1.3238  0.3001  1.5299
 4542TIP3    H235118   5.217   3.190  15.790  0.4025 -1.4411 -0.1533
 4543TIP3   OH235119   3.051   1.341  12.405 -0.2185  0.0004  0.9001
 4543TIP3    H135120   2.996   1.264  12.418 -3.6217  1.3357 -3.0633
 4543TIP3    H235121   3.010   1.409  12.459 -0.2578  0.1375  0.7009
 4544TIP3   OH235122   2.545   4.504  12.299  0.1308 -0.2552  0.5016
 4544TIP3    H135123   2.511   4.541  12.218  1.9503 -1.3035 -0.7871
 4544TIP3    H235124   2.613   4.565  12.326 -0.6093  0.2061  1.4074
 4545TIP3   OH235125   3.663   2.120   0.188 -0.2443  0.2308  0.1272
 4545TIP3    H135126   3.580   2.114   0.236 -0.2140  2.5886  0.6092
 4545TIP3    H235127   3.716   2.181   0.240  0.5612  1.2769 -1.8339
 4546TIP3   OH235128   0.593   4.550   6.078  0.3234 -0.5760 -0.1375
 4546TIP3    H135129   0.678   4.506   6.082 -0.1852 -1.5402  0.6077
 4546TIP3    H235130   0.529   4.478   6.082 -0.5499 -0.0237 -2.4296
 4547TIP3   OH235131   4.774   5.833  13.258 -0.1667 -0.2093 -0.4604
 4547TIP3    H135132   4.815   5.784  13.187  1.7050 -0.8716  0.9981
 4547TIP3    H235133   4.842   5.893  13.288 -0.2456 -1.1966  1.9220
 4548TIP3   OH235134   3.655   0.005   0.209  0.3701 -0.1778  0.0775
 4548TIP3    H135135   3.638  -0.080   0.250 -0.6743  0.1406  0.3298
 4548TIP3    H235136   3.571   0.051   0.214 -0.0339 -0.3765 -3.0068
 4549TIP3   OH235137   0.631   1.434  15.069  0.5446 -0.1215 -0.3344
 4549TIP3    H135138   0.573   1.506  15.092  0.8116 -0.0598  0.1731
 4549TIP3    H235139   0.614   1.367  15.136 -0.2755 -0.8656 -1.2589
 4550TIP3   OH235140   6.033   2.032  14.826  0.0130 -0.1736 -0.0585
 4550TIP3    H135141   6.009   2.104  14.769 -0.4618  1.3889  1.9811
 4550TIP3    H235142   6.128   2.025  14.818 -0.0187  0.2040 -0.7830
 4551TIP3   OH235143   5.354   5.781  14.389  0.1794  0.7022  0.0521
 4551TIP3    H135144   5.415   5.789  14.463  1.9156 -0.7583 -1.1102
 4551TIP3    H235145   5.298   5.707  14.413 -1.6469  2.4508  1.4083
 4552TIP3   OH235146   6.124   2.654   3.926  0.9622  0.1013 -0.3023
 4552TIP3    H135147   6.204   2.660   3.874  0.2715 -1.0251 -1.5747
 4552TIP3    H235148   6.151   2.675   4.015  2.6264 -0.0288 -0.7448
 4553TIP3   OH235149   4.483   6.633  16.267 -0.3824 -0.6007  0.1056
 4553TIP3    H135150   4.469   6.695  16.339 -0.2063  1.2226 -1.3563
 4553TIP3    H235151   4.400   6.633  16.219 -0.3593 -1.4737  0.0638
 4554TIP3   OH235152   1.798   0.745  12.550  0.0638  0.0958 -0.6359
 4554TIP3    H135153   1.813   0.658  12.511 -0.5772 -1.0978  1.5853
 4554TIP3    H235154   1.880   0.765  12.595 -0.1408  0.1550 -0.2870
 4555TIP3   OH235155   1.672   2.916  13.981 -0.3433  0.3259 -0.0026
 4555TIP3    H135156   1.577   2.925  13.986 -0.3427 -0.1831  1.1321
 4555TIP3    H235157   1.700   2.990  13.927 -1.3653  0.5383 -0.2720
 4556TIP3   OH235158   0.466   4.427  15.272  0.2800 -0.3551 -0.2863
 4556TIP3    H135159   0.451   4.333  15.264  0.2359 -0.2749 -1.3653
 4556TIP3    H235160   0.461   4.459  15.182 -1.2520  0.9179  0.2146
 4557TIP3   OH235161   3.611   0.257   5.238 -0.1017 -0.1528  0.1949
 4557TIP3    H135162   3.560   0.307   5.174  0.1280  1.2600  1.0797
 4557TIP3    H235163   3.693   0.238   5.193 -1.1754 -2.0687 -1.0850
 4558TIP3   OH235164   6.393   6.020  16.255  0.3568 -0.1681  0.3429
 4558TIP3    H135165   6.323   5.959  16.278  0.1419  0.2388  0.7754
 4558TIP3    H235166   6.403   6.077  16.332  0.3568  0.5240 -0.1557
 4559TIP3   OH235167   2.010   3.209  16.949 -0.3643 -0.7154 -0.1009
 4559TIP3    H135168   2.048   3.169  16.871  1.6588  0.4697  0.2082
 4559TIP3    H235169   2.008   3.303  16.929 -3.5814 -0.6906 -0.2220
 4560TIP3   OH235170   1.680   0.330  12.712 -0.1068  1.0558 -0.0045
 4560TIP3    H135171   1.656   0.285  12.793 -0.7810  0.1203 -0.6953
 4560TIP3    H235172   1.707   0.418  12.740  0.6301  0.4336  1.3155
 4561TIP3   OH235173   6.052   1.305   5.090 -0.6040  0.3873 -0.2244
 4561TIP3    H135174   6.055   1.400   5.080  1.4680  0.2623 -1.4989
 4561TIP3    H235175   6.141   1.281   5.115 -0.9103 -1.2957 -0.6306
 4562TIP3   OH235176   5.324   0.857  17.015 -0.7668  0.2441 -0.1001
 4562TIP3    H135177   5.377   0.896  16.946 -2.3015  0.8162 -0.9895
 4562TIP3    H235178   5.296   0.931  17.069 -2.7001  0.2700 -1.0964
 4563TIP3   OH235179   1.486   4.850   2.387  0.2185 -0.3590  0.0515
 4563TIP3    H135180   1.449   4.899   2.461 -0.9032 -1.9078  0.5704
 4563TIP3    H235181   1.461   4.759   2.404  0.8733 -0.8985 -1.6884
 4564TIP3   OH235182   2.951   2.515   3.276 -0.0637 -0.0059  0.0735
 4564TIP3    H135183   2.944   2.478   3.364 -0.1417  0.2376  0.1706
 4564TIP3    H235184   2.973   2.607   3.290  0.5649 -0.1111 -0.1764
 4565TIP3   OH235185   2.268   3.218  15.947 -0.2091  0.4632  0.8961
 4565TIP3    H135186   2.235   3.128  15.948 -1.9922  0.8866 -3.1987
 4565TIP3    H235187   2.200   3.269  15.905  1.9752  3.1910  0.3513
 4566TIP3   OH235188   0.660   2.499   4.336  0.6752  1.1736  0.1779
 4566TIP3    H135189   0.690   2.428   4.280  0.7206  1.4595 -0.1657
 4566TIP3    H235190   0.720   2.571   4.317 -2.2116  2.9993 -3.2035
 4567TIP3   OH235191   5.642   6.525  15.828  0.0818 -0.1567  0.1974
 4567TIP3    H135192   5.585   6.451  15.845 -0.9886  0.2126 -1.5016
 4567TIP3    H235193   5.694   6.498  15.752 -0.1717  0.7260 -0.3071
 4568TIP3   OH235194   0.159   0.832   1.114  0.6928 -0.0547 -0.3450
 4568TIP3    H135195   0.099   0.761   1.091 -0.5494 -0.1367  2.7275
 4568TIP3    H235196   0.143   0.899   1.047 -1.3371 -0.9091 -0.8111
 4569TIP3   OH235197   4.283   1.603  11.964  0.3631  0.1364  0.2312
 4569TIP3    H135198   4.318   1.691  11.951  0.5912  0.0223  0.0559
 4569TIP3    H235199   4.229   1.586  11.887  0.2097  0.1748  0.3305
 4570TIP3   OH235200   0.312   5.559  12.698 -0.3474 -0.5670  0.3309
 4570TIP3    H135201   0.225   5.536  12.666 -0.5621 -0.0290  0.5137
 4570TIP3    H235202   0.340   5.483  12.748 -0.2807 -1.1648 -0.5754
 4571TIP3   OH235203   0.810   1.920   0.940 -0.3663  0.1977 -0.1906
 4571TIP3    H135204   0.873   1.861   0.981 -0.5679  0.5062  0.5864
 4571TIP3    H235205   0.809   1.998   0.996 -0.7668  0.5718 -0.6986
 4572TIP3   OH235206   5.196   5.660   3.646 -1.1058 -0.3305  0.2550
 4572TIP3    H135207   5.219   5.750   3.626 -0.4593 -0.0439  2.0895
 4572TIP3    H235208   5.111   5.647   3.603 -0.3488  0.5038 -1.6143
 4573TIP3   OH235209   4.332   2.220  14.236  0.3164 -0.2288  0.0999
 4573TIP3    H135210   4.255   2.167  14.258 -1.3423  1.0438 -2.2731
 4573TIP3    H235211   4.356   2.192  14.147  2.3284 -0.2187  0.5867
 4574TIP3   OH235212   6.064   4.970   5.835  0.2141  0.0297 -0.1525
 4574TIP3    H135213   6.140   4.999   5.885  0.3258  0.9616 -0.8539
 4574TIP3    H235214   6.067   4.874   5.840  2.3864 -0.0302 -1.5706
 4575TIP3   OH235215   3.761   1.862  12.570 -0.4664 -0.4278 -0.3233
 4575TIP3    H135216   3.719   1.789  12.525 -0.7881 -1.2256  1.1961
 4575TIP3    H235217   3.695   1.931  12.572 -0.8090 -0.7566 -0.1955
 4576TIP3   OH235218   2.267   4.932   3.692 -0.2866 -0.1252  0.7500
 4576TIP3    H135219   2.252   5.001   3.756 -0.0369  1.0741 -0.4382
 4576TIP3    H235220   2.214   4.957   3.617  1.6981  0.1183 -0.6316
 4577TIP3   OH235221   5.123   1.236   2.957  0.2019 -0.0979 -0.5584
 4577TIP3    H135222   5.055   1.267   2.897  0.1772 -0.1794 -0.5716
 4577TIP3    H235223   5.190   1.199   2.900  0.8646  1.1546 -0.6401
 4578TIP3   OH235224   0.073   3.785  11.960  0.1372  0.2683  0.4883
 4578TIP3    H135225   0.028   3.788  12.044 -3.7473 -1.3741 -1.2663
 4578TIP3    H235226   0.053   3.869  11.919 -0.6381 -0.1330  0.0325
 4579TIP3   OH235227   3.112   2.583   0.714 -0.2586 -0.1339 -0.0195
 4579TIP3    H135228   3.157   2.590   0.798  0.1699  2.8337 -0.3741
 4579TIP3    H235229   3.182   2.590   0.649 -0.8921  1.2807 -0.5841
 4580TIP3   OH235230   2.590   1.403   5.621  0.1598 -0.2394  0.0937
 4580TIP3    H135231   2.673   1.386   5.577  0.0223  0.9243 -0.6659
 4580TIP3    H235232   2.609   1.474   5.683 -0.0360 -0.6848  0.6701
 4581TIP3   OH235233   5.844   0.487   4.362 -0.0020 -0.0156  0.1854
 4581TIP3    H135234   5.887   0.545   4.298  3.9470 -1.7237  0.9990
 4581TIP3    H235235   5.793   0.547   4.417  1.2601  2.2630 -0.9623
 4582TIP3   OH235236   2.328   2.161   1.050 -0.0201  0.3234 -0.1153
 4582TIP3    H135237   2.356   2.199   1.133 -0.0858  1.6801 -0.6841
 4582TIP3    H235238   2.242   2.201   1.034 -0.3641 -0.5353 -0.4565
 4583TIP3   OH235239   0.749   1.789  16.523 -0.3752 -0.8276 -0.0401
 4583TIP3    H135240   0.777   1.728  16.591 -0.4642 -0.2108  0.5512
 4583TIP3    H235241   0.750   1.875  16.565 -0.9380 -0.5046 -0.6662
 4584TIP3   OH235242   0.580   6.688  15.402 -0.5881 -0.6166  0.7799
 4584TIP3    H135243   0.543   6.608  15.366 -1.2880  0.3675 -0.7896
 4584TIP3    H235244   0.519   6.713  15.472 -0.8840 -0.9433  0.6417
 4585TIP3   OH235245   2.583   1.405  15.044 -0.0153 -0.2229  0.4036
 4585TIP3    H135246   2.492   1.393  15.017  0.1734 -1.8167  0.4272
 4585TIP3    H235247   2.633   1.347  14.986  0.8804 -0.1517  1.0869
 4586TIP3   OH235248   1.992   5.742   2.135  0.2897  0.6263 -0.2103
 4586TIP3    H135249   1.913   5.688   2.122  1.5645 -0.9889 -2.0025
 4586TIP3    H235250   2.002   5.747   2.230 -1.3635 -0.0272  0.0491
 4587TIP3   OH235251   5.425   5.133   4.220  0.7501  0.0157  0.4475
 4587TIP3    H135252   5.520   5.145   4.211  0.5691  2.5646  1.2371
 4587TIP3    H235253   5.388   5.214   4.187 -1.1109 -0.3604  1.4963
 4588TIP3   OH235254   5.453   0.470  16.159 -0.7137  0.3231  0.0995
 4588TIP3    H135255   5.481   0.501  16.073 -0.8681  0.9611  0.2701
 4588TIP3    H235256   5.405   0.390  16.141 -0.3719  0.2166 -0.3688
 4589TIP3   OH235257   4.313   0.291  13.208 -0.1249  0.2357  0.0542
 4589TIP3    H135258   4.231   0.301  13.160  0.5129  0.3822 -1.0281
 4589TIP3    H235259   4.340   0.201  13.189 -0.7270 -0.2966  1.5554
 4590TIP3   OH235260   5.845   6.099   1.968  0.0715 -0.1044  0.0278
 4590TIP3    H135261   5.832   6.004   1.963 -1.2778  0.0384  0.2766
 4590TIP3    H235262   5.790   6.134   1.898  0.6504  0.4936 -0.1387
 4591TIP3   OH235263   4.272   1.873   2.359  0.3819  0.0341  0.0370
 4591TIP3    H135264   4.301   1.946   2.304 -1.8002  0.4986 -0.6250
 4591TIP3    H235265   4.297   1.898   2.448  1.3940  0.6552 -0.4108
 4592TIP3   OH235266   6.674   6.464   1.778 -0.0585  0.4568 -0.4702
 4592TIP3    H135267   6.605   6.492   1.718 -0.0099  1.8350  0.0959
 4592TIP3    H235268   6.735   6.416   1.722 -1.1245 -0.2425 -1.0987
 4593TIP3   OH235269   2.835   0.773  12.987  0.2231 -0.8923  0.3957
 4593TIP3    H135270   2.800   0.817  12.910 -0.6041 -1.0501  0.6685
 4593TIP3    H235271   2.894   0.836  13.027  0.7517 -0.8551 -0.4357
 4594TIP3   OH235272   0.570   1.894  10.570  0.2602 -0.3035 -0.2928
 4594TIP3    H135273   0.545   1.929  10.485 -0.2642  1.6419  0.5840
 4594TIP3    H235274   0.637   1.956  10.603 -1.0800  0.2614  1.5593
 4595TIP3   OH235275   1.003   5.734   3.523  0.2345  0.3598 -0.0053
 4595TIP3    H135276   0.953   5.811   3.494  1.0959  1.0229  0.2372
 4595TIP3    H235277   1.081   5.770   3.563 -0.1174 -0.6067  1.6149
 4596TIP3   OH235278   0.710   3.970  11.325 -0.3431 -0.4717 -0.2794
 4596TIP3    H135279   0.651   3.990  11.253 -0.3062 -1.0028 -0.4610
 4596TIP3    H235280   0.742   3.881  11.306  0.2899 -0.3042 -0.0394
 4597TIP3   OH235281   4.384   3.834   0.391  0.0756 -0.0049  0.9325
 4597TIP3    H135282   4.478   3.817   0.401 -0.2769 -1.9250  1.4082
 4597TIP3    H235283   4.348   3.752   0.356 -1.5185  0.4460  1.4199
 4598TIP3   OH235284   4.900   6.064   5.289  0.0799  0.2150  0.0083
 4598TIP3    H135285   4.822   6.055   5.235  0.6528 -2.7898 -0.4883
 4598TIP3    H235286   4.877   6.025   5.373  0.9730 -0.5009 -0.0682
 4599TIP3   OH235287   0.741   4.357  16.227 -0.0392  0.6222 -0.3926
 4599TIP3    H135288   0.725   4.268  16.258 -0.4303  0.5201 -0.8567
 4599TIP3    H235289   0.653   4.393  16.213  0.0399  1.8602  1.8687
 4600TIP3   OH235290   5.716   0.274   2.437 -0.0597 -0.3337  0.3101
 4600TIP3    H135291   5.635   0.306   2.398 -0.1053 -1.0515 -0.1988
 4600TIP3    H235292   5.709   0.296   2.530  0.3723  2.0652 -0.1691
 4601TIP3   OH235293   1.768   5.189   1.295 -0.6744 -0.4607 -0.1986
 4601TIP3    H135294   1.704   5.256   1.271 -0.1812 -0.8288 -2.8059
 4601TIP3    H235295   1.720   5.128   1.351 -1.2284  1.8038  1.9898
 4602TIP3   OH235296   0.752   4.860  15.718 -0.4499  0.1231 -0.5778
 4602TIP3    H135297   0.785   4.820  15.798  1.1915  0.4262 -1.0752
 4602TIP3    H235298   0.826   4.856  15.657 -1.1810  1.2970 -1.5753
 4603TIP3   OH235299   1.559   6.045   2.987  0.2377  0.4651  0.0717
 4603TIP3    H135300   1.514   6.080   2.910 -2.6227 -4.0792 -0.6907
 4603TIP3    H235301   1.627   5.988   2.951  0.8988  0.6240  1.0308
 4604TIP3   OH235302   3.424   5.472   5.960 -0.4912 -0.2015 -0.0793
 4604TIP3    H135303   3.394   5.382   5.946 -0.0693 -0.2300 -0.8312
 4604TIP3    H235304   3.343   5.523   5.964 -0.7590  0.0383 -4.1339
 4605TIP3   OH235305   1.327   3.253   1.217  0.4747 -0.0917  0.0128
 4605TIP3    H135306   1.392   3.251   1.147 -0.7317 -0.1190 -1.1517
 4605TIP3    H235307   1.346   3.332   1.267  1.0529  0.1901 -0.6536
 4606TIP3   OH235308   2.934   3.303   4.851  0.4984  0.6503  0.4208
 4606TIP3    H135309   2.885   3.282   4.930 -0.6027  2.6344  0.3179
 4606TIP3    H235310   2.987   3.379   4.874  1.7582 -0.0038 -0.1794
 4607TIP3   OH235311   4.872   6.652  14.904 -0.2562 -0.6226  0.0490
 4607TIP3    H135312   4.816   6.726  14.928  1.1431  0.9031 -1.1098
 4607TIP3    H235313   4.841   6.625  14.817  0.8045  0.2964 -0.6434
 4608TIP3   OH235314   2.083   1.179  12.267  0.4073 -0.1987  0.5362
 4608TIP3    H135315   2.156   1.206  12.323  0.3715  2.0080 -0.3879
 4608TIP3    H235316   2.123   1.131  12.195  0.5461 -2.1589  1.8378
 4609TIP3   OH235317   6.082   4.092  16.173  0.0261 -0.1888 -0.0706
 4609TIP3    H135318   6.160   4.042  16.148  0.4723 -0.1668  1.2091
 4609TIP3    H235319   6.012   4.027  16.176  0.0774 -0.2852 -0.8080
 4610TIP3   OH235320   0.530   2.158   0.443  0.0976 -0.1602  0.2411
 4610TIP3    H135321   0.597   2.211   0.399  0.3671 -0.4037  0.3512
 4610TIP3    H235322   0.560   2.152   0.533  0.6255 -1.3634  0.0059
 4611TIP3   OH235323   1.317   5.451  15.519  0.0825 -0.1324 -0.4836
 4611TIP3    H135324   1.294   5.543  15.504  1.0770 -0.0876 -1.9329
 4611TIP3    H235325   1.284   5.405  15.443  0.9631 -0.7231 -0.5290
 4612TIP3   OH235326   3.148   6.165  17.177 -0.2048 -0.6132  0.5150
 4612TIP3    H135327   3.111   6.149  17.090  0.5999 -1.4968  0.3098
 4612TIP3    H235328   3.081   6.133  17.237 -0.5502 -0.4874  0.2023
 4613TIP3   OH235329   5.712   0.713   1.300  0.0495 -0.1198  0.0630
 4613TIP3    H135330   5.738   0.783   1.241  1.3927 -1.4224 -0.9629
 4613TIP3    H235331   5.720   0.751   1.388  1.9465  0.6670 -0.4108
 4614TIP3   OH235332   3.297   6.504  11.528  0.7862 -0.0607 -0.0299
 4614TIP3    H135333   3.303   6.415  11.493 -0.4377 -0.2645  0.2317
 4614TIP3    H235334   3.237   6.549  11.468  0.5827  0.2814  0.4265
 4615TIP3   OH235335   5.966   1.957   4.674 -0.4412  0.6553 -0.7961
 4615TIP3    H135336   6.004   1.993   4.754  0.2761 -2.9645  0.6884
 4615TIP3    H235337   6.040   1.917   4.628 -1.3144  0.0620 -1.7228
 4616TIP3   OH235338   5.213   6.831  16.040  0.3843  0.3364 -0.0804
 4616TIP3    H135339   5.215   6.844  15.945 -0.2583 -0.0810 -0.1624
 4616TIP3    H235340   5.124   6.857  16.065  1.0832  2.1674  0.6851
 4617TIP3   OH235341   2.860   6.402  14.712  0.1583 -0.0489  0.0315
 4617TIP3    H135342   2.903   6.483  14.739  1.9496 -1.2265  0.9399
 4617TIP3    H235343   2.857   6.406  14.617  0.6751  0.8569  0.0476
 4618TIP3   OH235344   5.761   1.468   1.442  0.0296 -0.1092 -0.4168
 4618TIP3    H135345   5.764   1.544   1.384 -1.5897  0.6823  0.4490
 4618TIP3    H235346   5.676   1.427   1.424 -1.0255  0.7615  2.0227
 4619TIP3   OH235347   4.787   4.181  16.214  0.3216  0.3653  0.2885
 4619TIP3    H135348   4.704   4.133  16.211  1.3842 -1.4849 -1.5463
 4619TIP3    H235349   4.821   4.165  16.302 -0.1611 -0.8815  0.2658
 4620TIP3   OH235350   6.132   3.625   0.611 -0.1042 -0.4963  0.2137
 4620TIP3    H135351   6.105   3.714   0.587  0.0429 -0.9857 -1.9827
 4620TIP3    H235352   6.225   3.622   0.592 -0.8226 -2.3186 -4.2511
 4621TIP3   OH235353   2.242   5.060  13.523 -0.1602 -0.7228 -0.3527
 4621TIP3    H135354   2.233   5.150  13.555  0.4145 -0.9894  0.5819
 4621TIP3    H235355   2.210   5.006  13.595 -1.1014 -1.2556 -1.1505
 4622TIP3   OH235356   4.814   2.635   4.473  0.0281 -0.0355  0.4781
 4622TIP3    H135357   4.851   2.676   4.551 -0.5667 -0.4788  0.9951
 4622TIP3    H235358   4.873   2.663   4.402  0.7712  0.0893  1.1249
 4623TIP3   OH235359   5.240   0.307   2.186 -0.0042 -0.1745  0.3226
 4623TIP3    H135360   5.166   0.316   2.246  1.5612 -0.8542  2.4256
 4623TIP3    H235361   5.222   0.226   2.137 -1.5792  0.6982 -0.6423
 4624TIP3   OH235362   2.625   4.867  10.718  0.1087  1.1463 -0.6794
 4624TIP3    H135363   2.549   4.810  10.703 -0.2627  1.4193  0.1248
 4624TIP3    H235364   2.589   4.944  10.760  0.7606  1.5385 -0.8366
 4625TIP3   OH235365   5.234   1.243   2.302 -0.2483 -0.2321 -0.3083
 4625TIP3    H135366   5.157   1.299   2.296  0.5861  1.3197  2.1658
 4625TIP3    H235367   5.206   1.160   2.263 -3.3322  0.1060  0.8944
 4626TIP3   OH235368   3.165   2.437  11.723 -0.1079  0.1332 -0.3530
 4626TIP3    H135369   3.131   2.464  11.809  1.8698  0.7202  0.2961
 4626TIP3    H235370   3.212   2.513  11.691  2.5605 -1.2873 -0.1025
 4627TIP3   OH235371   5.717   1.647  13.737  0.2384  0.2838  0.4136
 4627TIP3    H135372   5.678   1.581  13.679  1.3290  0.1725 -0.2147
 4627TIP3    H235373   5.729   1.601  13.821 -1.1195  0.3746  0.6825
 4628TIP3   OH235374   2.519   3.232  12.142  0.7670 -0.2600  0.9189
 4628TIP3    H135375   2.555   3.317  12.114 -0.0703 -0.2900 -0.3308
 4628TIP3    H235376   2.530   3.175  12.066 -0.5847 -0.6722  1.0060
 4629TIP3   OH235377   2.731   0.729  14.621  0.2444 -0.0657  0.0838
 4629TIP3    H135378   2.679   0.786  14.678  3.0781  0.6321  2.1562
 4629TIP3    H235379   2.704   0.641  14.644  0.8302  0.2339  2.0282
 4630TIP3   OH235380   5.744   4.904   6.456  0.6577 -0.1550 -0.1463
 4630TIP3    H135381   5.727   4.810   6.446  2.3840 -0.5380  0.1636
 4630TIP3    H235382   5.715   4.924   6.546 -1.1908 -0.0013 -0.7420
 4631TIP3   OH235383   2.113   3.540   3.654  0.2447 -0.3260 -0.2619
 4631TIP3    H135384   2.142   3.459   3.696  1.9485  0.2409 -0.2347
 4631TIP3    H235385   2.125   3.525   3.561 -1.6795 -0.8952 -0.4577
 4632TIP3   OH235386   5.572   5.631  14.800 -0.7386 -0.3041 -0.6063
 4632TIP3    H135387   5.661   5.611  14.772 -0.1304  0.8565  0.3883
 4632TIP3    H235388   5.536   5.547  14.828  0.4782 -0.6054  0.1380
 4633TIP3   OH235389   6.791   1.411  14.994 -0.2785  0.0239 -0.3613
 4633TIP3    H135390   6.867   1.468  15.008 -1.7388  1.5608  2.1718
 4633TIP3    H235391   6.726   1.468  14.952 -1.1520 -0.2431  0.5855
 4634TIP3   OH235392   0.105   4.145  15.452  0.5272 -0.1609 -0.3370
 4634TIP3    H135393   0.047   4.122  15.524 -0.6794 -1.3997 -1.6336
 4634TIP3    H235394   0.157   4.218  15.485 -1.7360  0.9978  0.9149
 4635TIP3   OH235395   2.362   3.757  12.846  0.4367  0.1040 -0.1017
 4635TIP3    H135396   2.375   3.669  12.882  1.1310  0.7857  1.3956
 4635TIP3    H235397   2.273   3.781  12.870  0.3542 -0.0616 -0.2391
 4636TIP3   OH235398   0.570   6.117  16.831  0.2414  0.0499 -0.3782
 4636TIP3    H135399   0.569   6.025  16.858 -1.4663 -0.4182 -1.8771
 4636TIP3    H235400   0.639   6.121  16.764  2.5476  0.6269  1.8637
 4637TIP3   OH235401   1.736   2.677  13.369 -0.2612 -0.6574  0.2084
 4637TIP3    H135402   1.793   2.744  13.407  0.3541 -1.5597  0.9072
 4637TIP3    H235403   1.709   2.714  13.285  2.2273 -0.6370 -0.6718
 4638TIP3   OH235404   0.800   4.841   2.517 -0.1109 -0.1724  0.1340
 4638TIP3    H135405   0.851   4.828   2.598  0.5382 -1.4845 -0.4429
 4638TIP3    H235406   0.860   4.888   2.458  0.0470 -0.7350 -0.1624
 4639TIP3   OH235407   3.424   5.516  13.485 -0.8663  0.6294  0.2392
 4639TIP3    H135408   3.392   5.594  13.439 -2.6764 -0.5539 -0.6302
 4639TIP3    H235409   3.452   5.457  13.415  2.1374  1.0733  0.9393
 4640TIP3   OH235410   3.369   2.357  11.526  0.2669  0.2295 -0.0160
 4640TIP3    H135411   3.408   2.411  11.457  4.3005 -0.3039  1.5285
 4640TIP3    H235412   3.290   2.403  11.552 -0.0294  1.7698 -3.1799
 4641TIP3   OH235413   4.467   1.754   6.639  0.8133 -0.5041  0.4972
 4641TIP3    H135414   4.427   1.667   6.639  1.3811 -0.8208 -2.1046
 4641TIP3    H235415   4.537   1.749   6.574  0.7401  1.9741  0.1408
 4642TIP3   OH235416   1.055   4.544   1.546 -0.0123  0.3598 -0.0390
 4642TIP3    H135417   1.127   4.554   1.483 -1.6268  1.9665 -1.7613
 4642TIP3    H235418   1.074   4.461   1.590  1.4014 -0.7123 -2.4150
 4643TIP3   OH235419   5.866   6.375   3.401 -0.7012 -0.1106  0.1027
 4643TIP3    H135420   5.879   6.469   3.385 -1.8535  0.0371 -0.0800
 4643TIP3    H235421   5.954   6.338   3.400 -0.1949  1.0230  0.5295
 4644TIP3   OH235422   5.881   2.554   4.735 -0.1138 -0.2809 -0.1095
 4644TIP3    H135423   5.822   2.547   4.810  0.7688  1.1116  0.7652
 4644TIP3    H235424   5.965   2.521   4.766 -0.0012 -0.6917 -0.8248
 4645TIP3   OH235425   4.301   0.484   3.029 -0.2793 -0.1353  0.3365
 4645TIP3    H135426   4.327   0.569   3.064 -1.1020  0.1848  0.1756
 4645TIP3    H235427   4.222   0.461   3.077 -0.8799 -0.1369 -0.6269
 4646TIP3   OH235428   5.701   2.891  11.940  0.0265  0.2428 -0.6170
 4646TIP3    H135429   5.717   2.900  11.846  0.0573 -0.3728 -0.6758
 4646TIP3    H235430   5.636   2.820  11.946 -0.2980  0.5727 -0.1991
 4647TIP3   OH235431   5.660   3.661   4.494  0.3644 -0.3905  0.6120
 4647TIP3    H135432   5.650   3.692   4.584 -0.1424  1.2286  0.0321
 4647TIP3    H235433   5.685   3.569   4.503 -0.9683 -0.6355  2.3843
 4648TIP3   OH235434   2.378   1.165   2.680  0.5319  0.3648  0.3968
 4648TIP3    H135435   2.372   1.241   2.622 -1.4083 -0.8234 -1.1357
 4648TIP3    H235436   2.347   1.197   2.764  2.9931  2.0379  0.7726
 4649TIP3   OH235437   0.611   4.610  15.411  0.1395  0.1987 -0.2192
 4649TIP3    H135438   0.701   4.581  15.429  0.0889  0.6098  0.7091
 4649TIP3    H235439   0.567   4.532  15.377  0.6526 -0.1864 -0.0071
 4650TIP3   OH235440   0.616   0.254  14.601  0.3283 -0.1765  0.2331
 4650TIP3    H135441   0.544   0.271  14.541 -0.7099  0.1146  1.5157
 4650TIP3    H235442   0.685   0.216  14.546 -1.5179 -2.4092 -0.7256
 4651TIP3   OH235443   3.080   1.434   4.486  0.2385  0.0700 -0.1660
 4651TIP3    H135444   3.102   1.478   4.403  0.3908  1.7896  0.7515
 4651TIP3    H235445   3.135   1.355   4.486 -1.8742 -1.5811 -3.0144
 4652TIP3   OH235446   0.333   2.233  11.262 -0.6344  0.2017  0.5809
 4652TIP3    H135447   0.391   2.298  11.223  0.4448 -0.9700  0.1840
 4652TIP3    H235448   0.350   2.240  11.356  0.6071 -0.5450  0.4221
 4653TIP3   OH235449   4.121   1.453   5.329 -0.2327  0.2293  0.5329
 4653TIP3    H135450   4.122   1.540   5.368 -0.1097  0.1806  0.6375
 4653TIP3    H235451   4.201   1.411   5.361  0.4367  0.5723 -0.6351
 4654TIP3   OH235452   6.711   1.842   3.773 -0.0332  0.1759 -0.8121
 4654TIP3    H135453   6.773   1.881   3.711  0.1102 -0.7196 -1.2471
 4654TIP3    H235454   6.736   1.749   3.776 -1.8264 -0.3585 -1.5609
 4655TIP3   OH235455   3.742   5.932  11.900  0.3546  0.2487 -0.3502
 4655TIP3    H135456   3.816   5.872  11.895  0.1731 -0.0354  0.2930
 4655TIP3    H235457   3.760   5.986  11.977 -1.4379 -1.6426  1.4973
 4656TIP3   OH235458   2.739   5.051  12.966 -0.1666  0.0890 -0.0605
 4656TIP3    H135459   2.830   5.038  12.941 -0.2154  0.4638 -0.4408
 4656TIP3    H235460   2.743   5.074  13.059  0.1327  0.1979 -0.1002
 4657TIP3   OH235461   4.745   2.373  11.473 -0.3821 -0.4984 -0.0932
 4657TIP3    H135462   4.790   2.318  11.537 -0.6852 -1.1559 -0.4369
 4657TIP3    H235463   4.779   2.461  11.489  3.3321 -1.3067 -2.2400
 4658TIP3   OH235464   1.303   0.356  16.367 -0.0108 -0.4316  0.6745
 4658TIP3    H135465   1.393   0.331  16.346 -0.6561 -1.1312 -1.5617
 4658TIP3    H235466   1.258   0.272  16.379 -0.4777 -0.1015  1.2557
 4659TIP3   OH235467   6.663   1.629   4.137  0.0376 -0.1817  0.5959
 4659TIP3    H135468   6.619   1.584   4.065  1.0112  0.4029 -0.3917
 4659TIP3    H235469   6.621   1.715   4.140  0.3619 -0.0161  0.3769
 4660TIP3   OH235470   5.269   2.874  14.378  0.4798  0.0681  0.2840
 4660TIP3    H135471   5.303   2.887  14.289 -0.8076  1.1460 -0.0767
 4660TIP3    H235472   5.176   2.854  14.366  0.3379 -0.0023  1.3808
 4661TIP3   OH235473   5.953   5.013  14.657  0.2138 -0.1996 -0.0890
 4661TIP3    H135474   5.921   5.031  14.568 -0.5716  0.3749  0.2977
 4661TIP3    H235475   5.907   5.077  14.712  0.1405 -1.0262  0.8274
 4662TIP3   OH235476   1.793   3.644   0.112  0.3401 -0.0934 -0.1011
 4662TIP3    H135477   1.863   3.580   0.101  1.6880  1.3540 -0.2258
 4662TIP3    H235478   1.795   3.697   0.033 -0.9124 -0.0133 -0.1080
 4663TIP3   OH235479   0.610   2.353  17.059  0.1145 -0.0578  0.3084
 4663TIP3    H135480   0.588   2.339  17.151  0.3484 -2.1350  0.0989
 4663TIP3    H235481   0.706   2.361  17.059  0.1115 -0.0238  0.2560
 4664TIP3   OH235482   0.781   6.071  13.393  0.1928 -0.2120  0.0521
 4664TIP3    H135483   0.785   6.137  13.324 -2.2913 -0.0675 -0.0594
 4664TIP3    H235484   0.737   5.996  13.352  0.8173 -1.0285  0.8342
 4665TIP3   OH235485   5.274   2.481  15.933  0.6171  0.3347  0.0359
 4665TIP3    H135486   5.198   2.468  15.876  1.0349  0.5938 -0.5962
 4665TIP3    H235487   5.237   2.494  16.020 -0.0792  0.7352 -0.3108
 4666TIP3   OH235488   5.152   6.402   0.866 -0.2432  0.1243 -0.0981
 4666TIP3    H135489   5.113   6.403   0.954 -0.2981  0.2988 -0.1239
 4666TIP3    H235490   5.080   6.423   0.807  0.0297  1.1821 -0.0840
 4667TIP3   OH235491   6.350   0.133   3.972  0.1676 -0.3839 -0.0531
 4667TIP3    H135492   6.288   0.146   4.043 -0.4814 -0.0470 -0.6761
 4667TIP3    H235493   6.400   0.056   3.999 -0.2428 -0.4204  0.6401
 4668TIP3   OH235494   5.449   3.163  11.147 -0.3423  0.0856 -0.3574
 4668TIP3    H135495   5.454   3.246  11.100 -0.0946  0.3859  0.1856
 4668TIP3    H235496   5.534   3.122  11.131 -0.6397 -0.2918 -1.0232
 4669TIP3   OH235497   2.722   3.595  12.999 -0.3884 -0.3668 -0.0388
 4669TIP3    H135498   2.779   3.592  12.923 -0.8132  0.6314 -0.4181
 4669TIP3    H235499   2.736   3.511  13.044 -0.9324 -1.4268 -1.7786
 4670TIP3   OH235500   1.111   4.641   1.819  0.2668 -0.6160 -0.4224
 4670TIP3    H135501   1.130   4.626   1.726  2.5742 -0.7271  0.0297
 4670TIP3    H235502   1.122   4.735   1.831  1.5927 -0.8124  0.0476
 4671TIP3   OH235503   6.041   3.486   5.740  0.0434 -0.0679  0.0146
 4671TIP3    H135504   6.116   3.541   5.718 -0.2389  0.2564 -0.1467
 4671TIP3    H235505   6.044   3.414   5.677 -0.0280  0.1740 -0.2640
 4672TIP3   OH235506   1.887   5.929   1.156  0.5065  0.0728 -0.5069
 4672TIP3    H135507   1.934   5.900   1.077 -1.3463 -3.1193 -0.6249
 4672TIP3    H235508   1.815   5.982   1.122  0.2477 -0.5338 -0.9389
 4673TIP3   OH235509   5.198   5.080  12.822  0.2719  0.0721  0.2874
 4673TIP3    H135510   5.124   5.137  12.842  1.0798  0.4129  2.6233
 4673TIP3    H235511   5.223   5.102  12.733 -1.2410  1.3060  0.1331
 4674TIP3   OH235512   1.797   1.016   2.005 -0.6679  0.4722 -0.1341
 4674TIP3    H135513   1.793   0.926   2.037 -1.0705  0.7758  0.7092
 4674TIP3    H235514   1.884   1.024   1.967 -1.3681 -0.8848 -2.1458
 4675TIP3   OH235515   0.383   2.592   6.040  0.0339 -0.7820 -0.1033
 4675TIP3    H135516   0.397   2.687   6.047  0.8090 -1.0078  2.1020
 4675TIP3    H235517   0.471   2.556   6.030 -0.3056 -1.2817 -1.7563
 4676TIP3   OH235518   4.759   4.077  13.078  0.7620  0.0387  0.2590
 4676TIP3    H135519   4.710   4.074  13.160  0.3408 -1.3188 -0.0100
 4676TIP3    H235520   4.849   4.098  13.104  0.9078 -1.5854  1.2379
 4677TIP3   OH235521   3.980   0.390  17.003 -0.1762 -0.1532 -0.1318
 4677TIP3    H135522   3.906   0.333  17.023 -0.5739  0.4620  0.1765
 4677TIP3    H235523   3.984   0.392  16.908 -2.2797  1.9611 -0.2568
 4678TIP3   OH235524   6.046   4.465   2.283 -0.2678  0.1415 -0.5460
 4678TIP3    H135525   5.978   4.466   2.351 -0.6298  1.6044 -0.8896
 4678TIP3    H235526   6.007   4.512   2.209  1.2299  1.3663 -0.6212
 4679TIP3   OH235527   3.689   6.163  11.630  0.1044 -0.4883  0.0208
 4679TIP3    H135528   3.630   6.097  11.592 -0.8610 -1.2713  2.6791
 4679TIP3    H235529   3.772   6.149  11.585 -0.4338 -2.6543 -0.4089
 4680TIP3   OH235530   0.807   5.264   0.243 -0.3170  0.0974  0.1227
 4680TIP3    H135531   0.832   5.271   0.335 -0.9312 -0.5307  0.3515
 4680TIP3    H235532   0.889   5.271   0.194 -0.0538  1.1049  0.6701
 4681TIP3   OH235533   5.879   1.423  13.868  0.2777 -0.4498 -0.1908
 4681TIP3    H135534   5.806   1.397  13.925  0.4326 -1.9316 -0.6228
 4681TIP3    H235535   5.945   1.458  13.928 -1.2364  2.1194  0.0924
 4682TIP3   OH235536   4.927   6.773  12.762  0.2342 -0.4572 -0.0352
 4682TIP3    H135537   4.965   6.860  12.753  0.8718 -0.6494  0.7407
 4682TIP3    H235538   4.834   6.786  12.743 -0.0081  0.7297  1.7391
 4683TIP3   OH235539   0.636   5.439  14.924  0.0633 -0.3180 -0.7063
 4683TIP3    H135540   0.553   5.436  14.875 -0.3163 -1.1672 -0.0411
 4683TIP3    H235541   0.681   5.358  14.898  0.7249  0.1775 -1.1182
 4684TIP3   OH235542   5.520   2.453   2.711 -0.4248 -0.5331  0.3753
 4684TIP3    H135543   5.475   2.391   2.769 -1.4542  0.6282  0.8667
 4684TIP3    H235544   5.556   2.519   2.770 -1.9244  0.9443 -0.2857
 4685TIP3   OH235545   0.159   4.198   2.536  0.9417  0.2173 -0.1006
 4685TIP3    H135546   0.246   4.223   2.566  1.1089  0.5058 -0.8143
 4685TIP3    H235547   0.125   4.142   2.606  2.2755 -1.1230 -0.4652
 4686TIP3   OH235548   1.261   1.414   5.568 -0.5548 -0.0760 -0.0328
 4686TIP3    H135549   1.260   1.383   5.658  2.7072 -0.0569  0.1225
 4686TIP3    H235550   1.263   1.510   5.576  1.2487 -0.0770  0.0220
 4687TIP3   OH235551   4.742   4.577  16.377  0.3292 -0.2544  0.5374
 4687TIP3    H135552   4.732   4.490  16.339  1.2404 -0.4139  0.6214
 4687TIP3    H235553   4.759   4.634  16.303  1.6333 -0.4856  0.6318
 4688TIP3   OH235554   5.907   4.789  16.523 -0.1281  0.5368  0.3954
 4688TIP3    H135555   5.989   4.824  16.486 -0.3411  1.0389  0.3948
 4688TIP3    H235556   5.868   4.740  16.451  0.0960  0.4289  0.3471
 4689TIP3   OH235557   5.001   0.958   3.496 -0.7405 -0.2516 -0.0250
 4689TIP3    H135558   4.935   0.897   3.465 -1.0272 -0.2263  0.5241
 4689TIP3    H235559   5.021   1.014   3.421 -0.5079 -0.9918 -0.5161
 4690TIP3   OH235560   4.261   5.984   2.474  0.0732  0.3314  0.2478
 4690TIP3    H135561   4.309   6.066   2.488 -0.1211  1.0603 -2.6874
 4690TIP3    H235562   4.325   5.926   2.434 -0.6921  0.2849 -0.9401
 4691TIP3   OH235563   0.601   6.633   5.752  0.4532  0.1100  0.0405
 4691TIP3    H135564   0.546   6.709   5.768  1.5449  0.7280  1.1356
 4691TIP3    H235565   0.650   6.622   5.834  1.9275 -0.3995 -0.8593
 4692TIP3   OH235566   5.632   2.185  13.926 -0.4651 -0.9129  0.3937
 4692TIP3    H135567   5.628   2.235  13.844  0.6476 -1.0619  0.2252
 4692TIP3    H235568   5.561   2.220  13.979  0.3457  0.9449  0.3298
 4693TIP3   OH235569   2.432   0.586   0.199  0.1046  0.1766 -0.3690
 4693TIP3    H135570   2.467   0.534   0.126 -0.2426 -0.0840 -0.3510
 4693TIP3    H235571   2.507   0.636   0.230  0.2559  0.2915 -0.9082
 4694TIP3   OH235572   2.144   2.146  14.352 -0.2019  0.2801 -0.2874
 4694TIP3    H135573   2.223   2.184  14.389 -0.2788 -0.6353  0.8591
 4694TIP3    H235574   2.154   2.157  14.257  0.7143  1.2780 -0.0859
 4695TIP3   OH235575   4.474   6.677  13.265  0.1268  0.3315 -0.3566
 4695TIP3    H135576   4.442   6.616  13.330 -0.1745  0.4773 -0.3675
 4695TIP3    H235577   4.566   6.654  13.254  0.0727  0.0321 -0.1918
 4696TIP3   OH235578   3.404   3.110  14.480  0.0640 -0.1542 -0.4049
 4696TIP3    H135579   3.378   3.045  14.415  0.2295 -0.7482  0.1122
 4696TIP3    H235580   3.440   3.059  14.552 -0.3957  0.4727  0.2912
 4697TIP3   OH235581   5.862   2.856  16.458  0.1003 -0.4691 -0.1480
 4697TIP3    H135582   5.950   2.892  16.448  0.1236 -0.2250  0.8063
 4697TIP3    H235583   5.816   2.920  16.513 -0.2076 -1.3113  0.6094
 4698TIP3   OH235584   6.628   2.863  16.392 -0.1063 -0.3431  0.5973
 4698TIP3    H135585   6.639   2.775  16.354 -0.0017 -0.1197  0.0997
 4698TIP3    H235586   6.535   2.867  16.415 -0.2543 -0.3522  0.0164
 4699TIP3   OH235587   6.684   1.473   6.580  0.0458  0.4919  0.6703
 4699TIP3    H135588   6.704   1.439   6.493 -0.4199  0.4196  0.5941
 4699TIP3    H235589   6.757   1.532   6.600  0.2746  0.3219  0.3343
 4700TIP3   OH235590   4.508   5.934   0.985 -0.2641 -0.5331  0.2471
 4700TIP3    H135591   4.434   5.874   0.991 -1.4448  0.5851 -1.8990
 4700TIP3    H235592   4.486   6.005   1.045 -0.9276 -0.2503 -0.3142
 4701TIP3   OH235593   4.925   1.577   2.467 -0.3434  0.3178 -0.1422
 4701TIP3    H135594   4.927   1.656   2.413 -0.3734  0.2974 -0.1732
 4701TIP3    H235595   4.926   1.610   2.557 -1.5653  0.4021 -0.1379
 4702TIP3   OH235596   5.582   5.382   3.202  0.3490 -0.5309 -0.3528
 4702TIP3    H135597   5.515   5.450   3.206  0.5327 -0.3883  0.3236
 4702TIP3    H235598   5.534   5.300   3.212  0.4769 -0.3420  2.5680
 4703TIP3   OH235599   1.644   4.018  14.186 -0.2134  0.1782 -0.0403
 4703TIP3    H135600   1.563   3.989  14.143 -0.2782  0.1093  0.1266
 4703TIP3    H235601   1.683   4.080  14.124 -1.9829  2.7124  1.1940
 4704TIP3   OH235602   4.937   6.289  14.284 -0.1328  0.0937  0.1985
 4704TIP3    H135603   4.920   6.382  14.272  0.9579  0.4972  1.5172
 4704TIP3    H235604   5.030   6.284  14.306 -0.2030 -1.2925  0.2928
 4705TIP3   OH235605   2.962   6.069  14.995  0.1350 -0.1519  0.5295
 4705TIP3    H135606   3.051   6.052  14.964  0.7907 -0.2749  2.3809
 4705TIP3    H235607   2.906   6.022  14.933  0.8888  3.5629 -3.5622
 4706TIP3   OH235608   5.449   4.095  11.876 -0.1004 -0.0949 -0.0703
 4706TIP3    H135609   5.406   4.014  11.900 -0.1337 -0.8907 -2.5159
 4706TIP3    H235610   5.539   4.086  11.909 -1.0834  0.6968  3.2114
 4707TIP3   OH235611   5.349   6.703  13.682 -0.1735  0.3723  0.3315
 4707TIP3    H135612   5.279   6.702  13.747  0.1391  2.7999  0.8142
 4707TIP3    H235613   5.304   6.713  13.598 -0.5451 -2.1218  0.1696
 4708TIP3   OH235614   4.176   0.111  16.436  0.6104 -0.0848  0.1472
 4708TIP3    H135615   4.188   0.196  16.394  1.3654 -0.7288 -1.0031
 4708TIP3    H235616   4.246   0.106  16.502 -0.7916  1.0756  1.8052
 4709TIP3   OH235617   2.918   0.544   1.967  0.3008 -0.6307 -0.0165
 4709TIP3    H135618   2.871   0.526   1.885  0.7556  0.9834 -0.6836
 4709TIP3    H235619   2.997   0.490   1.961  1.0439  0.5051 -1.3782
 4710TIP3   OH235620   4.910   1.250  16.028 -0.1661  0.3270  0.4474
 4710TIP3    H135621   4.851   1.323  16.008  0.3913  0.7233  0.2248
 4710TIP3    H235622   4.986   1.265  15.972  0.3256  0.0496  1.0321
 4711TIP3   OH235623   4.226   5.576   2.620  0.8212  0.3093 -0.2941
 4711TIP3    H135624   4.274   5.639   2.674  1.4604 -0.9610  0.6568
 4711TIP3    H235625   4.227   5.495   2.670 -0.8324 -0.2279 -1.0457
 4712TIP3   OH235626   5.377   5.540   3.283  0.0336  0.8115  0.7432
 4712TIP3    H135627   5.298   5.560   3.232 -0.0880  0.7781  0.9176
 4712TIP3    H235628   5.345   5.489   3.357  0.0048  2.0243  1.6002
 4713TIP3   OH235629   1.392   5.359  12.940  0.5626  0.5208  0.0373
 4713TIP3    H135630   1.393   5.349  12.845 -1.7421  1.6611 -0.1752
 4713TIP3    H235631   1.484   5.352  12.966  1.1860 -0.4254 -2.1803
 4714TIP3   OH235632   1.234   3.447   4.684 -0.0432 -0.4753  0.4798
 4714TIP3    H135633   1.275   3.374   4.731 -1.0327 -1.7403 -0.5516
 4714TIP3    H235634   1.180   3.491   4.750  1.3589  0.0075  1.3658
 4715TIP3   OH235635   5.364   5.397  12.662  0.0572 -0.2632 -0.3081
 4715TIP3    H135636   5.339   5.317  12.616 -1.3070 -0.1599  0.1972
 4715TIP3    H235637   5.458   5.404  12.649 -0.1200 -0.8274 -2.1229
 4716TIP3   OH235638   0.359   1.332  15.709  0.0250  0.0809  0.7166
 4716TIP3    H135639   0.304   1.293  15.776 -0.8374  0.1502  0.0684
 4716TIP3    H235640   0.369   1.423  15.735  0.1878 -0.0299  1.0504
 4717TIP3   OH235641   6.399   0.376   2.161 -0.0184  0.2425 -0.2516
 4717TIP3    H135642   6.476   0.374   2.217 -0.7327 -0.7698  0.7339
 4717TIP3    H235643   6.326   0.355   2.219 -0.8110 -0.6646 -1.5198
 4718TIP3   OH235644   4.371   6.054  17.165  0.2712  0.0831  0.1324
 4718TIP3    H135645   4.438   6.043  17.097  0.2579  1.0108 -0.0487
 4718TIP3    H235646   4.289   6.058  17.116  0.1910  0.0384  0.2639
 4719TIP3   OH235647   3.434   6.661   1.646 -0.0086 -1.0276 -0.5200
 4719TIP3    H135648   3.421   6.708   1.729  1.7124  2.4459 -2.0446
 4719TIP3    H235649   3.519   6.618   1.656  0.5673  0.0319 -0.7026
 4720TIP3   OH235650   0.907   1.259  15.400 -0.1557  0.0517  0.0289
 4720TIP3    H135651   0.846   1.187  15.384  0.0779  0.2064 -1.7229
 4720TIP3    H235652   0.865   1.336  15.362  0.6280  0.3668 -0.2326
 4721TIP3   OH235653   0.416   4.490   5.707  0.4265  0.0262  0.5971
 4721TIP3    H135654   0.351   4.426   5.736 -0.5744 -0.0141 -1.5542
 4721TIP3    H235655   0.431   4.545   5.784 -1.1765 -0.7678  1.5398
 4722TIP3   OH235656   1.311   2.640  15.986  0.5807  0.3996 -0.4408
 4722TIP3    H135657   1.302   2.601  16.073 -0.1309  2.0895  0.2862
 4722TIP3    H235658   1.273   2.575  15.927 -1.0695  0.1835  0.7785
 4723TIP3   OH235659   2.866   4.080  13.195  0.6690  0.1351 -0.6993
 4723TIP3    H135660   2.815   4.159  13.175  0.4636 -0.2342 -1.7060
 4723TIP3    H235661   2.803   4.009  13.192  0.7777 -0.0415  0.6220
 4724TIP3   OH235662   6.315   1.557   1.735 -0.4297 -0.2051 -0.5427
 4724TIP3    H135663   6.338   1.571   1.643 -0.2264  1.0158 -0.3180
 4724TIP3    H235664   6.220   1.562   1.736 -0.3754  0.9724 -0.5101
 4725TIP3   OH235665   2.760   2.849   2.368 -0.5943 -0.9610 -0.1894
 4725TIP3    H135666   2.843   2.877   2.330 -1.6334  1.5079 -0.8835
 4725TIP3    H235667   2.761   2.754   2.363  1.7308 -0.9404 -1.1156
 4726TIP3   OH235668   6.008   2.273  17.027  0.8045  0.9155  0.6422
 4726TIP3    H135669   6.078   2.332  17.053  1.9398 -0.1682  0.1566
 4726TIP3    H235670   6.053   2.198  16.987 -0.5353 -0.4690  1.5875
 4727TIP3   OH235671   4.067   4.067   1.417  0.7515  0.4442  0.0131
 4727TIP3    H135672   4.010   4.071   1.494  0.8073 -2.4445  0.2953
 4727TIP3    H235673   4.018   4.114   1.349 -1.4685 -0.9229  0.5649
 4728TIP3   OH235674   5.491   0.879   6.106  0.5298  0.1928  0.2488
 4728TIP3    H135675   5.504   0.891   6.012 -2.0732 -2.4823 -0.5823
 4728TIP3    H235676   5.430   0.949   6.131  0.2251  0.1358 -0.3309
 4729TIP3   OH235677   3.794   1.323  12.067 -0.0239 -0.2085  0.1395
 4729TIP3    H135678   3.864   1.329  12.132 -0.8111  0.3175  0.9636
 4729TIP3    H235679   3.833   1.274  11.994  1.6936  1.3863 -0.0896
 4730TIP3   OH235680   0.503   4.921  10.724  0.1689 -0.4791  0.4902
 4730TIP3    H135681   0.538   4.973  10.652 -1.2703  1.7614  1.2977
 4730TIP3    H235682   0.573   4.922  10.789  0.1089  0.6868  0.5690
 4731TIP3   OH235683   2.441   6.242  14.312 -0.0265  0.5694  0.3658
 4731TIP3    H135684   2.486   6.308  14.364  1.3956  0.0748 -0.1968
 4731TIP3    H235685   2.444   6.275  14.222 -0.4338  0.3328  0.2594
 4732TIP3   OH235686   1.150   6.254  13.362  0.1320 -0.8357  0.2082
 4732TIP3    H135687   1.164   6.343  13.396 -0.4430 -0.3474 -0.7634
 4732TIP3    H235688   1.172   6.196  13.435 -0.1841  0.1290  1.0998
 4733TIP3   OH235689   0.671   4.542   3.377 -0.0018 -0.2514  0.1411
 4733TIP3    H135690   0.630   4.491   3.308  1.4842  0.3450 -1.2428
 4733TIP3    H235691   0.645   4.499   3.458 -2.5573 -0.4045 -0.7010
 4734TIP3   OH235692   2.489   1.526   3.128  0.5421  0.6048  0.8590
 4734TIP3    H135693   2.524   1.480   3.052 -1.4407 -0.7911  0.7067
 4734TIP3    H235694   2.541   1.494   3.202  1.6118  0.9854  0.3000
 4735TIP3   OH235695   0.477   5.746  13.149  0.8191  0.3549 -0.1160
 4735TIP3    H135696   0.557   5.698  13.131  0.5179  0.4234 -1.8249
 4735TIP3    H235697   0.407   5.686  13.123  0.3013  0.3236  1.2806
 4736TIP3   OH235698   5.139   0.165   0.857 -0.1303 -0.1809  0.2287
 4736TIP3    H135699   5.162   0.157   0.950  0.8055 -1.6225 -0.0826
 4736TIP3    H235700   5.112   0.076   0.832  0.5882 -0.0499 -1.1033
 4737TIP3   OH235701   4.829   4.988  13.304 -0.5136  0.0984 -0.7580
 4737TIP3    H135702   4.864   4.943  13.381 -0.2771 -0.1968 -1.0342
 4737TIP3    H235703   4.901   5.043  13.274  0.3717 -1.7856 -2.3444
 4738TIP3   OH235704   6.587   6.324   5.876 -0.9445 -0.0671 -0.4301
 4738TIP3    H135705   6.547   6.251   5.828 -0.4744 -1.0054  0.5528
 4738TIP3    H235706   6.570   6.401   5.821  0.1514 -1.1726 -2.4659
 4739TIP3   OH235707   0.943   6.346   0.646  0.3399  0.1605  0.0254
 4739TIP3    H135708   0.890   6.424   0.627  0.7196 -0.2159 -3.2136
 4739TIP3    H235709   1.031   6.369   0.615  0.9584 -0.8248  1.0291
 4740TIP3   OH235710   0.429   4.371  11.916 -0.4744  0.6241 -0.2841
 4740TIP3    H135711   0.470   4.313  11.980 -4.0527 -0.8435  0.9653
 4740TIP3    H235712   0.421   4.318  11.837  0.7751  1.2230 -0.8325
 4741TIP3   OH235713   1.813   0.666  15.579  0.2210  0.6265  0.0925
 4741TIP3    H135714   1.738   0.608  15.570 -0.3070  1.4732 -1.4129
 4741TIP3    H235715   1.816   0.688  15.672 -0.2941 -0.8257  0.4760
 4742TIP3   OH235716   1.038   0.853  14.029  0.1106 -0.1977 -0.0215
 4742TIP3    H135717   1.114   0.910  14.015  0.0310  0.3078  1.4136
 4742TIP3    H235718   1.003   0.838  13.941  2.3800 -1.2015 -0.8373
 4743TIP3   OH235719   3.712   5.359  12.423 -0.5102 -0.2190  0.5164
 4743TIP3    H135720   3.629   5.407  12.419  1.5181  3.6786 -0.7870
 4743TIP3    H235721   3.721   5.332  12.514 -3.1079 -0.6673  0.6987
 4744TIP3   OH235722   2.439   2.960   3.998 -0.1253  0.3112  0.8778
 4744TIP3    H135723   2.432   3.003   4.083  0.5658  0.8418  0.6760
 4744TIP3    H235724   2.500   2.887   4.013 -1.4764 -0.7937  1.2770
 4745TIP3   OH235725   5.308   6.103   4.594 -0.6043 -0.2040 -0.6175
 4745TIP3    H135726   5.327   6.196   4.586 -0.4946 -0.0069  1.5305
 4745TIP3    H235727   5.217   6.100   4.625 -0.2310 -0.7462  0.4718
 4746TIP3   OH235728   0.288   5.412   6.376 -0.8015  0.3381 -0.3336
 4746TIP3    H135729   0.249   5.463   6.447  0.6993 -0.3869  1.0839
 4746TIP3    H235730   0.302   5.325   6.414 -0.8603 -0.3651 -1.8489
 4747TIP3   OH235731   0.461   3.660   0.736  0.1279 -0.3400 -0.1539
 4747TIP3    H135732   0.388   3.597   0.738  0.5245 -0.7973  0.0953
 4747TIP3    H235733   0.539   3.606   0.741  0.4612  0.2253  1.3450
 4748TIP3   OH235734   4.410   1.280   6.346 -0.1659  0.0576  0.9432
 4748TIP3    H135735   4.435   1.209   6.405 -0.0036 -0.4262  0.2964
 4748TIP3    H235736   4.471   1.351   6.367  2.3607 -1.3440 -1.1300
 4749TIP3   OH235737   1.613   3.069  11.105 -0.4739  0.3716  0.3823
 4749TIP3    H135738   1.694   3.111  11.076  0.5146 -1.3010  0.6126
 4749TIP3    H235739   1.560   3.140  11.140  0.6929  1.5694 -0.2123
 4750TIP3   OH235740   2.314   2.159   0.588  0.5785 -0.1064  0.2464
 4750TIP3    H135741   2.326   2.225   0.656 -1.0748  0.1982  0.2866
 4750TIP3    H235742   2.395   2.161   0.537  0.8907  1.3546  0.7706
 4751TIP3   OH235743   0.433   0.538   2.037 -0.8858  0.0266  0.5895
 4751TIP3    H135744   0.473   0.516   2.121 -0.7179 -0.3013  0.4300
 4751TIP3    H235745   0.357   0.480   2.030 -0.8325 -0.0304  0.4661
 4752TIP3   OH235746   1.808   5.449   4.662  0.5986 -0.0666  0.3234
 4752TIP3    H135747   1.900   5.468   4.643  0.4419 -1.1966 -1.8815
 4752TIP3    H235748   1.792   5.364   4.620 -1.3952  0.0212  0.8334
 4753TIP3   OH235749   3.077   0.403   0.988  0.1234  0.3204 -0.1716
 4753TIP3    H135750   3.114   0.315   0.993  0.8019  0.6278  0.5228
 4753TIP3    H235751   3.036   0.408   0.901  0.8424 -0.3734 -0.5581
 4754TIP3   OH235752   0.147   3.271   5.144 -0.1802 -0.0553  0.2826
 4754TIP3    H135753   0.168   3.182   5.172  0.7638 -1.1501 -3.2976
 4754TIP3    H235754   0.072   3.261   5.085  1.2883  1.1028 -1.9231
 4755TIP3   OH235755   1.724   3.431  15.307 -0.3119 -0.5304 -0.3363
 4755TIP3    H135756   1.639   3.463  15.279  0.7327  0.8898 -2.0529
 4755TIP3    H235757   1.729   3.342  15.272 -0.0422  0.3389 -2.6342
 4756TIP3   OH235758   0.948   3.365   4.318  0.3812  0.0416 -0.5371
 4756TIP3    H135759   0.955   3.453   4.282  1.1397 -0.5045 -1.7908
 4756TIP3    H235760   0.973   3.307   4.246  0.4102 -1.1777  0.4127
 4757TIP3   OH235761   1.841   6.244  15.341 -0.6371  0.4036  0.2783
 4757TIP3    H135762   1.933   6.243  15.315 -0.9377  0.4914 -0.8791
 4757TIP3    H235763   1.801   6.308  15.283 -1.8801 -1.4379 -1.0174
 4758TIP3   OH235764   6.390   0.335  15.363  0.0315  0.0111  0.4486
 4758TIP3    H135765   6.305   0.361  15.399  0.4551 -0.8868  2.2135
 4758TIP3    H235766   6.382   0.240  15.351 -0.1773  0.2866 -2.2036
 4759TIP3   OH235767   1.335   1.422   3.229  0.6253  0.1038 -0.2463
 4759TIP3    H135768   1.418   1.395   3.190 -0.1195 -0.0589 -1.7823
 4759TIP3    H235769   1.316   1.507   3.189  0.2275  0.3165  0.3741
 4760TIP3   OH235770   4.547   2.823   0.319  0.2034 -0.0545 -0.0157
 4760TIP3    H135771   4.488   2.822   0.244  0.1288 -3.3488 -0.0378
 4760TIP3    H235772   4.492   2.848   0.393 -0.0344  1.7753 -0.7529
 4761TIP3   OH235773   2.586   4.883  14.055 -0.0047  0.9668  0.2558
 4761TIP3    H135774   2.575   4.851  14.144 -0.8985  0.1680 -0.1314
 4761TIP3    H235775   2.628   4.811  14.008  0.1083  1.2385 -0.0660
 4762TIP3   OH235776   5.402   6.124   1.596 -0.9828  0.2530 -0.1699
 4762TIP3    H135777   5.431   6.167   1.516  0.2132 -0.3870 -0.0982
 4762TIP3    H235778   5.325   6.074   1.570  0.3344 -1.2770 -1.3369
 4763TIP3   OH235779   5.917   4.085  12.770 -0.7675 -0.1488  0.5454
 4763TIP3    H135780   5.941   4.142  12.843  0.2568 -0.4738  0.4805
 4763TIP3    H235781   5.956   4.000  12.792  1.8803  0.4027 -1.5801
 4764TIP3   OH235782   5.942   3.548  11.618  0.4248 -0.7456 -0.0979
 4764TIP3    H135783   5.877   3.615  11.595  1.4001 -0.1447 -1.1991
 4764TIP3    H235784   6.016   3.597  11.652  1.3622 -1.1943 -1.4188
 4765TIP3   OH235785   6.322   4.552  11.248 -0.8339  0.4703  0.4513
 4765TIP3    H135786   6.229   4.575  11.249 -0.8243  0.5021  0.8606
 4765TIP3    H235787   6.350   4.561  11.339 -1.0117 -1.9876  0.8064
 4766TIP3   OH235788   5.495   0.874  12.620  0.2657  0.7161 -0.0718
 4766TIP3    H135789   5.580   0.891  12.661  0.4114 -0.4173  0.1196
 4766TIP3    H235790   5.438   0.943  12.655  0.6144  0.3220  1.3511
 4767TIP3   OH235791   2.123   4.824   6.066 -0.0262 -0.0630  0.1571
 4767TIP3    H135792   2.106   4.902   6.118 -2.8429  1.1387 -2.2614
 4767TIP3    H235793   2.181   4.854   5.996 -1.6056  0.1482 -1.1375
 4768TIP3   OH235794   4.820   6.555   5.098 -0.5502 -0.0680  0.3405
 4768TIP3    H135795   4.892   6.573   5.038 -1.7391  0.4661 -0.9855
 4768TIP3    H235796   4.820   6.459   5.106 -0.8625 -0.2389 -1.2223
 4769TIP3   OH235797   4.930   4.310   2.506 -0.5100 -0.2581 -0.2208
 4769TIP3    H135798   4.962   4.307   2.415  1.4500 -1.3944  0.4330
 4769TIP3    H235799   4.863   4.242   2.510 -0.7010 -0.1099 -0.8519
 4770TIP3   OH235800   2.560   5.848   5.718 -0.4021  0.0832 -0.5835
 4770TIP3    H135801   2.540   5.928   5.766 -0.3465 -0.4540  0.3671
 4770TIP3    H235802   2.651   5.857   5.693  0.2237 -0.5082  1.2650
 4771TIP3   OH235803   3.253   0.012  11.516 -0.0363 -0.7187 -0.3619
 4771TIP3    H135804   3.335   0.024  11.469 -0.1794 -0.3451 -0.5228
 4771TIP3    H235805   3.196  -0.035  11.455 -0.1208 -0.5018 -0.4508
 4772TIP3   OH235806   2.036   3.424  15.569  0.0853 -0.1927  0.0445
 4772TIP3    H135807   2.059   3.367  15.643 -0.6415  0.0608  0.4730
 4772TIP3    H235808   1.943   3.442  15.581 -0.0397 -0.1382 -0.9320
 4773TIP3   OH235809   4.424   3.253  11.781  0.1528  0.0421  0.0867
 4773TIP3    H135810   4.377   3.193  11.840  0.3891 -1.4611 -1.1855
 4773TIP3    H235811   4.355   3.299  11.733 -0.0570 -0.9678 -0.6111
 4774TIP3   OH235812   4.668   0.409  10.324 -0.2202 -0.2498 -0.1260
 4774TIP3    H135813   4.595   0.377  10.272 -0.1737 -2.3644  1.0072
 4774TIP3    H235814   4.666   0.504  10.311 -0.4136 -0.5786 -3.6406
 4775TIP3   OH235815   1.589   1.838   0.798  0.7960 -0.5549 -0.0387
 4775TIP3    H135816   1.641   1.875   0.869  0.2776  1.9167 -0.8431
 4775TIP3    H235817   1.508   1.810   0.840  1.0332 -0.3580  0.5653
 4776TIP3   OH235818   5.540   1.121   5.476  1.2209 -0.0802 -0.0894
 4776TIP3    H135819   5.476   1.129   5.546  2.0185 -1.2736  0.8186
 4776TIP3    H235820   5.624   1.137   5.519  1.5693  1.3372 -1.2265
 4777TIP3   OH235821   3.426   3.916   4.506  0.7297  0.2772  0.9996
 4777TIP3    H135822   3.435   4.009   4.487 -2.1523  0.1181 -2.2396
 4777TIP3    H235823   3.380   3.913   4.590 -1.9552  2.0536 -0.2383
 4778TIP3   OH235824   3.532   1.641   3.148  0.0815  0.1095 -0.1459
 4778TIP3    H135825   3.462   1.576   3.138 -0.0666 -0.1832  2.2983
 4778TIP3    H235826   3.496   1.721   3.110 -1.4670 -0.1358  0.7282
 4779TIP3   OH235827   3.015   3.559   1.619  0.3191 -0.5634  0.1250
 4779TIP3    H135828   2.934   3.588   1.578  0.9345 -1.5768 -1.9598
 4779TIP3    H235829   3.081   3.621   1.589  0.8390 -1.4944 -0.6868
 4780TIP3   OH235830   3.162   3.144  12.077  0.3594 -0.0948 -0.8615
 4780TIP3    H135831   3.114   3.227  12.068  0.4645  0.2163  1.0559
 4780TIP3    H235832   3.213   3.138  11.997 -0.8982  0.8642 -1.7953
 4781TIP3   OH235833   4.305   0.688   3.762  0.3620  0.1444 -0.2247
 4781TIP3    H135834   4.273   0.752   3.699  0.4583 -0.1657 -0.5966
 4781TIP3    H235835   4.229   0.632   3.780  0.3411  0.2171 -0.0834
 4782TIP3   OH235836   3.988   3.053  12.665 -0.0107 -0.5592  0.0347
 4782TIP3    H135837   3.941   3.036  12.583 -0.3900  0.4334  0.0295
 4782TIP3    H235838   3.984   3.148  12.675  1.5787 -0.4996  0.2931
 4783TIP3   OH235839   2.397   0.186   0.841 -0.1379 -0.4835  0.3405
 4783TIP3    H135840   2.344   0.220   0.913 -0.9892  1.0317 -0.9437
 4783TIP3    H235841   2.382   0.091   0.842 -1.1324 -0.3301  1.3483
 4784TIP3   OH235842   6.046   4.933  12.079  0.6145  0.1179  0.0626
 4784TIP3    H135843   5.964   4.916  12.125  0.2298  0.5565 -0.4437
 4784TIP3    H235844   6.056   4.858  12.019 -0.4312  0.9911 -1.2653
 4785TIP3   OH235845   0.626   1.736  13.102  0.6279  0.0835 -0.1051
 4785TIP3    H135846   0.537   1.770  13.111  1.1934  1.9897 -1.0948
 4785TIP3    H235847   0.635   1.672  13.173 -1.0946  0.7898  0.8103
 4786TIP3   OH235848   4.483   6.621   0.089  0.2377 -0.5660 -0.8635
 4786TIP3    H135849   4.392   6.619   0.116  0.5059 -0.1663  0.1307
 4786TIP3    H235850   4.481   6.611  -0.006 -0.8713  0.1379 -0.9247
 4787TIP3   OH235851   5.109   2.560   5.042  0.4063  0.9990  0.0470
 4787TIP3    H135852   5.087   2.606   4.961  1.2231 -1.0852 -1.4444
 4787TIP3    H235853   5.166   2.621   5.089  2.6223  1.0680 -2.5072
 4788TIP3   OH235854   6.021   4.824   6.374  0.6206  0.4398  0.2259
 4788TIP3    H135855   6.029   4.845   6.467 -1.1509 -2.3031  1.1205
 4788TIP3    H235856   5.940   4.773   6.368 -0.5085  2.2845 -3.1971
 4789TIP3   OH235857   4.589   2.816   3.406 -0.0334 -0.2741  0.1875
 4789TIP3    H135858   4.652   2.768   3.352  1.0026  0.6230  0.5576
 4789TIP3    H235859   4.596   2.907   3.375 -1.3880 -0.1930  0.0273
 4790TIP3   OH235860   2.851   3.973   5.381 -0.1143 -0.4469 -0.2111
 4790TIP3    H135861   2.883   4.020   5.304  1.0058  1.7957  1.5135
 4790TIP3    H235862   2.830   3.885   5.348 -0.3924  0.6150 -3.1899
 4791TIP3   OH235863   5.011   0.496  13.188  0.0283 -0.2724  0.6350
 4791TIP3    H135864   5.010   0.564  13.256  0.9304 -0.1675  0.5526
 4791TIP3    H235865   4.937   0.519  13.131  0.0771  0.4100  0.8344
 4792TIP3   OH235866   4.186   4.874   4.159  0.0695  1.1005 -0.0487
 4792TIP3    H135867   4.121   4.841   4.097  0.4543  2.2393 -1.1032
 4792TIP3    H235868   4.206   4.962   4.128 -0.6795  2.2561  2.4386
 4793TIP3   OH235869   2.115   5.563  15.900 -0.8137  0.5355  0.3494
 4793TIP3    H135870   2.132   5.523  15.985 -0.7570  0.0753  0.1237
 4793TIP3    H235871   2.083   5.491  15.846  1.6691  0.1819 -0.8137
 4794TIP3   OH235872   5.333   1.475  13.701  0.0725  0.3095 -0.0235
 4794TIP3    H135873   5.248   1.504  13.668 -0.2082  0.7886  1.1003
 4794TIP3    H235874   5.381   1.556  13.719  0.3976  0.0471  0.2968
 4795TIP3   OH235875   6.408   0.009   2.934  0.3837  0.3698  0.0918
 4795TIP3    H135876   6.352   0.035   2.861  0.1425 -1.4904 -0.4497
 4795TIP3    H235877   6.403  -0.087   2.935  0.3274  0.3175  2.5896
 4796TIP3   OH235878   5.778   2.986   2.804  0.2849 -0.1456 -0.2453
 4796TIP3    H135879   5.746   3.023   2.886 -1.0375  1.3554 -1.3895
 4796TIP3    H235880   5.861   3.031   2.788  1.2688 -1.4520  0.9152
 4797TIP3   OH235881   6.246   2.612  15.424 -0.8427 -0.5347  0.3464
 4797TIP3    H135882   6.207   2.683  15.372 -1.3213 -1.1463 -0.1536
 4797TIP3    H235883   6.336   2.639  15.438 -0.3559 -0.8597 -1.7985
 4798TIP3   OH235884   6.212   4.361  13.415 -0.3498  0.5252 -0.7061
 4798TIP3    H135885   6.306   4.349  13.428 -0.2479  1.2253 -0.7370
 4798TIP3    H235886   6.206   4.404  13.330 -0.8243 -1.2808 -1.6483
 4799TIP3   OH235887   1.119   2.406  14.032  0.5891 -0.5693 -0.1227
 4799TIP3    H135888   1.192   2.408  13.970  1.2354  2.0605  0.5912
 4799TIP3    H235889   1.046   2.371  13.982  2.1358 -2.6729 -1.0429
 4800TIP3   OH235890   4.073   4.328  14.661 -0.3756 -0.5081 -0.2156
 4800TIP3    H135891   4.049   4.336  14.568 -0.2644  1.0141 -0.1386
 4800TIP3    H235892   4.028   4.249  14.690 -2.1482  0.1240 -1.0680
 4801TIP3   OH235893   2.964   6.681   0.320  0.3504 -0.0308 -0.1664
 4801TIP3    H135894   3.016   6.712   0.247 -0.9058  0.3896 -0.9124
 4801TIP3    H235895   2.874   6.678   0.287 -0.2111 -0.1280  1.2636
 4802TIP3   OH235896   3.321   2.550  14.455 -0.7684 -0.2992  0.0372
 4802TIP3    H135897   3.390   2.522  14.395 -0.0475 -1.6191  1.4164
 4802TIP3    H235898   3.282   2.469  14.487 -0.8835  0.3348  1.6087
 4803TIP3   OH235899   5.638   5.605  12.807  0.4221  0.2507  0.3264
 4803TIP3    H135900   5.548   5.619  12.839 -0.0630 -0.9828 -0.4247
 4803TIP3    H235901   5.690   5.672  12.852 -1.0447  1.6988 -0.0278
 4804TIP3   OH235902   6.153   2.219   1.412 -0.1444 -0.2902  0.2185
 4804TIP3    H135903   6.192   2.304   1.391 -1.2322  0.6495  1.7835
 4804TIP3    H235904   6.216   2.178   1.471 -0.6033  0.4065  1.2239
 4805TIP3   OH235905   1.956   2.814  15.931  0.3800 -0.0811  0.4620
 4805TIP3    H135906   2.006   2.881  15.977 -0.0141  0.1440  0.5619
 4805TIP3    H235907   2.021   2.747  15.909  0.9121  0.6518 -0.2499
 4806TIP3   OH235908   4.016   1.103  16.309 -0.2221  0.2285 -0.4163
 4806TIP3    H135909   4.078   1.167  16.274  1.6732 -0.9635  0.5919
 4806TIP3    H235910   3.977   1.062  16.232  1.3071  0.0397 -1.1210
 4807TIP3   OH235911   4.764   2.584   4.984  0.0501  0.5603  0.1018
 4807TIP3    H135912   4.688   2.536   5.017  0.4019  0.8878  1.4665
 4807TIP3    H235913   4.729   2.670   4.960 -0.2408  0.2671 -0.5361
 4808TIP3   OH235914   6.430   1.262  12.075  0.2567 -0.0791  0.2271
 4808TIP3    H135915   6.405   1.353  12.085  0.0269  0.0533 -1.2496
 4808TIP3    H235916   6.522   1.259  12.100 -0.4765 -0.0747  3.2453
 4809TIP3   OH235917   1.131   1.654  12.221 -0.2486  1.2527  0.0718
 4809TIP3    H135918   1.215   1.671  12.264 -0.9131  3.7114  0.5665
 4809TIP3    H235919   1.141   1.691  12.133 -1.2187  2.8201  0.5920
 4810TIP3   OH235920   4.320   2.627   0.486  0.1842 -0.3458  0.0650
 4810TIP3    H135921   4.404   2.611   0.530  1.2272 -0.1150 -1.7368
 4810TIP3    H235922   4.274   2.687   0.545  1.6772  0.2601  0.6866
 4811TIP3   OH235923   4.347   2.278  10.983 -0.1186 -0.5431 -0.2865
 4811TIP3    H135924   4.360   2.363  10.942  0.0640 -1.6204 -2.6450
 4811TIP3    H235925   4.436   2.244  10.996 -0.1922 -1.0376 -0.9625
 4812TIP3   OH235926   4.588   0.007  15.740  0.3332  0.5695 -0.4856
 4812TIP3    H135927   4.538   0.087  15.725  0.1715  0.8447  1.2804
 4812TIP3    H235928   4.532  -0.046  15.797  0.0964 -1.1926 -2.2435
 4813TIP3   OH235929   4.274   0.976  12.513 -0.0816 -0.3781  0.2126
 4813TIP3    H135930   4.208   0.907  12.501 -0.3050 -0.6644  2.6094
 4813TIP3    H235931   4.274   1.024  12.430 -1.1231 -2.2278 -0.9244
 4814TIP3   OH235932   1.901   5.807  14.976 -0.4297 -0.0590  0.2143
 4814TIP3    H135933   1.814   5.779  15.004 -0.7391  0.0161 -0.6377
 4814TIP3    H235934   1.886   5.887  14.927  0.2714  0.6989  1.2007
 4815TIP3   OH235935   1.900   4.811  15.643 -0.4745 -0.3219  0.0369
 4815TIP3    H135936   1.944   4.869  15.706 -0.0157  1.5149 -1.8686
 4815TIP3    H235937   1.816   4.791  15.685  1.2299 -2.2635  2.8563
 4816TIP3   OH235938   6.586   5.653   2.188  0.0430  0.5673 -0.0492
 4816TIP3    H135939   6.591   5.645   2.283  1.1150 -2.1246 -0.2585
 4816TIP3    H235940   6.625   5.739   2.169  1.8583  0.2237  1.7873
 4817TIP3   OH235941   6.307   4.992   5.653  0.0760 -0.5224 -0.7342
 4817TIP3    H135942   6.267   4.909   5.628 -0.3038  0.0237 -2.0588
 4817TIP3    H235943   6.393   4.968   5.688 -0.5801 -1.5577  0.2393
 4818TIP3   OH235944   5.140   3.623   2.953  0.2469 -0.3939 -0.1128
 4818TIP3    H135945   5.229   3.626   2.987 -0.2453 -1.9057  1.4719
 4818TIP3    H235946   5.094   3.693   2.998  0.4212 -0.1829 -0.2642
 4819TIP3   OH235947   2.706   0.519   4.963  0.1452  0.2430 -0.0524
 4819TIP3    H135948   2.702   0.598   4.909  0.2645 -0.5148 -1.2169
 4819TIP3    H235949   2.795   0.487   4.950  0.7995  1.0164  2.0802
 4820TIP3   OH235950   3.125   3.274  11.295 -0.0610  0.3916  0.0747
 4820TIP3    H135951   3.097   3.349  11.242  0.4603  1.3197  1.0468
 4820TIP3    H235952   3.186   3.312  11.358  2.0984 -1.2600 -0.8951
 4821TIP3   OH235953   0.245   5.239   4.157 -0.0631 -0.6395  0.4811
 4821TIP3    H135954   0.188   5.203   4.226 -0.5180 -0.2918  0.2953
 4821TIP3    H235955   0.252   5.169   4.093 -2.8614  0.2949 -1.0410
 4822TIP3   OH235956   3.655   3.404  13.007  0.3150 -0.6744 -0.0296
 4822TIP3    H135957   3.722   3.406  13.075  1.2133  0.1194 -0.9206
 4822TIP3    H235958   3.696   3.357  12.934 -0.2279 -0.5134 -0.4473
 4823TIP3   OH235959   2.734   2.294   0.760  0.2911 -0.0921 -0.1240
 4823TIP3    H135960   2.708   2.273   0.850 -1.4759 -2.7155 -1.1306
 4823TIP3    H235961   2.829   2.281   0.759  0.1801 -1.1495  1.0940
 4824TIP3   OH235962   0.646   2.880  14.077 -0.1665  0.9466  0.2322
 4824TIP3    H135963   0.723   2.898  14.130  1.8490 -0.6839 -1.9497
 4824TIP3    H235964   0.676   2.885  13.987 -1.8945 -2.2759 -0.6974
 4825TIP3   OH235965   3.778   3.816  16.374  0.4669 -0.3658 -0.8946
 4825TIP3    H135966   3.708   3.771  16.326 -0.4294 -0.2460  0.2632
 4825TIP3    H235967   3.855   3.804  16.319 -0.7955  1.1189 -3.2026
 4826TIP3   OH235968   1.919   0.098  15.736 -0.3536 -0.2914  0.0558
 4826TIP3    H135969   1.885   0.170  15.683  1.1566 -0.4480 -1.2050
 4826TIP3    H235970   2.000   0.134  15.775  0.8394 -1.5032 -1.2071
 4827TIP3   OH235971   1.260   5.329   2.960 -0.0824 -0.1365  0.0550
 4827TIP3    H135972   1.205   5.276   2.903 -0.2828 -0.2261  0.3244
 4827TIP3    H235973   1.251   5.418   2.926 -1.8850  0.1703  1.1814
 4828TIP3   OH235974   4.885   5.748  13.874  0.3724  0.5996  0.5876
 4828TIP3    H135975   4.953   5.711  13.930  1.3961  0.1476 -0.9029
 4828TIP3    H235976   4.815   5.772  13.935  1.9489  1.3345  2.2096
 4829TIP3   OH235977   3.356   0.464  12.320  0.0004  0.2203  0.1924
 4829TIP3    H135978   3.372   0.529  12.388 -1.9726  1.7239 -0.6861
 4829TIP3    H235979   3.287   0.503  12.266  1.2605 -1.0469 -2.4856
 4830TIP3   OH235980   0.988   1.451   5.736  0.2790 -0.6316  0.0035
 4830TIP3    H135981   1.036   1.431   5.816 -0.3242  0.3390  0.6291
 4830TIP3    H235982   0.915   1.506   5.765  0.5944  0.5461 -1.3357
 4831TIP3   OH235983   3.386   1.625  16.548  0.0053  0.7663  0.3535
 4831TIP3    H135984   3.429   1.704  16.514  0.3485  0.0107 -1.0479
 4831TIP3    H235985   3.331   1.595  16.476 -1.4138  0.6285  1.4591
 4832TIP3   OH235986   2.666   6.726   3.566  0.1055  0.1421  0.3444
 4832TIP3    H135987   2.633   6.800   3.618 -0.6126  0.7908 -0.9744
 4832TIP3    H235988   2.728   6.766   3.505 -0.8702 -0.1798 -0.9081
 4833TIP3   OH235989   6.436   3.363   2.065  0.1375  0.0117  0.0148
 4833TIP3    H135990   6.356   3.417   2.068  0.5191  0.6002 -0.2915
 4833TIP3    H235991   6.487   3.394   2.140 -0.6987 -1.6220  1.3327
 4834TIP3   OH235992   3.844   4.545  12.285 -0.1654  0.3872 -0.2313
 4834TIP3    H135993   3.907   4.488  12.241  0.3259 -0.3241  1.3351
 4834TIP3    H235994   3.830   4.617  12.223  1.6064  0.1693 -0.9492
 4835TIP3   OH235995   2.397   1.009  13.754  0.4459  0.2462  0.1962
 4835TIP3    H135996   2.383   1.078  13.689 -0.1315 -0.2531 -0.2190
 4835TIP3    H235997   2.313   0.963  13.759  1.5058 -2.0390 -1.4232
 4836TIP3   OH235998   3.606   0.315   2.878 -0.2979  0.0630 -0.3235
 4836TIP3    H135999   3.543   0.266   2.932 -0.1236  1.2467  1.0334
 4836TIP3    H236000   3.680   0.256   2.868 -0.5518 -0.3790  0.3190
 4837TIP3   OH236001   5.771   3.614   3.911 -0.3069 -0.3674 -0.4214
 4837TIP3    H136002   5.863   3.636   3.898 -0.3342 -1.1438 -2.2109
 4837TIP3    H236003   5.772   3.539   3.970  0.3676 -1.5692 -1.8841
 4838TIP3   OH236004   1.566   0.679  14.619  0.5699  0.1986  0.7743
 4838TIP3    H136005   1.642   0.724  14.582 -0.1743 -0.2723 -1.5656
 4838TIP3    H236006   1.595   0.588  14.631  0.3265 -0.0602 -0.4430
 4839TIP3   OH236007   5.833   3.734  14.355 -0.2986  0.5906 -0.0099
 4839TIP3    H136008   5.763   3.682  14.396 -0.0753  0.4012  0.1309
 4839TIP3    H236009   5.791   3.773  14.278  0.5774 -3.2605 -2.7528
 4840TIP3   OH236010   4.879   4.040  14.825  0.0402  0.1669  0.2365
 4840TIP3    H136011   4.940   4.014  14.756 -1.1226 -1.6789 -0.1593
 4840TIP3    H236012   4.798   4.061  14.778 -0.8057 -1.2305  1.0233
 4841TIP3   OH236013   4.194   0.249  15.830 -0.2552  0.0351  0.0047
 4841TIP3    H136014   4.155   0.252  15.918 -1.5527 -2.0665 -0.4247
 4841TIP3    H236015   4.267   0.189  15.839 -0.8460 -0.7795 -0.4772
 4842TIP3   OH236016   2.816   1.899   1.553 -0.4879  0.1762 -0.1700
 4842TIP3    H136017   2.796   1.814   1.591  0.5017  0.2239  0.4940
 4842TIP3    H236018   2.784   1.962   1.617  3.9768  0.2710  2.3278
 4843TIP3   OH236019   3.018   0.635   4.425 -0.1526  0.3577  0.5117
 4843TIP3    H136020   2.983   0.552   4.458  1.0184 -0.8191 -0.9830
 4843TIP3    H236021   3.039   0.686   4.503  0.5046 -1.3884  1.5328
 4844TIP3   OH236022   0.380   0.818   1.599  0.0867  0.1216  0.0899
 4844TIP3    H136023   0.376   0.810   1.503 -0.7747  1.0661  0.0282
 4844TIP3    H236024   0.423   0.737   1.628 -0.6584 -0.7051 -1.0093
 4845TIP3   OH236025   4.751   3.428   3.208 -0.6264 -0.1847 -0.2328
 4845TIP3    H136026   4.758   3.436   3.113 -0.6760 -0.3308 -0.2497
 4845TIP3    H236027   4.708   3.508   3.237 -1.5081 -0.5717 -0.4391
 4846TIP3   OH236028   6.442   4.603  14.146  0.3101 -0.1894 -0.4980
 4846TIP3    H136029   6.362   4.593  14.094 -0.1149 -1.3907  0.3529
 4846TIP3    H236030   6.412   4.639  14.229  0.6165 -0.8968 -0.0766
 4847TIP3   OH236031   0.410   1.424  13.666 -0.2107  0.0315  0.6615
 4847TIP3    H136032   0.382   1.511  13.641 -0.6869 -0.3322 -0.0954
 4847TIP3    H236033   0.381   1.367  13.595  1.9656 -0.4641  0.0700
 4848TIP3   OH236034   5.763   2.967  12.496 -0.2091 -0.4487 -0.2035
 4848TIP3    H136035   5.686   2.947  12.549  0.4980  1.0497  1.4529
 4848TIP3    H236036   5.744   3.052  12.457  0.5203 -0.1821  0.0177
 4849TIP3   OH236037   4.826   2.310   5.001  0.7543  0.8416 -0.5066
 4849TIP3    H136038   4.750   2.318   4.944  0.6405  1.8458 -0.2330
 4849TIP3    H236039   4.880   2.242   4.960  0.8206  1.7385 -1.9906
 4850TIP3   OH236040   1.467   5.535   3.999 -0.5643 -0.5795 -0.2122
 4850TIP3    H136041   1.503   5.624   3.997 -0.4452 -0.6481 -1.2622
 4850TIP3    H236042   1.382   5.545   4.044 -0.6585  0.1023 -0.5350
 4851TIP3   OH236043   1.976   5.014  12.407 -0.3009  0.4955  0.4861
 4851TIP3    H136044   1.898   5.068  12.423  0.0405  0.9320  0.6882
 4851TIP3    H236045   2.004   5.039  12.319 -1.4745 -1.0294 -0.3692
 4852TIP3   OH236046   6.160   6.543  15.705  0.3004 -0.4923 -0.1335
 4852TIP3    H136047   6.067   6.540  15.728  0.1914 -2.8978 -0.6418
 4852TIP3    H236048   6.198   6.607  15.766 -1.5297 -0.0478  0.6043
 4853TIP3   OH236049   5.680   3.061  11.074 -0.4548 -0.0915 -1.0988
 4853TIP3    H136050   5.683   3.048  10.979  2.5388 -1.5249 -0.9201
 4853TIP3    H236051   5.694   2.974  11.111  2.1204  0.9166  0.5433
 4854TIP3   OH236052   5.563   3.329   2.507  0.2163 -0.0196 -0.1879
 4854TIP3    H136053   5.594   3.417   2.484  0.9038  0.1383  1.2241
 4854TIP3    H236054   5.509   3.302   2.433 -1.0963  2.1224 -0.1092
 4855TIP3   OH236055   3.214   3.239  15.075  0.0701  0.4807  0.3945
 4855TIP3    H136056   3.214   3.152  15.113 -0.7324 -0.2664 -1.2011
 4855TIP3    H236057   3.257   3.229  14.990 -1.9442  1.1285 -0.7808
 4856TIP3   OH236058   3.570   0.944   4.844  0.3488  0.2725 -0.5107
 4856TIP3    H136059   3.602   1.006   4.909 -0.6815  0.5219 -0.2296
 4856TIP3    H236060   3.649   0.898   4.814  1.3038  2.4769 -1.5665
 4857TIP3   OH236061   4.902   5.287   0.082 -0.3527  0.1016 -0.1468
 4857TIP3    H136062   4.932   5.376   0.066  0.9957 -0.1926  0.5585
 4857TIP3    H236063   4.832   5.296   0.146  0.3618  0.6085  0.5855
 4858TIP3   OH236064   5.708   0.308   1.911 -0.3272  0.2882  0.2152
 4858TIP3    H136065   5.637   0.310   1.847 -0.2234  0.8482  0.1159
 4858TIP3    H236066   5.680   0.368   1.980  0.1224  0.6380  0.0959
 4859TIP3   OH236067   1.368   6.527  10.792  0.2420  0.2552 -0.0434
 4859TIP3    H136068   1.447   6.493  10.752 -0.4682 -0.3702 -0.9423
 4859TIP3    H236069   1.397   6.604  10.841  1.7973 -1.3088  1.6271
 4860TIP3   OH236070   2.486   5.034   4.341 -0.7670 -0.4321  0.1972
 4860TIP3    H136071   2.482   4.952   4.292 -0.4295 -0.4877  0.2569
 4860TIP3    H236072   2.416   5.027   4.406 -1.9829  0.1401 -1.0252
 4861TIP3   OH236073   5.724   6.744   0.894 -0.1484  0.0281  0.1100
 4861TIP3    H136074   5.638   6.786   0.883  0.8842  1.6995 -2.5631
 4861TIP3    H236075   5.776   6.807   0.943 -0.0783 -0.5126  0.7572
 4862TIP3   OH236076   4.189   1.059  13.184 -0.0222  0.3720 -0.4210
 4862TIP3    H136077   4.136   1.118  13.130  0.9911  0.2500 -1.6073
 4862TIP3    H236078   4.130   1.029  13.253 -1.4925  0.2503 -1.6712
 4863TIP3   OH236079   2.929   0.100   1.191  0.5238 -0.0929 -0.1417
 4863TIP3    H136080   2.892   0.012   1.190 -0.9622  0.5026 -0.0931
 4863TIP3    H236081   3.014   0.091   1.148  0.0327 -1.3922 -0.8904
 4864TIP3   OH236082   0.881   2.339   5.536  0.0573  0.1432 -0.4471
 4864TIP3    H136083   0.846   2.271   5.479  0.3156 -1.1882  0.9182
 4864TIP3    H236084   0.863   2.308   5.624 -2.1041  3.0703  0.2812
 4865TIP3   OH236085   5.038   1.149  12.616  0.4146  0.2018 -0.5710
 4865TIP3    H136086   5.022   1.230  12.665  1.8572  0.3093 -0.2376
 4865TIP3    H236087   5.036   1.175  12.524  0.2524  0.4924 -0.4853
 4866TIP3   OH236088   1.164   0.927  14.614 -0.3827 -0.0956  0.2602
 4866TIP3    H136089   1.105   0.863  14.654 -0.9537 -0.3444 -0.9409
 4866TIP3    H236090   1.206   0.880  14.543 -0.8450  0.8670 -0.6749
 4867TIP3   OH236091   0.218   5.364  15.830 -0.6818 -0.5188  0.3780
 4867TIP3    H136092   0.128   5.357  15.799 -0.7215  0.4523  0.2372
 4867TIP3    H236093   0.210   5.396  15.920 -0.4734 -0.3365  0.3319
 4868TIP3   OH236094   3.342   2.082  15.782  0.1486  0.0766  0.0127
 4868TIP3    H136095   3.425   2.114  15.818  0.5061 -3.3939  2.7221
 4868TIP3    H236096   3.367   2.017  15.717 -0.2589 -2.5597  2.3450
 4869TIP3   OH236097   2.236   2.255  16.967  0.1007 -0.1292 -0.4919
 4869TIP3    H136098   2.242   2.188  16.899 -0.9031 -1.0502  0.2718
 4869TIP3    H236099   2.316   2.306  16.958 -0.3943  0.3451 -2.9093
 4870TIP3   OH236100   4.703   3.891   1.853  0.1382 -0.1863  0.4444
 4870TIP3    H136101   4.744   3.806   1.867  1.4455  0.1344 -1.1994
 4870TIP3    H236102   4.629   3.873   1.795  1.3181 -0.0429 -1.1633
 4871TIP3   OH236103   3.418   2.347  12.968 -0.0266 -0.3588  0.4372
 4871TIP3    H136104   3.459   2.397  13.039  0.0428 -0.6772  0.6206
 4871TIP3    H236105   3.470   2.267  12.961 -0.0697 -0.3592  0.0671
 4872TIP3   OH236106   2.223   6.055  15.498 -0.1917  0.4797 -0.8046
 4872TIP3    H136107   2.186   6.122  15.555  0.8983  0.6527 -0.2633
 4872TIP3    H236108   2.207   6.087  15.409 -0.8013  0.8220 -0.5810
 4873TIP3   OH236109   6.404   4.635  16.558  0.1562 -0.2845  0.6127
 4873TIP3    H136110   6.313   4.612  16.578  0.4833 -2.2676  0.0972
 4873TIP3    H236111   6.444   4.552  16.531  1.6383  0.8936 -1.0075
 4874TIP3   OH236112   2.139   0.319  12.678 -0.1336 -0.0575 -0.4845
 4874TIP3    H136113   2.134   0.405  12.636 -2.0042 -0.2623 -0.7682
 4874TIP3    H236114   2.053   0.306  12.717  1.2775 -0.1315  3.0394
 4875TIP3   OH236115   0.085   0.137  11.447  0.3837  0.4492 -0.1289
 4875TIP3    H136116   0.142   0.147  11.524  0.3955  0.7657 -0.1806
 4875TIP3    H236117   0.133   0.179  11.376 -0.4466  1.7907  0.0762
 4876TIP3   OH236118   1.375   5.174  14.166  0.5678 -0.0574  0.0308
 4876TIP3    H136119   1.355   5.121  14.243  1.6991 -0.0327  0.3620
 4876TIP3    H236120   1.347   5.262  14.189 -0.7882 -0.3784 -0.3038
 4877TIP3   OH236121   2.166   3.968   1.620  0.5224 -0.1376  0.3450
 4877TIP3    H136122   2.258   3.944   1.613  0.7492  0.9558 -1.1134
 4877TIP3    H236123   2.148   4.017   1.539 -1.3882 -0.4771  0.5072
 4878TIP3   OH236124   1.582   5.068   1.816 -0.2336  0.3277  0.3918
 4878TIP3    H136125   1.575   4.989   1.868 -0.8178  0.8633  1.1463
 4878TIP3    H236126   1.543   5.137   1.870  0.5916  1.2083 -0.0951
 4879TIP3   OH236127   1.739   3.043   5.363 -0.3375  0.1395 -0.1523
 4879TIP3    H136128   1.795   2.984   5.313 -0.1903  0.5966 -0.5385
 4879TIP3    H236129   1.672   2.987   5.402 -0.0588 -0.3062 -0.3197
 4880TIP3   OH236130   2.332   5.507   4.751  0.2199 -0.3163  0.0520
 4880TIP3    H136131   2.276   5.573   4.793  3.2606  1.8673  1.0051
 4880TIP3    H236132   2.373   5.460   4.823 -0.4382 -1.9950 -0.6263
 4881TIP3   OH236133   1.742   2.513  12.103 -0.5387 -0.2587  0.5820
 4881TIP3    H136134   1.828   2.551  12.117 -1.5359  3.0426 -1.0659
 4881TIP3    H236135   1.695   2.528  12.185 -0.8155  2.1619  0.0784
 4882TIP3   OH236136   2.404   4.750  14.925  0.5090 -0.0769  0.3977
 4882TIP3    H136137   2.327   4.805  14.937 -0.3215 -1.1952  0.3275
 4882TIP3    H236138   2.459   4.799  14.862 -0.3521  0.5072  0.0833
 4883TIP3   OH236139   5.107   2.078  17.090 -0.5763  0.5158 -0.3594
 4883TIP3    H136140   5.127   2.066  16.997 -1.8598  2.4647 -0.9509
 4883TIP3    H236141   5.185   2.120  17.127 -0.5311  0.8669 -0.8454
 4884TIP3   OH236142   1.531   0.985  13.406 -0.2206 -0.5166 -0.0584
 4884TIP3    H136143   1.489   1.003  13.491 -2.6282 -2.1479 -0.8068
 4884TIP3    H236144   1.497   1.053  13.348  0.3075 -0.2494 -0.0575
 4885TIP3   OH236145   1.653   5.679  11.759 -0.0908 -0.1273  0.1059
 4885TIP3    H136146   1.700   5.719  11.687 -2.1273  0.7036 -0.8600
 4885TIP3    H236147   1.687   5.590  11.764  0.8986  0.1564 -1.1312
 4886TIP3   OH236148   1.368   4.915  13.143  0.3109  0.3353 -0.1009
 4886TIP3    H136149   1.275   4.915  13.122  0.2554  0.1424  0.1461
 4886TIP3    H236150   1.393   4.823  13.141  0.0317  0.1780  1.8640
 4887TIP3   OH236151   0.507   5.592  14.262 -0.0931 -0.2297 -0.0916
 4887TIP3    H136152   0.556   5.543  14.328 -0.3605  0.3381  0.5384
 4887TIP3    H236153   0.424   5.546  14.254 -0.7560  0.6746  1.2442
 4888TIP3   OH236154   2.869   3.081   0.996 -0.0288  0.2476  0.1425
 4888TIP3    H136155   2.909   3.064   1.082  1.4319  2.1418 -0.1092
 4888TIP3    H236156   2.784   3.038   1.001 -0.0157  0.3499  2.5774
 4889TIP3   OH236157   5.525   5.793  11.701 -0.4655 -1.0400  0.2545
 4889TIP3    H136158   5.518   5.732  11.775 -2.8384 -1.0556  0.0922
 4889TIP3    H236159   5.558   5.874  11.741  0.6843 -1.7543  0.8415
 4890TIP3   OH236160   0.467   3.440  11.807  0.1264 -0.1176 -0.1703
 4890TIP3    H136161   0.382   3.475  11.837  0.2762  1.7080 -1.6698
 4890TIP3    H236162   0.446   3.390  11.728  0.4395  0.4917 -0.6499
 4891TIP3   OH236163   4.471   4.853   2.931 -0.8485 -0.2369  0.5360
 4891TIP3    H136164   4.483   4.921   2.997  0.2414  0.2822 -0.1741
 4891TIP3    H236165   4.542   4.791   2.947 -1.8505 -1.2697  1.1987
 4892TIP3   OH236166   2.244   1.784  13.142 -0.2536  0.2370  0.7671
 4892TIP3    H136167   2.258   1.846  13.214 -1.2449 -0.5121  1.6409
 4892TIP3    H236168   2.151   1.792  13.121 -0.8782 -2.2004  2.1602
 4893TIP3   OH236169   6.632   3.237  15.001 -0.1241  0.5023  0.0276
 4893TIP3    H136170   6.693   3.259  14.930 -0.0200  0.5278  0.1260
 4893TIP3    H236171   6.592   3.320  15.025 -0.7927  0.3700 -0.5911
 4894TIP3   OH236172   6.784   6.482  13.218 -0.2373  0.3546 -0.1335
 4894TIP3    H136173   6.866   6.521  13.249  0.1522  0.1480 -0.8938
 4894TIP3    H236174   6.717   6.549  13.237 -0.0599  0.1325  1.3666
 4895TIP3   OH236175   0.312   0.564   2.438  0.2393 -0.1930  0.0629
 4895TIP3    H136176   0.216   0.561   2.438  0.1928  0.4912  1.1978
 4895TIP3    H236177   0.333   0.658   2.438  0.9019 -0.3372  0.1247
 4896TIP3   OH236178   6.734   3.360   3.828 -0.0550  0.1213 -0.1925
 4896TIP3    H136179   6.829   3.356   3.823  0.0317  1.1027  0.3353
 4896TIP3    H236180   6.704   3.273   3.803  1.0680 -1.0737  2.2705
 4897TIP3   OH236181   1.780   2.404   0.443 -0.1382 -0.7628 -0.2178
 4897TIP3    H136182   1.704   2.390   0.499 -0.4260 -0.0940 -0.4446
 4897TIP3    H236183   1.766   2.346   0.369 -1.7767  1.2774 -1.5974
 4898TIP3   OH236184   1.254   4.012   1.256  0.2652 -0.3258  0.1935
 4898TIP3    H136185   1.206   4.049   1.330  3.1214  0.7482  1.6922
 4898TIP3    H236186   1.255   4.081   1.190 -0.1509 -0.3276  0.1823
 4899TIP3   OH236187   2.518   5.228  14.685  0.4118 -0.5243  0.4986
 4899TIP3    H136188   2.430   5.213  14.718 -0.5042 -0.1086 -1.5789
 4899TIP3    H236189   2.518   5.320  14.657  0.0666 -1.4877 -3.2594
 4900TIP3   OH236190   2.423   3.608   5.317  0.2196  0.5005 -0.1521
 4900TIP3    H136191   2.518   3.594   5.323  0.3185  1.0668 -0.3462
 4900TIP3    H236192   2.389   3.577   5.401  0.4711 -0.4991 -0.3993
 4901TIP3   OH236193   4.435   1.345  13.088  0.2124  0.1867 -0.0662
 4901TIP3    H136194   4.486   1.279  13.040 -0.1164  0.5971 -1.0066
 4901TIP3    H236195   4.412   1.410  13.022 -0.2659  0.7685  0.6569
 4902TIP3   OH236196   2.042   6.065  11.665 -0.3929 -0.7250 -0.4618
 4902TIP3    H136197   2.015   5.983  11.622  1.4242 -1.1294 -0.8904
 4902TIP3    H236198   2.095   6.037  11.739 -2.9488 -0.0009  1.7910
 4903TIP3   OH236199   4.514   5.780  15.481  0.0364 -0.0851  0.4308
 4903TIP3    H136200   4.499   5.851  15.417  0.2324 -0.0426  0.4340
 4903TIP3    H236201   4.609   5.772  15.487  0.0595 -1.8308 -1.2337
 4904TIP3   OH236202   1.109   5.699   5.704 -0.6338 -0.0424 -0.2221
 4904TIP3    H136203   1.118   5.747   5.622  0.2010  1.4146  0.6563
 4904TIP3    H236204   1.122   5.607   5.681  1.0545  0.4607 -1.5047
 4905TIP3   OH236205   2.177   1.096   3.491  0.1192  0.5010 -0.0196
 4905TIP3    H136206   2.098   1.084   3.544 -0.2714  1.6217 -0.3156
 4905TIP3    H236207   2.198   1.008   3.459 -1.8953  0.3723 -1.1592
 4906TIP3   OH236208   2.062   2.972  13.468  0.0997  0.3411  0.2025
 4906TIP3    H136209   2.068   2.879  13.446  1.4359  0.3790  0.3308
 4906TIP3    H236210   2.059   2.974  13.563  2.5792  0.4934  0.3354
 4907TIP3   OH236211   0.484   0.946  12.804 -0.4138 -0.2010 -0.6677
 4907TIP3    H136212   0.403   0.900  12.780  0.4304 -1.7225 -0.7449
 4907TIP3    H236213   0.521   0.974  12.721  0.2458 -1.4956 -0.8335
 4908TIP3   OH236214   4.656   1.461   2.660 -0.1986  0.4514 -0.1561
 4908TIP3    H136215   4.621   1.388   2.609  0.2353  0.4858 -0.5079
 4908TIP3    H236216   4.674   1.529   2.595  2.1349 -0.1769 -0.2554
 4909TIP3   OH236217   5.717   0.624   0.393  0.6119  0.1992  0.3451
 4909TIP3    H136218   5.685   0.714   0.391 -0.8257 -0.2868 -0.9807
 4909TIP3    H236219   5.702   0.595   0.483  0.7118  1.1533  0.6796
 4910TIP3   OH236220   3.429   2.028  15.052  0.3976  0.0938 -0.2478
 4910TIP3    H136221   3.441   1.933  15.056  0.6221  0.1530  0.5699
 4910TIP3    H236222   3.447   2.058  15.141 -1.9675  0.6440  0.1047
 4911TIP3   OH236223   3.014   5.821   4.336  0.4502 -0.1424  0.5358
 4911TIP3    H136224   3.024   5.727   4.326 -0.5203 -0.3180  1.0669
 4911TIP3    H236225   3.085   5.859   4.284 -0.3660 -1.1195 -1.4213
 4912TIP3   OH236226   1.737   3.770  13.288 -0.1407  0.1652 -0.2382
 4912TIP3    H136227   1.776   3.743  13.206  1.4243  2.5727 -0.3820
 4912TIP3    H236228   1.643   3.751  13.278  0.2486 -1.0248 -1.9154
 4913TIP3   OH236229   6.304   1.884   0.053  0.0763 -0.0158  0.6519
 4913TIP3    H136230   6.319   1.924  -0.032 -0.0373  0.5094  0.8719
 4913TIP3    H236231   6.348   1.800   0.049 -0.5927 -0.3362 -0.2055
 4914TIP3   OH236232   2.176   0.056   5.775 -0.1024  0.0408  0.1382
 4914TIP3    H136233   2.165   0.069   5.681  1.1992  1.1116  0.1025
 4914TIP3    H236234   2.188  -0.039   5.784 -0.9044 -0.1580 -0.6760
 4915TIP3   OH236235   2.398   3.577   6.002 -0.1167  0.0039  0.1552
 4915TIP3    H136236   2.321   3.626   5.974 -0.1084  0.5255  1.0118
 4915TIP3    H236237   2.469   3.610   5.947 -0.0386  1.2214  0.9521
 4916TIP3   OH236238   6.727   3.956  15.332  0.6149 -1.0159 -0.3184
 4916TIP3    H136239   6.758   3.990  15.416 -3.0300  1.8511  0.1409
 4916TIP3    H236240   6.633   3.943  15.344  0.3667 -3.0566 -3.2604
 4917TIP3   OH236241   4.137   4.224  13.275  0.1141 -0.1164  0.5654
 4917TIP3    H136242   4.075   4.296  13.286 -0.3038 -0.1029 -1.3955
 4917TIP3    H236243   4.223   4.267  13.267 -0.0558  0.1288  0.0188
 4918TIP3   OH236244   2.895   0.915   4.871 -0.1162  0.6084 -0.0155
 4918TIP3    H136245   2.831   0.876   4.930 -0.5547  0.3374 -0.6644
 4918TIP3    H236246   2.956   0.961   4.929  0.8650 -1.6256  0.8416
 4919TIP3   OH236247   4.801   1.421  11.599 -0.4629  0.3334 -0.6306
 4919TIP3    H136248   4.720   1.400  11.646 -0.2853  0.8539 -0.0829
 4919TIP3    H236249   4.787   1.509  11.565  0.0368  0.6067 -0.1509
 4920TIP3   OH236250   6.470   6.812  14.972  0.1761  0.2146  0.4139
 4920TIP3    H136251   6.386   6.835  14.932  1.3679  1.5443 -1.4751
 4920TIP3    H236252   6.447   6.751  15.042 -2.3304  0.3364 -0.2077
 4921TIP3   OH236253   1.741   6.316  16.404 -0.4665  0.3021  0.0458
 4921TIP3    H136254   1.758   6.246  16.341 -0.6717  1.0466 -0.8744
 4921TIP3    H236255   1.826   6.334  16.444  0.0368  0.9446 -1.2518
 4922TIP3   OH236256   1.487   5.015  13.597 -0.2246 -0.1771 -0.1103
 4922TIP3    H136257   1.415   5.074  13.576  0.1604  1.3275  2.4171
 4922TIP3    H236258   1.536   5.007  13.515 -0.6677  2.5293 -0.7302
 4923TIP3   OH236259   1.076   4.747  12.143 -0.1234 -0.3930 -0.1252
 4923TIP3    H136260   1.087   4.789  12.228 -0.9251 -1.0930  0.3465
 4923TIP3    H236261   1.024   4.810  12.092  1.1027  0.4124 -0.4179
 4924TIP3   OH236262   3.278   6.197  12.919 -0.3967  0.2151  0.7558
 4924TIP3    H136263   3.228   6.235  12.990  0.4232  0.0915  1.4135
 4924TIP3    H236264   3.285   6.104  12.940  0.6956  0.3428  1.0626
 4925TIP3   OH236265   3.032   5.087  13.650  0.2736 -0.3337  0.0711
 4925TIP3    H136266   3.017   5.159  13.589  0.1416 -0.5601 -0.1668
 4925TIP3    H236267   3.019   5.008  13.597  3.7211 -0.6080 -0.5662
 4926TIP3   OH236268   4.510   1.170   4.673 -0.4596  0.1539 -0.3146
 4926TIP3    H136269   4.441   1.216   4.720 -0.9107  0.8054 -1.5586
 4926TIP3    H236270   4.527   1.092   4.726 -0.1334  1.3969  1.4931
 4927TIP3   OH236271   4.494   0.768  16.223  0.1363  0.3500 -0.0167
 4927TIP3    H136272   4.456   0.727  16.301  0.4821 -0.6416 -0.3514
 4927TIP3    H236273   4.469   0.860  16.230 -0.9177  0.0412  0.6181
 4928TIP3   OH236274   6.424   1.435  10.252 -0.0376 -0.0493  0.0438
 4928TIP3    H136275   6.429   1.422  10.347  2.3133  1.5529  0.2379
 4928TIP3    H236276   6.462   1.355  10.215  1.3598  0.3342  0.5944
 4929TIP3   OH236277   2.574   2.857  15.996 -0.8938 -0.3804  0.2573
 4929TIP3    H136278   2.565   2.800  15.920  1.5791 -1.6486  0.7847
 4929TIP3    H236279   2.614   2.937  15.962  0.7573 -1.1715  0.2058
 4930TIP3   OH236280   1.787   5.010   1.070 -0.3053  0.6814  0.2190
 4930TIP3    H136281   1.781   4.920   1.104 -0.6910  0.9679  0.9175
 4930TIP3    H236282   1.794   5.065   1.148  0.1313  1.2480 -0.2134
 4931TIP3   OH236283   0.118   5.181   2.865  0.3461  0.1940 -0.0268
 4931TIP3    H136284   0.173   5.191   2.943  0.4276 -2.4340  0.3702
 4931TIP3    H236285   0.178   5.197   2.792  1.7819 -2.5672  0.3927
 4932TIP3   OH236286   5.702   3.404  14.854 -0.0159  0.2142 -0.1131
 4932TIP3    H136287   5.636   3.473  14.847 -1.5347 -1.1049  0.4126
 4932TIP3    H236288   5.745   3.402  14.769 -1.0759  0.7269 -0.6778
 4933TIP3   OH236289   1.529   1.312  16.877 -0.3626 -0.5877  0.0429
 4933TIP3    H136290   1.540   1.255  16.954  0.7586  0.8345  0.9881
 4933TIP3    H236291   1.598   1.284  16.817 -1.7300 -2.2329 -0.8463
 4934TIP3   OH236292   3.584   4.734  14.411 -0.4005  0.2540 -0.2366
 4934TIP3    H136293   3.632   4.723  14.493  1.6789 -2.7191 -1.6650
 4934TIP3    H236294   3.644   4.781  14.353  0.1286 -1.7819 -1.4378
 4935TIP3   OH236295   3.983   3.468  16.143  0.8465 -0.2621 -0.6019
 4935TIP3    H136296   4.050   3.409  16.176  1.9266  0.2776 -1.7237
 4935TIP3    H236297   3.989   3.545  16.200  0.0454 -0.8494  0.3044
 4936TIP3   OH236298   3.707   1.156   6.270 -0.1139  0.6313 -0.2935
 4936TIP3    H136299   3.698   1.062   6.286 -1.4555  0.9851  1.3231
 4936TIP3    H236300   3.654   1.172   6.191 -0.0811  0.0814 -0.4306
 4937TIP3   OH236301   5.926   5.896   4.387  0.5510 -0.6811 -0.0475
 4937TIP3    H136302   5.992   5.900   4.457  0.7647 -0.7242 -0.2457
 4937TIP3    H236303   5.972   5.858   4.313  0.0614 -1.5566  0.0839
 4938TIP3   OH236304   6.530   5.169   0.041 -0.2085  0.4290 -0.0988
 4938TIP3    H136305   6.529   5.239   0.107  0.4370 -0.1243  0.5194
 4938TIP3    H236306   6.600   5.194  -0.019  1.9994 -1.0401  1.6959
 4939TIP3   OH236307   3.939   3.594  16.901  0.4627 -0.1611  0.7316
 4939TIP3    H136308   3.931   3.634  16.815 -1.3723  1.1224  1.4393
 4939TIP3    H236309   4.025   3.621  16.932  0.9401 -0.2253 -0.4688
 4940TIP3   OH236310   1.637   5.142   0.482 -0.5989 -0.0889  0.6141
 4940TIP3    H136311   1.596   5.193   0.552  1.0190  1.1233  0.7180
 4940TIP3    H236312   1.652   5.205   0.411  0.6841 -0.5964  0.4134
 4941TIP3   OH236313   3.757   5.142   3.398  0.0817  0.5704 -0.3507
 4941TIP3    H136314   3.703   5.065   3.416  0.0872 -0.1665 -3.0868
 4941TIP3    H236315   3.796   5.163   3.483 -1.0744 -1.5128  0.8049
 4942TIP3   OH236316   5.387   1.127  14.754  0.1833 -0.1651 -0.0023
 4942TIP3    H136317   5.314   1.156  14.808  1.0095  1.0499  0.5147
 4942TIP3    H236318   5.464   1.139  14.810  0.7512 -1.8342 -0.3719
 4943TIP3   OH236319   6.487   6.084  16.530 -0.5495  0.0324  0.0877
 4943TIP3    H136320   6.458   6.049  16.614  0.1320 -0.7415  0.0156
 4943TIP3    H236321   6.511   6.175  16.549  1.0305 -0.5360  1.0974
 4944TIP3   OH236322   2.609   3.628   4.578 -0.1764 -0.2455 -0.2016
 4944TIP3    H136323   2.531   3.679   4.596  1.2330  2.4784 -1.2366
 4944TIP3    H236324   2.619   3.632   4.483  1.4481 -0.0969 -0.0586
 4945TIP3   OH236325   0.230   3.032  14.872  0.4644 -0.1411 -0.2473
 4945TIP3    H136326   0.205   2.950  14.915 -0.1437 -0.3839 -1.0459
 4945TIP3    H236327   0.215   3.099  14.939 -2.6748 -0.2206 -0.7016
 4946TIP3   OH236328   4.948   2.968   4.235  0.3176 -0.3315  0.2227
 4946TIP3    H136329   4.877   2.939   4.292  1.2157 -2.6196  0.2763
 4946TIP3    H236330   4.997   3.031   4.288 -2.5483  2.7418 -0.4193
 4947TIP3   OH236331   4.454   0.145  11.851 -0.2654  0.2652  0.0597
 4947TIP3    H136332   4.473   0.116  11.762  1.4492  1.4252  0.0187
 4947TIP3    H236333   4.539   0.154  11.893 -1.0029  0.5840  1.5655
 4948TIP3   OH236334   5.037   6.608   6.493  0.0500  0.3625 -0.3311
 4948TIP3    H136335   4.962   6.560   6.528 -0.4933  1.4643  0.0698
 4948TIP3    H236336   5.112   6.572   6.540 -0.6214  1.5436  1.7669
 4949TIP3   OH236337   4.189   5.121  12.479  0.4746 -0.7438 -0.1117
 4949TIP3    H136338   4.193   5.186  12.550 -2.4765  0.0573 -0.5454
 4949TIP3    H236339   4.260   5.060  12.498  0.8129  0.3628  2.5984
 4950TIP3   OH236340   0.739   6.632  12.600  0.1391  0.3592 -0.4696
 4950TIP3    H136341   0.707   6.718  12.628  0.5301  0.3249  0.0946
 4950TIP3    H236342   0.687   6.569  12.649  0.6980  0.2965  0.0541
 4951TIP3   OH236343   4.951   4.668  14.860 -0.1431  0.4481  0.2757
 4951TIP3    H136344   4.933   4.604  14.930  0.1870 -0.8351 -0.7629
 4951TIP3    H236345   4.864   4.696  14.831 -0.3928 -1.1114 -0.6221
 4952TIP3   OH236346   4.086   0.850   0.251 -0.2210  0.5733  0.0262
 4952TIP3    H136347   4.124   0.938   0.247  1.9985 -0.3221 -0.7087
 4952TIP3    H236348   4.162   0.791   0.242 -1.4195 -1.4602  2.0273
 4953TIP3   OH236349   3.976   2.112   4.190  0.5820  0.9666  0.1010
 4953TIP3    H136350   3.971   2.154   4.276 -1.6397  0.0583  0.4749
 4953TIP3    H236351   3.959   2.020   4.207  3.0543  0.2443 -1.0062
 4954TIP3   OH236352   3.621   2.349  15.598 -0.2807 -0.7140 -0.1662
 4954TIP3    H136353   3.575   2.306  15.526 -2.7468 -1.2557  1.6040
 4954TIP3    H236354   3.551   2.380  15.656  1.5055  2.2762  0.6084
 4955TIP3   OH236355   6.154   2.971  15.453  0.2896 -0.3417  0.2984
 4955TIP3    H136356   6.159   3.064  15.476 -0.3459 -0.2683  0.1777
 4955TIP3    H236357   6.115   2.970  15.365 -0.5353 -0.7523  0.6580
 4956TIP3   OH236358   0.648   2.669   2.412 -0.5272 -0.2941  0.0987
 4956TIP3    H136359   0.579   2.614   2.374 -1.1258  0.8917 -0.5922
 4956TIP3    H236360   0.727   2.645   2.365 -1.1266  0.6538 -1.4615
 4957TIP3   OH236361   0.878   6.410   3.009  0.4148 -0.1745  0.1007
 4957TIP3    H136362   0.804   6.351   2.994  1.0252 -1.5117  1.9392
 4957TIP3    H236363   0.838   6.490   3.042 -0.2338 -1.0573  1.5665
 4958TIP3   OH236364   3.021   0.307   2.586  0.1692  0.5276  0.0610
 4958TIP3    H136365   2.998   0.217   2.565  1.8234 -0.3729  1.8263
 4958TIP3    H236366   3.009   0.355   2.504 -2.0112 -0.9965 -0.5757
 4959TIP3   OH236367   2.146   6.055   2.076  0.0994  0.6361  0.2859
 4959TIP3    H136368   2.149   5.974   2.127 -0.7344 -0.0460 -0.7070
 4959TIP3    H236369   2.131   6.026   1.986  0.1761  1.8799 -0.1413
 4960TIP3   OH236370   4.075   6.281   0.651 -0.4741 -0.8804 -0.0897
 4960TIP3    H136371   4.008   6.279   0.719  2.7463  2.8210  3.7484
 4960TIP3    H236372   4.144   6.224   0.684  0.5536 -0.2007 -0.9934
 4961TIP3   OH236373   4.342   2.757  13.339 -0.5709  0.3063  0.2126
 4961TIP3    H136374   4.309   2.737  13.252  1.3132  0.5181 -0.5786
 4961TIP3    H236375   4.350   2.672  13.382 -1.4600  0.1991  0.1811
 4962TIP3   OH236376   3.536   2.842   4.274  0.2518  0.4466 -0.3153
 4962TIP3    H136377   3.532   2.810   4.184  0.5379 -1.4739  0.3181
 4962TIP3    H236378   3.583   2.926   4.267 -0.3254  0.6608 -2.0109
 4963TIP3   OH236379   3.911   0.782   1.678 -0.0095  0.6817  0.4172
 4963TIP3    H136380   3.863   0.824   1.607 -0.9347 -0.6310  0.2377
 4963TIP3    H236381   3.970   0.720   1.635 -0.1721  0.2772  0.7671
 4964TIP3   OH236382   5.123   5.130   5.054 -0.0972  0.7574  0.0013
 4964TIP3    H136383   5.189   5.067   5.082  0.8343  1.0527 -1.4298
 4964TIP3    H236384   5.087   5.166   5.136  0.6801 -0.2518  0.8027
 4965TIP3   OH236385   6.101   5.726   5.247  0.5941  0.2273  0.0188
 4965TIP3    H136386   6.129   5.727   5.155 -1.6965 -1.3450 -0.7963
 4965TIP3    H236387   6.037   5.797   5.253  2.4767  1.9282  1.1114
 4966TIP3   OH236388   1.458   3.397  16.699 -0.4534 -0.3346 -0.4250
 4966TIP3    H136389   1.410   3.472  16.736  0.6203 -0.2823  0.9270
 4966TIP3    H236390   1.449   3.328  16.764  1.7540 -0.1425  0.1653
 4967TIP3   OH236391   4.187   2.936  14.234  0.1958 -0.0771  0.4021
 4967TIP3    H136392   4.236   2.854  14.228 -0.0565 -0.1722 -0.5556
 4967TIP3    H236393   4.108   2.920  14.182  1.9281  2.0406 -3.2413
 4968TIP3   OH236394   5.685   4.207   3.642  0.4569  0.0275  0.2813
 4968TIP3    H136395   5.669   4.119   3.675  1.6540  0.7345  3.1111
 4968TIP3    H236396   5.627   4.263   3.694  0.0139  0.9735 -1.1681
 4969TIP3   OH236397   6.507   2.439   0.054 -0.2871  0.4441  0.2744
 4969TIP3    H136398   6.578   2.478   0.001 -0.6582  1.4948  0.5137
 4969TIP3    H236399   6.429   2.450  -0.000 -0.1835 -1.3273 -0.2800
 4970TIP3   OH236400   0.947   0.956   4.340 -0.0368 -0.3340 -0.0492
 4970TIP3    H136401   0.967   1.006   4.419  0.1160 -0.9770  0.3354
 4970TIP3    H236402   1.020   0.973   4.281 -0.9716  1.5030 -0.7521
 4971TIP3   OH236403   5.751   5.820  12.588 -0.4475 -0.2109 -0.1352
 4971TIP3    H136404   5.844   5.800  12.586 -0.1025  1.3141 -1.8708
 4971TIP3    H236405   5.723   5.799  12.677  1.7484  0.2234  0.6945
 4972TIP3   OH236406   5.971   5.054  12.540  0.0711  0.5289  0.8256
 4972TIP3    H136407   5.984   5.034  12.447 -3.4813 -0.4498  0.3910
 4972TIP3    H236408   5.983   4.970  12.584 -1.3127  0.2953  0.7963
 4973TIP3   OH236409   1.172   1.704  11.236 -0.0516  0.1723  0.6190
 4973TIP3    H136410   1.169   1.700  11.332  2.1999  0.8691  0.7678
 4973TIP3    H236411   1.152   1.796  11.216  3.0412  0.9762  0.7240
 4974TIP3   OH236412   2.591   2.862  13.106  0.2853 -0.1288 -0.0703
 4974TIP3    H136413   2.604   2.769  13.085  0.0088 -0.0839 -0.4494
 4974TIP3    H236414   2.498   2.877  13.088  0.2552  0.1395  0.3124
 4975TIP3   OH236415   3.845   1.028  15.781 -0.4075  0.4035  0.6747
 4975TIP3    H136416   3.772   0.966  15.778  0.4542 -0.6730  1.1012
 4975TIP3    H236417   3.808   1.111  15.752 -1.8832 -0.0254  1.2765
 4976TIP3   OH236418   0.773   4.688  14.006  0.1985  0.1338 -0.1921
 4976TIP3    H136419   0.845   4.743  13.974 -0.1717  0.5229 -0.3771
 4976TIP3    H236420   0.813   4.604  14.025  1.0071  0.7791  1.1334
 4977TIP3   OH236421   5.188   2.561   3.439  0.1804 -0.0673  0.3453
 4977TIP3    H136422   5.271   2.530   3.476  0.6693 -0.0501 -0.7023
 4977TIP3    H236423   5.127   2.559   3.513  0.7255 -1.5188  0.7985
 4978TIP3   OH236424   6.013   3.744   1.022  0.7058  0.2023  0.0181
 4978TIP3    H136425   6.057   3.679   1.076 -0.4338  0.4285  1.2839
 4978TIP3    H236426   5.929   3.704   1.000 -0.8135  1.8335  2.3432
 4979TIP3   OH236427   6.807   1.602   3.637 -0.3961 -0.8396 -0.3542
 4979TIP3    H136428   6.875   1.603   3.570 -0.0316 -0.3674  0.0152
 4979TIP3    H236429   6.800   1.511   3.663  0.5793 -0.7983  0.0885
 4980TIP3   OH236430   2.811   2.427  10.326 -0.4824 -0.0526 -0.4708
 4980TIP3    H136431   2.730   2.461  10.366  0.4662  2.6704 -0.6251
 4980TIP3    H236432   2.855   2.505  10.292  1.9323 -1.5251 -0.9495
 4981TIP3   OH236433   1.824   3.633  14.098  0.1998 -0.2053  0.5581
 4981TIP3    H136434   1.746   3.641  14.153 -1.2641 -1.2794 -1.2652
 4981TIP3    H236435   1.851   3.723  14.081 -1.2730  0.2143  0.3527
 4982TIP3   OH236436   2.037   5.676  13.027 -0.1057  0.3082 -1.0163
 4982TIP3    H136437   2.056   5.601  13.083 -1.5541  0.8639  0.2767
 4982TIP3    H236438   2.116   5.730  13.031 -0.0779  0.1903  0.2616
 4983TIP3   OH236439   1.693   4.123   2.002 -0.1519  0.2429 -0.0841
 4983TIP3    H136440   1.632   4.104   2.073  0.3551  0.9210  0.5513
 4983TIP3    H236441   1.662   4.070   1.929 -0.9018 -0.1887  0.5298
 4984TIP3   OH236442   1.097   4.924  13.099 -0.3757 -0.1388 -0.3467
 4984TIP3    H136443   1.076   5.015  13.079  2.2009  0.6045 -0.1088
 4984TIP3    H236444   1.034   4.898  13.166 -1.0531  1.5350 -0.3131
 4985TIP3   OH236445   3.290   0.628   0.139 -0.4720  0.0931  0.1770
 4985TIP3    H136446   3.196   0.615   0.151 -0.3726  0.4314  1.5479
 4985TIP3    H236447   3.325   0.631   0.228  1.3466 -3.5280 -0.1946
 4986TIP3   OH236448   1.232   3.994  12.324 -0.0563 -0.4352 -0.4542
 4986TIP3    H136449   1.182   4.000  12.243  1.1548 -0.9776 -1.2838
 4986TIP3    H236450   1.297   3.925  12.307  1.6591  0.9638  0.1684
 4987TIP3   OH236451   3.506   4.530   4.667  0.3405 -0.1997  0.1423
 4987TIP3    H136452   3.459   4.596   4.718  1.4221  0.7532 -0.0532
 4987TIP3    H236453   3.439   4.494   4.608 -0.7764 -0.8555  1.7321
 4988TIP3   OH236454   0.179   5.386  16.157 -0.5160 -0.2395  0.0570
 4988TIP3    H136455   0.250   5.325  16.175 -0.0620 -0.1561 -1.3504
 4988TIP3    H236456   0.179   5.446  16.232  0.3415 -0.7395  0.4745
 4989TIP3   OH236457   6.826   2.136   0.854 -0.7639  0.2182  0.2476
 4989TIP3    H136458   6.750   2.107   0.903 -0.8738 -0.7031 -0.4303
 4989TIP3    H236459   6.882   2.058   0.849 -0.3010  0.5759 -0.2150
 4990TIP3   OH236460   3.525   6.768   3.883 -0.4834 -0.1547 -0.6103
 4990TIP3    H136461   3.510   6.849   3.834  0.1870 -0.8404 -2.0077
 4990TIP3    H236462   3.620   6.764   3.892 -0.5777 -0.2768  0.3684
 4991TIP3   OH236463   2.286   2.268   4.722 -0.3224  0.5321 -0.5796
 4991TIP3    H136464   2.243   2.227   4.797  0.0935  0.0187 -0.6208
 4991TIP3    H236465   2.230   2.245   4.647  0.1361 -0.3232 -0.6658
 4992TIP3   OH236466   3.432   2.580   0.696 -0.0794 -0.0761  0.2086
 4992TIP3    H136467   3.496   2.627   0.643 -1.1469  0.1691 -0.9316
 4992TIP3    H236468   3.462   2.489   0.695  1.1470  0.2952  1.1101
 4993TIP3   OH236469   3.593   2.602  12.748 -0.5356  0.0818  0.2981
 4993TIP3    H136470   3.564   2.628  12.836 -0.3515  1.4649 -0.0286
 4993TIP3    H236471   3.587   2.507  12.748 -1.3344  0.1140  1.5347
 4994TIP3   OH236472   0.675   4.814  11.638  0.6442  0.2136  0.0592
 4994TIP3    H136473   0.612   4.862  11.583  1.0570 -0.0027 -0.6203
 4994TIP3    H236474   0.622   4.778  11.709 -0.2290 -0.8767 -1.0893
 4995TIP3   OH236475   2.661   3.506   3.980 -0.2730 -0.1977  0.2240
 4995TIP3    H136476   2.676   3.411   3.984  3.1217  0.2351  2.0483
 4995TIP3    H236477   2.644   3.523   3.887 -2.3805 -2.6801  0.0379
 4996TIP3   OH236478   0.683   4.251   1.348 -0.0934 -0.4196 -0.2842
 4996TIP3    H136479   0.588   4.260   1.341 -0.0314  1.9053  0.8814
 4996TIP3    H236480   0.713   4.338   1.376  2.4356 -0.9474 -1.1340
 4997TIP3   OH236481   1.262   4.307   4.438 -0.6240 -0.4335 -0.2965
 4997TIP3    H136482   1.292   4.363   4.510  0.0539 -2.2679  0.9158
 4997TIP3    H236483   1.197   4.249   4.477 -0.3428 -1.3834 -1.1809
 4998TIP3   OH236484   2.974   3.372   1.279 -0.4977  0.5553 -0.0226
 4998TIP3    H136485   3.005   3.310   1.345 -1.6227  0.3346  0.3176
 4998TIP3    H236486   3.000   3.458   1.312 -1.1171  0.4519  0.7568
 4999TIP3   OH236487   4.844   6.508   4.760  0.6846  0.4096  0.2369
 4999TIP3    H136488   4.921   6.534   4.811 -0.0087 -1.2893  2.2783
 4999TIP3    H236489   4.832   6.416   4.781 -0.2665 -0.1137 -2.2774
 5000TIP3   OH236490   5.363   2.575   1.141  0.2703 -0.0665 -0.1874
 5000TIP3    H136491   5.382   2.492   1.185  1.5710 -0.5794 -1.6571
 5000TIP3    H236492   5.403   2.641   1.198  1.0846 -0.6277 -0.0909
 5001TIP3   OH236493   4.340   1.271   5.367  0.2884 -0.4176  0.5339
 5001TIP3    H136494   4.322   1.309   5.453  1.6044  0.0415  0.6315
 5001TIP3    H236495   4.398   1.197   5.385  0.2581 -0.5592  0.0663
 5002TIP3   OH236496   2.498   3.925   5.621 -0.0344 -0.3692  0.1888
 5002TIP3    H136497   2.428   3.983   5.650  0.6096  0.4061  0.2340
 5002TIP3    H236498   2.525   3.960   5.536  2.2032  1.1345  1.4042
 5003TIP3   OH236499   6.828   1.238  16.918  0.0181  0.3006  0.2793
 5003TIP3    H136500   6.794   1.324  16.940 -0.7332  0.3894 -1.0953
 5003TIP3    H236501   6.817   1.186  16.997  2.9110  2.0984  2.0658
 5004TIP3   OH236502   1.408   6.659   3.849 -0.4874  0.2796 -0.2349
 5004TIP3    H136503   1.372   6.582   3.804 -3.2153  0.6753  1.1009
 5004TIP3    H236504   1.364   6.733   3.808  0.1137  0.9562  0.3194
 5005TIP3   OH236505   3.448   5.488   2.565 -0.4875 -0.0198 -0.6274
 5005TIP3    H136506   3.484   5.428   2.500  1.4704  0.7919 -0.3671
 5005TIP3    H236507   3.505   5.476   2.642 -1.3119  0.7230  0.1234
 5006TIP3   OH236508   6.245   1.969  12.579  0.4501  0.1645  0.2185
 5006TIP3    H136509   6.260   1.888  12.531  0.3505  0.7767 -0.8735
 5006TIP3    H236510   6.150   1.980  12.578  0.3226 -0.5634  1.8392
 5007TIP3   OH236511   4.438   2.658  16.800  0.4299  0.3394  0.3321
 5007TIP3    H136512   4.461   2.747  16.827  0.1253  0.5410 -0.0610
 5007TIP3    H236513   4.342   2.658  16.798  0.4344  0.7113 -1.9839
 5008TIP3   OH236514   4.139   2.029  16.633 -0.4341 -0.6626  0.3033
 5008TIP3    H136515   4.186   1.949  16.607  2.1193  0.7531  0.2411
 5008TIP3    H236516   4.104   2.064  16.552 -0.6496 -1.1385  0.1825
 5009TIP3   OH236517   2.648   1.831   3.078 -0.2259  0.3930  0.3920
 5009TIP3    H136518   2.630   1.836   2.984 -0.3511 -0.9357  0.3307
 5009TIP3    H236519   2.706   1.905   3.096 -0.7422  1.0571 -0.5957
 5010TIP3   OH236520   1.031   3.510  14.033 -0.4528 -0.1773 -0.1657
 5010TIP3    H136521   0.976   3.474  14.103 -1.4154  1.3084 -0.1180
 5010TIP3    H236522   0.985   3.589  14.005  0.1385 -0.4939 -2.1843
 5011TIP3   OH236523   5.521   6.277  15.906  0.5242  0.3731 -0.2656
 5011TIP3    H136524   5.519   6.221  15.829 -0.2740  0.4074 -0.2775
 5011TIP3    H236525   5.563   6.224  15.973 -1.0465 -0.6218 -0.0082
 5012TIP3   OH236526   2.703   3.390   3.581  0.0709 -0.7538 -0.0980
 5012TIP3    H136527   2.641   3.413   3.650 -0.2879 -1.8491 -0.0349
 5012TIP3    H236528   2.740   3.306   3.610  1.3785 -0.2614 -0.2689
 5013TIP3   OH236529   1.827   1.331  14.254 -0.2066  0.3718  0.3770
 5013TIP3    H136530   1.750   1.327  14.197  1.9053  0.9563 -2.7153
 5013TIP3    H236531   1.836   1.424  14.275 -0.2110  0.3289  0.5720
 5014TIP3   OH236532   2.144   5.414  16.171 -0.0490 -0.1040 -0.6623
 5014TIP3    H136533   2.095   5.473  16.229 -0.9958 -1.0408 -0.4682
 5014TIP3    H236534   2.138   5.328  16.215  1.2372 -0.3603 -0.9676
 5015TIP3   OH236535   2.710   1.168  16.101 -0.5295 -0.1203 -0.0076
 5015TIP3    H136536   2.753   1.149  16.017  0.3509 -0.3283  0.4794
 5015TIP3    H236537   2.691   1.082  16.138 -0.0899 -0.0425  0.4129
 5016TIP3   OH236538   2.422   6.282  12.317 -0.1881  0.2011  0.7448
 5016TIP3    H136539   2.384   6.338  12.249 -1.2991 -1.9220 -0.4747
 5016TIP3    H236540   2.395   6.323  12.399 -2.1539  0.7301 -0.0976
 5017TIP3   OH236541   1.675   2.469  14.570  0.8315  0.6603  0.0764
 5017TIP3    H136542   1.676   2.492  14.477 -2.3657  0.3489 -0.1453
 5017TIP3    H236543   1.637   2.545  14.613 -0.5471 -0.3395  0.6762
 5018TIP3   OH236544   1.998   3.708   2.803 -0.4098 -0.3648 -0.8467
 5018TIP3    H136545   2.041   3.779   2.850 -2.8392  0.2878  0.5548
 5018TIP3    H236546   2.062   3.637   2.803  0.9810  0.8237  0.3311
 5019TIP3   OH236547   3.394   0.830   1.516 -0.7263 -0.1002  0.1880
 5019TIP3    H136548   3.377   0.900   1.579 -0.2617 -0.1364  0.3627
 5019TIP3    H236549   3.310   0.812   1.475 -0.6636  1.3085 -0.6268
 5020TIP3   OH236550   3.414   6.360   0.272  0.6762 -0.2947  0.0494
 5020TIP3    H136551   3.391   6.308   0.195 -4.6497  3.5038 -1.5135
 5020TIP3    H236552   3.378   6.311   0.346  0.0354 -1.0111 -0.7195
 5021TIP3   OH236553   1.698   5.355   3.996  0.1378  0.4292  0.0698
 5021TIP3    H136554   1.615   5.401   3.988  1.0716  2.3106  0.7077
 5021TIP3    H236555   1.739   5.390   4.075  2.0322  0.4159 -0.8318
 5022TIP3   OH236556   4.385   3.367   3.239 -0.6475  0.3709  0.5936
 5022TIP3    H136557   4.298   3.327   3.237 -1.0564  1.2537 -0.1004
 5022TIP3    H236558   4.431   3.325   3.166 -0.8500  0.6551  0.2970
 5023TIP3   OH236559   1.897   4.248  16.402  0.1820  0.3063 -0.0287
 5023TIP3    H136560   1.961   4.308  16.440 -1.1788  0.7095  1.7730
 5023TIP3    H236561   1.816   4.299  16.398 -0.8599 -1.1888  0.9774
 5024TIP3   OH236562   6.027   1.110   4.523  0.4148  0.5037  0.4217
 5024TIP3    H136563   5.948   1.160   4.502  0.0892  0.0721  0.5960
 5024TIP3    H236564   6.099   1.166   4.495  0.0406  0.7841  0.0034
 5025TIP3   OH236565   6.546   3.022   5.369 -0.1485  0.5253  0.0069
 5025TIP3    H136566   6.591   3.071   5.438  0.7282 -2.0522  1.3693
 5025TIP3    H236567   6.453   3.038   5.386  0.0801  0.6421  1.2575
 5026TIP3   OH236568   0.340   5.932  13.319 -0.0291 -0.5294  0.0158
 5026TIP3    H136569   0.356   6.011  13.268  1.3051  0.5106  1.9453
 5026TIP3    H236570   0.361   5.860  13.259  1.5082  0.6346 -0.9100
 5027TIP3   OH236571   0.203   0.078  13.131 -0.0829  0.0709  0.3414
 5027TIP3    H136572   0.192   0.162  13.175 -2.2381 -0.6801  1.4093
 5027TIP3    H236573   0.151   0.086  13.051 -0.1866 -0.1884  0.3812
 5028TIP3   OH236574   6.747   1.511  12.126  0.4305  0.4725  0.7187
 5028TIP3    H136575   6.737   1.606  12.123  0.9228  0.5009 -0.2952
 5028TIP3    H236576   6.832   1.494  12.085 -0.9855 -0.5945 -2.0331
 5029TIP3   OH236577   5.025   4.121  11.470  0.6824  0.3333  0.3082
 5029TIP3    H136578   5.083   4.103  11.396 -1.9139 -2.7197 -1.2151
 5029TIP3    H236579   5.055   4.061  11.539  1.5450  1.3994  0.8913
 5030TIP3   OH236580   5.186   5.067   3.025  0.0362  0.1875 -0.7278
 5030TIP3    H136581   5.171   5.147   3.076  0.0780 -0.7128  0.7610
 5030TIP3    H236582   5.117   5.067   2.959  0.9382  2.1965 -1.7382
 5031TIP3   OH236583   3.657   4.025   1.509  0.2833  0.2059 -0.3196
 5031TIP3    H136584   3.746   4.011   1.540 -0.0887 -1.8109  0.0259
 5031TIP3    H236585   3.665   4.035   1.414  0.8578 -0.5322 -0.3583
 5032TIP3   OH236586   3.930   2.298  12.266  0.3630 -0.3923 -0.0024
 5032TIP3    H136587   4.002   2.271  12.322  1.6210  2.5091 -0.0379
 5032TIP3    H236588   3.904   2.384  12.300  1.8727  2.0529 -4.2073
 5033TIP3   OH236589   1.536   3.353   5.926 -0.5002  0.7509  0.6463
 5033TIP3    H136590   1.536   3.274   5.980  0.1989  0.3208  0.0307
 5033TIP3    H236591   1.608   3.406   5.961 -1.8591  1.7977  1.9967
 5034TIP3   OH236592   4.099   5.633  17.048  0.2069  0.3010 -0.9546
 5034TIP3    H136593   4.017   5.648  17.096  0.8249  0.5118  0.0402
 5034TIP3    H236594   4.070   5.619  16.958 -0.8326  2.0522 -0.9545
 5035TIP3   OH236595   4.887   0.131  17.173 -0.0799  0.7230 -0.1891
 5035TIP3    H136596   4.910   0.098  17.260  0.3914  0.8245 -0.2732
 5035TIP3    H236597   4.888   0.053  17.117  1.3998  0.9125 -0.4627
 5036TIP3   OH236598   5.760   6.168   5.435 -0.4286 -0.1230  0.2566
 5036TIP3    H136599   5.688   6.221   5.469 -1.4051  0.5231 -2.5582
 5036TIP3    H236600   5.722   6.119   5.363  1.4321 -1.6266  0.2238
 5037TIP3   OH236601   4.317   4.126  15.920  0.0024 -0.3639  0.2869
 5037TIP3    H136602   4.308   4.121  15.825 -0.0916  2.0596  0.1112
 5037TIP3    H236603   4.359   4.210  15.936  0.7143 -1.0550  2.3795
 5038TIP3   OH236604   4.763   4.711   0.053  0.0424  0.2434 -0.4466
 5038TIP3    H136605   4.670   4.700   0.076 -0.3889  0.1846 -2.0475
 5038TIP3    H236606   4.775   4.806   0.053  0.2721  0.2251  0.7577
 5039TIP3   OH236607   1.154   5.738  13.512  0.0476  0.5469 -0.0123
 5039TIP3    H136608   1.084   5.762  13.451  0.0595 -3.2008 -1.7798
 5039TIP3    H236609   1.122   5.768  13.597 -1.9492  2.2186 -1.2499
 5040TIP3   OH236610   0.553   0.574  14.574  0.3168  0.0400 -0.5809
 5040TIP3    H136611   0.492   0.508  14.543  3.2241 -3.6694  0.8294
 5040TIP3    H236612   0.521   0.598  14.661 -0.2074 -0.3303 -0.6682
 5041TIP3   OH236613   5.774   2.527   1.016 -0.3975  0.0049  0.2319
 5041TIP3    H136614   5.756   2.618   1.039 -1.6664 -0.4195  1.0714
 5041TIP3    H236615   5.782   2.483   1.101  1.8515 -0.4159 -0.1220
 5042TIP3   OH236616   0.353   1.352  11.294 -0.2994 -0.3236 -0.2350
 5042TIP3    H136617   0.400   1.345  11.211  0.0190  3.2830 -0.5221
 5042TIP3    H236618   0.422   1.366  11.359 -0.7010  2.7582 -0.3339
 5043TIP3   OH236619   1.874   1.134  13.653  0.3436  0.2473 -0.2692
 5043TIP3    H136620   1.798   1.078  13.671  0.7969 -0.4782 -0.6170
 5043TIP3    H236621   1.934   1.117  13.726 -0.1534  1.4290  0.4471
 5044TIP3   OH236622   2.733   3.331  14.838  0.0733  0.2450  0.1574
 5044TIP3    H136623   2.692   3.399  14.892 -0.8494 -1.0421  1.1570
 5044TIP3    H236624   2.805   3.298  14.891 -1.5781 -1.8705  1.2539
 5045TIP3   OH236625   6.258   0.357  16.694  0.2601 -0.0493 -0.5469
 5045TIP3    H136626   6.224   0.279  16.649 -0.8346  0.3353 -0.3907
 5045TIP3    H236627   6.192   0.424  16.679  0.9742  0.7247 -0.2669
 5046TIP3   OH236628   3.432   6.108  13.920  0.2637 -0.3014 -0.0571
 5046TIP3    H136629   3.401   6.163  13.847 -1.0764 -1.3137 -0.2985
 5046TIP3    H236630   3.475   6.169  13.979 -1.3178  1.0598 -0.2381
 5047TIP3   OH236631   1.587   0.568  16.903 -0.1611  0.6966 -0.2364
 5047TIP3    H136632   1.586   0.657  16.940 -0.3583  0.4764  0.2990
 5047TIP3    H236633   1.627   0.514  16.971 -1.2870  0.1411  0.0119
 5048TIP3   OH236634   0.108   6.063   3.981 -0.3241  0.1904  0.1070
 5048TIP3    H136635   0.084   5.970   3.991  1.8090 -0.2649  1.7764
 5048TIP3    H236636   0.176   6.063   3.913 -1.8537  0.8829 -1.4881
 5049TIP3   OH236637   2.361   0.553   5.010  0.0731 -0.0380 -0.1333
 5049TIP3    H136638   2.406   0.626   4.967 -1.3889 -0.0548 -1.8359
 5049TIP3    H236639   2.303   0.594   5.074  0.8369  0.1229  0.4685
 5050TIP3   OH236640   5.772   2.293  10.237  0.0687  0.1064  0.1426
 5050TIP3    H136641   5.752   2.212  10.190  0.3118  0.6959 -1.0127
 5050TIP3    H236642   5.688   2.337  10.247  0.0892  0.2210 -0.1974
 5051TIP3   OH236643   3.031   5.479  13.159 -0.1663  0.1648  0.0071
 5051TIP3    H136644   2.996   5.390  13.170 -0.8322  0.5912  1.7268
 5051TIP3    H236645   3.119   5.474  13.197 -0.8290  0.5933  1.7044
 5052TIP3   OH236646   0.864   3.483   1.195 -0.2744  0.4855  0.4287
 5052TIP3    H136647   0.783   3.432   1.198  0.1240 -0.3339 -1.4002
 5052TIP3    H236648   0.840   3.562   1.146  0.5448 -0.9245 -2.4371
 5053TIP3   OH236649   5.175   4.504   0.834 -0.0519 -0.3894  0.0192
 5053TIP3    H136650   5.092   4.535   0.870 -0.2981  0.9856 -1.6362
 5053TIP3    H236651   5.157   4.414   0.806 -0.7025 -0.4195  0.5126
 5054TIP3   OH236652   1.107   1.292   2.352  0.1150  0.3154 -0.5123
 5054TIP3    H136653   1.196   1.287   2.386  0.9389  1.7274 -2.3087
 5054TIP3    H236654   1.096   1.214   2.298 -1.0658 -1.7349  2.4167
 5055TIP3   OH236655   3.111   4.014  14.525  0.3641 -0.1516 -0.1314
 5055TIP3    H136656   3.096   4.052  14.439 -2.5664 -0.4165  0.1614
 5055TIP3    H236657   3.025   4.013  14.566  1.3253 -1.8624  2.0586
 5056TIP3   OH236658   3.719   0.736   3.332  0.1228  0.5682 -0.3196
 5056TIP3    H136659   3.636   0.783   3.318  0.0819  1.2328  1.7582
 5056TIP3    H236660   3.694   0.658   3.381  0.6662  0.4806 -0.1773
 5057TIP3   OH236661   5.405   0.307  13.758 -0.5375 -0.5793 -0.1459
 5057TIP3    H136662   5.372   0.292  13.670  1.3473  0.8124 -1.1576
 5057TIP3    H236663   5.456   0.229  13.779 -0.8803 -0.8529 -0.3256
 5058TIP3   OH236664   6.005   1.148  10.275  0.3663  0.1806 -0.5488
 5058TIP3    H136665   6.070   1.192  10.330  0.2748 -1.6012  1.1057
 5058TIP3    H236666   6.057   1.095  10.214  0.4768 -0.4299  0.0707
 5059TIP3   OH236667   0.163   6.452  14.865  0.3892 -0.3880  0.3061
 5059TIP3    H136668   0.205   6.485  14.944 -0.5344 -1.6763  1.3736
 5059TIP3    H236669   0.156   6.358  14.878 -1.2155 -0.4444 -0.6015
 5060TIP3   OH236670   2.224   4.173  13.233 -0.3121 -0.0736 -0.2461
 5060TIP3    H136671   2.214   4.106  13.299  1.6615 -1.8699 -1.6365
 5060TIP3    H236672   2.252   4.251  13.281  0.7862 -1.2448  1.0935
 5061TIP3   OH236673   4.389   4.023   1.959 -0.0364 -0.4231  0.2466
 5061TIP3    H136674   4.385   4.029   1.863 -1.8879  1.8439  0.3756
 5061TIP3    H236675   4.444   4.096   1.985 -2.2510  1.0819  0.9814
 5062TIP3   OH236676   0.781   3.749   6.570  0.0285 -0.5414 -0.2047
 5062TIP3    H136677   0.786   3.824   6.629 -0.0691  0.2419 -1.1630
 5062TIP3    H236678   0.755   3.676   6.626 -1.4723  0.4768  0.4893
 5063TIP3   OH236679   2.922   4.373   5.180 -0.3518  0.6038  0.3190
 5063TIP3    H136680   3.008   4.415   5.173  0.0697 -0.2444  0.3887
 5063TIP3    H236681   2.907   4.365   5.274  0.0489 -0.3531  0.3145
 5064TIP3   OH236682   0.535   5.942   4.731 -0.7633 -0.2257  0.5490
 5064TIP3    H136683   0.577   5.864   4.694 -0.9271 -0.0044 -0.1266
 5064TIP3    H236684   0.598   5.974   4.795 -1.3327 -1.7488  1.9418
 5065TIP3   OH236685   4.184   0.687   2.419 -0.3423 -0.1872 -0.0432
 5065TIP3    H136686   4.155   0.596   2.425  2.9051 -1.2826  0.9858
 5065TIP3    H236687   4.103   0.737   2.406 -2.1896 -3.2238 -1.3049
 5066TIP3   OH236688   4.721   0.192   3.444  0.3341 -0.0804  0.2091
 5066TIP3    H136689   4.773   0.261   3.403  1.5451 -0.9887  0.1650
 5066TIP3    H236690   4.686   0.233   3.523 -1.0115  1.3108 -1.0437
 5067TIP3   OH236691   6.407   2.375   3.211 -0.3043 -0.0211  0.3910
 5067TIP3    H136692   6.323   2.417   3.196  0.0997  0.5848 -0.2455
 5067TIP3    H236693   6.413   2.309   3.142  0.6123  1.3092 -0.8575
 5068TIP3   OH236694   1.131   2.320   5.813  0.1135  0.0722  0.6151
 5068TIP3    H136695   1.215   2.347   5.776  0.5931  1.6666  2.6679
 5068TIP3    H236696   1.086   2.401   5.834 -2.4856 -0.7130 -1.3383
 5069TIP3   OH236697   1.518   4.491   5.732  0.0143 -0.7431 -0.1399
 5069TIP3    H136698   1.568   4.513   5.653  0.7795 -1.5605  0.0885
 5069TIP3    H236699   1.440   4.447   5.699 -0.0179 -0.4403 -0.4716
 5070TIP3   OH236700   2.356   5.286  11.260  0.2213 -0.5714 -0.4355
 5070TIP3    H136701   2.274   5.256  11.222  0.0547 -0.7487  0.0596
 5070TIP3    H236702   2.424   5.245  11.207 -0.0018 -0.0858 -1.1151
 5071TIP3   OH236703   4.046   4.751   0.236  0.1728 -0.1846 -0.4240
 5071TIP3    H136704   4.030   4.657   0.229  0.2758 -0.3914  1.5850
 5071TIP3    H236705   4.046   4.769   0.330  0.3933  1.7919 -0.7501
 5072TIP3   OH236706   6.423   5.524  12.380 -0.0536 -0.2414  0.5407
 5072TIP3    H136707   6.376   5.537  12.462 -3.6400  0.8798 -1.4579
 5072TIP3    H236708   6.441   5.612  12.347 -0.1248 -0.6170 -0.5664
 5073TIP3   OH236709   2.705   2.019   0.544  0.0615 -0.1450 -0.6740
 5073TIP3    H136710   2.680   2.106   0.512  0.9646  1.3225  2.2021
 5073TIP3    H236711   2.703   2.028   0.639  0.8582 -3.1306 -0.2891
 5074TIP3   OH236712   3.074   0.965  16.574 -0.0283 -0.0816 -0.0941
 5074TIP3    H136713   3.133   0.973  16.500 -0.7270  0.8667 -0.5699
 5074TIP3    H236714   3.082   1.048  16.621 -0.1021 -0.4042  0.4969
 5075TIP3   OH236715   6.265   2.451   1.743 -0.1505  0.7826 -0.6517
 5075TIP3    H136716   6.297   2.490   1.825  0.9963 -0.8781 -0.2616
 5075TIP3    H236717   6.206   2.517   1.707  2.8050  3.5875 -0.8201
 5076TIP3   OH236718   6.718   4.395  15.594  0.2762 -0.0577  0.1394
 5076TIP3    H136719   6.723   4.301  15.611  0.8825  0.0547  0.5870
 5076TIP3    H236720   6.732   4.402  15.499 -2.8576 -0.6539 -0.4779
 5077TIP3   OH236721   1.134   1.405   4.774 -0.4555 -0.0248 -0.4268
 5077TIP3    H136722   1.216   1.378   4.816 -0.8822 -2.2804 -0.9247
 5077TIP3    H236723   1.157   1.417   4.682 -1.0607 -3.1578 -1.1106
 5078TIP3   OH236724   1.184   1.201  14.876  0.1035  0.2189  0.1732
 5078TIP3    H136725   1.252   1.150  14.832  0.5406  1.0597 -0.1456
 5078TIP3    H236726   1.192   1.176  14.968  1.4570  0.9759  0.2876
 5079TIP3   OH236727   6.228   3.776  14.169  0.2367  0.1277  0.1990
 5079TIP3    H136728   6.195   3.721  14.239  0.0927 -1.2661 -0.9228
 5079TIP3    H236729   6.170   3.760  14.095  0.8888  0.8994 -0.5136
 5080TIP3   OH236730   3.512   6.072   4.929 -0.3543  0.2852  0.1808
 5080TIP3    H136731   3.487   6.158   4.896 -0.8596  0.1886  0.3064
 5080TIP3    H236732   3.430   6.032   4.957  0.0213  0.2778  1.3394
 5081TIP3   OH236733   1.708   5.415  13.694  0.4124  0.0272  0.2203
 5081TIP3    H136734   1.728   5.398  13.602 -1.2384 -0.8833 -0.0043
 5081TIP3    H236735   1.743   5.338  13.741 -1.5786 -1.1184 -0.0680
 5082TIP3   OH236736   0.872   2.518  15.425  0.5770  0.4766  0.1539
 5082TIP3    H136737   0.926   2.529  15.347 -1.1231  0.3840 -1.0973
 5082TIP3    H236738   0.785   2.499  15.391  0.1607 -1.4449  2.1011
 5083TIP3   OH236739   5.576   4.384  16.044  0.3041 -0.1974  0.3649
 5083TIP3    H136740   5.488   4.411  16.070  1.1683  3.7255 -0.3065
 5083TIP3    H236741   5.625   4.379  16.127  0.9012  3.8821  0.4305
 5084TIP3   OH236742   0.470   0.280  12.764  0.1890  0.0523 -0.8703
 5084TIP3    H136743   0.539   0.288  12.831 -1.5263 -0.6826  1.0903
 5084TIP3    H236744   0.499   0.338  12.694  1.8462  1.3156  0.7305
 5085TIP3   OH236745   4.687   4.676  11.469 -0.8874  0.0324 -0.5279
 5085TIP3    H136746   4.682   4.752  11.527 -2.2894  0.5720 -1.3296
 5085TIP3    H236747   4.636   4.608  11.514  1.7041 -1.0679  1.0042
 5086TIP3   OH236748   1.199   1.704  14.457  0.2602 -0.3866 -0.2119
 5086TIP3    H136749   1.217   1.610  14.461  0.6294 -0.4186 -1.9814
 5086TIP3    H236750   1.270   1.744  14.507 -0.0062 -1.0261  0.7239
 5087TIP3   OH236751   0.480   1.484   3.288  0.4016  0.1405  0.1997
 5087TIP3    H136752   0.495   1.392   3.312  0.1603  0.4149  1.4474
 5087TIP3    H236753   0.457   1.527   3.370 -1.0135  1.0156 -0.6095
 5088TIP3   OH236754   3.047   2.154  10.828  0.0584 -0.1564 -0.2641
 5088TIP3    H136755   3.123   2.203  10.857 -0.0374  1.1716 -2.0846
 5088TIP3    H236756   3.000   2.131  10.909  0.5882  1.9587  0.7088
 5089TIP3   OH236757   6.658   2.235  15.364 -0.0181 -0.7378  0.2025
 5089TIP3    H136758   6.735   2.234  15.307 -0.8012  1.4900 -1.0435
 5089TIP3    H236759   6.606   2.309  15.332 -2.6173 -2.0598  1.1095
 5090TIP3   OH236760   5.753   6.692   2.611 -0.2127 -0.0673  0.2129
 5090TIP3    H136761   5.767   6.768   2.556 -1.6512 -0.8490 -1.3250
 5090TIP3    H236762   5.719   6.727   2.693 -0.1157  0.9956 -0.1902
 5091TIP3   OH236763   5.491   6.792  12.996  0.4469  0.3568  0.3196
 5091TIP3    H136764   5.549   6.841  13.054 -0.1922  1.9580 -0.3155
 5091TIP3    H236765   5.525   6.810  12.908 -1.3589  1.9719 -0.1378
 5092TIP3   OH236766   6.653   5.111  13.137 -0.0310 -0.2230  0.1144
 5092TIP3    H136767   6.747   5.107  13.156 -0.3442 -2.0460  1.6098
 5092TIP3    H236768   6.612   5.119  13.223 -1.2734 -0.2134 -0.4646
 5093TIP3   OH236769   4.978   3.676  11.629 -0.3335 -0.7282  0.7427
 5093TIP3    H136770   5.042   3.694  11.560 -0.3657 -0.2517  0.8342
 5093TIP3    H236771   4.905   3.735  11.609 -1.5847 -2.5771 -0.4621
 5094TIP3   OH236772   2.350   4.327   0.414  0.6897 -0.4146 -0.4327
 5094TIP3    H136773   2.345   4.401   0.475  0.4806 -0.9412  0.1995
 5094TIP3    H236774   2.444   4.320   0.394  0.8002 -0.4436  0.0862
 5095TIP3   OH236775   0.398   6.750  13.331 -0.4451 -0.4428 -0.0449
 5095TIP3    H136776   0.409   6.845  13.318  1.2019 -0.2193  2.3615
 5095TIP3    H236777   0.430   6.711  13.250 -0.6946  1.0378 -0.8921
 5096TIP3   OH236778   0.306   4.860  14.027 -0.5958 -0.1599 -0.1171
 5096TIP3    H136779   0.233   4.803  14.048  0.0243 -0.7893  0.3715
 5096TIP3    H236780   0.362   4.808  13.970 -0.9083  0.5950 -1.1617
 5097TIP3   OH236781   1.225   2.977   3.906 -0.1107 -0.1793 -0.0867
 5097TIP3    H136782   1.143   2.996   3.952 -0.2313  0.0356 -0.3833
 5097TIP3    H236783   1.225   2.882   3.895  0.9007 -0.4890  2.1722
 5098TIP3   OH236784   6.018   0.400  11.254  0.1046 -0.1289  0.1283
 5098TIP3    H136785   6.103   0.399  11.211  0.2855 -6.3835 -0.2006
 5098TIP3    H236786   6.038   0.415  11.346  1.5077 -0.8471 -0.0344
 5099TIP3   OH236787   2.837   1.097   0.847  0.0327 -0.6685  0.0812
 5099TIP3    H136788   2.828   1.192   0.835  2.0666 -0.3720  0.4872
 5099TIP3    H236789   2.905   1.088   0.914 -1.7205 -2.4113  1.7646
 5100TIP3   OH236790   5.316   5.125  11.214  0.7604  0.1847  0.6465
 5100TIP3    H136791   5.336   5.213  11.182  1.2272 -0.2658 -0.3656
 5100TIP3    H236792   5.389   5.071  11.184  0.2248 -0.6447  0.7852
 5101TIP3   OH236793   1.642   6.377   0.388 -0.4320  0.5036 -0.6576
 5101TIP3    H136794   1.593   6.295   0.388 -1.6331  1.2004 -0.9385
 5101TIP3    H236795   1.641   6.406   0.297  0.4931  0.5603 -0.6650
 5102TIP3   OH236796   1.054   0.563   5.480 -0.0627  0.5006 -0.0820
 5102TIP3    H136797   1.064   0.576   5.385  3.3176  1.3071  0.2567
 5102TIP3    H236798   1.090   0.476   5.497 -1.8424 -0.1926  0.3854
 5103TIP3   OH236799   5.721   4.216  11.795  0.5680  0.2676  0.0869
 5103TIP3    H136800   5.633   4.255  11.790  0.6448  0.5050  0.5386
 5103TIP3    H236801   5.754   4.242  11.881  0.9087 -0.1927  0.1003
 5104TIP3   OH236802   5.138   1.149   1.504  0.1630 -0.1496 -0.6615
 5104TIP3    H136803   5.056   1.130   1.459  1.1722 -0.7083 -2.4041
 5104TIP3    H236804   5.144   1.081   1.571 -0.4760 -0.5418 -0.9827
 5105TIP3   OH236805   1.092   6.133  15.871 -0.1422  0.0626 -0.6577
 5105TIP3    H136806   1.008   6.161  15.908 -0.0152  0.9434 -1.0130
 5105TIP3    H236807   1.152   6.206  15.889  1.5288 -1.8686  2.6657
 5106TIP3   OH236808   1.786   3.211  14.855 -0.3547  0.2535  0.5569
 5106TIP3    H136809   1.809   3.119  14.843  0.1971  0.3850  0.5712
 5106TIP3    H236810   1.691   3.214  14.843 -0.1662 -0.0145 -1.3219
 5107TIP3   OH236811   3.366   0.762   4.843  0.6126 -0.3081  0.2402
 5107TIP3    H136812   3.424   0.825   4.885  0.0142  1.1426 -0.9917
 5107TIP3    H236813   3.412   0.738   4.762  0.5022 -0.8998  0.3494
 5108TIP3   OH236814   4.678   0.370   1.504 -0.1032  0.0195 -0.2188
 5108TIP3    H136815   4.706   0.427   1.575 -0.1936 -1.1900  0.8201
 5108TIP3    H236816   4.645   0.429   1.437  1.6275  1.2823 -0.0087
 5109TIP3   OH236817   6.576   5.758  16.096 -0.2028 -0.2687  0.0377
 5109TIP3    H136818   6.490   5.770  16.056 -0.1638  0.4360  0.1589
 5109TIP3    H236819   6.559   5.753  16.190 -0.2147 -1.1944  0.0032
 5110TIP3   OH236820   6.437   3.830  14.987  0.5473 -0.0204  0.4515
 5110TIP3    H136821   6.458   3.907  15.039  1.1393 -0.5466  1.0121
 5110TIP3    H236822   6.419   3.864  14.899  0.5210  0.7795  0.7641
 5111TIP3   OH236823   0.636   3.227   3.287 -0.0690 -0.0720 -0.4082
 5111TIP3    H136824   0.656   3.318   3.309  1.8032 -0.5740  0.2056
 5111TIP3    H236825   0.577   3.198   3.357 -1.5479  0.9303 -1.1856
 5112TIP3   OH236826   1.015   1.524   3.521  0.3886 -0.2801  0.0553
 5112TIP3    H136827   1.042   1.611   3.490  0.2351 -0.3782 -0.3572
 5112TIP3    H236828   1.040   1.465   3.451  0.5282 -0.5782  0.3537
 5113TIP3   OH236829   0.866   6.054  15.675  0.0155  0.1097  0.4619
 5113TIP3    H136830   0.842   5.963  15.691  0.6348  0.2694  2.5312
 5113TIP3    H236831   0.960   6.058  15.693  0.6218  0.6222 -2.3177
 5114TIP3   OH236832   0.299   3.957   5.341  0.1928 -0.1479  0.5087
 5114TIP3    H136833   0.232   3.924   5.282 -0.5408  0.1996  1.1314
 5114TIP3    H236834   0.251   4.008   5.406  0.8995 -0.9650  1.7225
 5115TIP3   OH236835   1.876   2.470   5.208 -0.2003  0.3500 -0.5910
 5115TIP3    H136836   1.844   2.452   5.119  2.1101 -0.3045 -1.3492
 5115TIP3    H236837   1.887   2.384   5.247 -2.5313  0.6403  0.9344
 5116TIP3   OH236838   1.500   0.313  15.240  0.4159  0.5862 -0.4418
 5116TIP3    H136839   1.527   0.259  15.314  0.3982 -1.1326 -1.6166
 5116TIP3    H236840   1.424   0.361  15.271  0.6218  0.1608  0.7550
 5117TIP3   OH236841   5.791   4.661   6.309  0.0388  0.5239  0.0906
 5117TIP3    H136842   5.719   4.597   6.308 -0.5085  1.1268  0.4436
 5117TIP3    H236843   5.749   4.745   6.291  0.5689  0.9615  0.8471
 5118TIP3   OH236844   1.353   0.384   2.980 -0.1524  0.1102 -0.6925
 5118TIP3    H136845   1.394   0.431   2.908 -0.1997 -0.1387 -0.8843
 5118TIP3    H236846   1.365   0.441   3.056 -0.0224  0.3319 -0.8781
 5119TIP3   OH236847   5.048   1.733  11.052  0.9807  0.5490 -0.1153
 5119TIP3    H136848   5.122   1.688  11.094  0.5665  1.2925  1.5015
 5119TIP3    H236849   4.990   1.663  11.023  2.0877 -0.0339 -1.0105
 5120TIP3   OH236850   1.860   2.075  15.496  0.0864 -0.0788 -0.4350
 5120TIP3    H136851   1.928   2.011  15.516  0.2674 -0.0929 -1.0692
 5120TIP3    H236852   1.877   2.147  15.556  1.2236  0.3144 -1.1913
 5121TIP3   OH236853   5.721   6.606  12.278  0.1870 -0.8614 -0.1247
 5121TIP3    H136854   5.815   6.617  12.262  0.2947 -1.2523  0.2331
 5121TIP3    H236855   5.680   6.672  12.222  0.7088 -0.1994  0.2561
 5122TIP3   OH236856   6.298   1.767   2.068 -0.0669  0.5548 -0.9577
 5122TIP3    H136857   6.337   1.696   2.018 -0.8179  0.9765 -2.2015
 5122TIP3    H236858   6.215   1.731   2.100 -0.4064  0.8454 -1.5129
 5123TIP3   OH236859   5.317   2.154   1.174  0.0756  0.9832 -0.2253
 5123TIP3    H136860   5.310   2.085   1.239  2.9260 -0.4442 -1.2573
 5123TIP3    H236861   5.315   2.235   1.225  0.9637 -0.0366  1.5168
 5124TIP3   OH236862   4.562   3.122  11.227 -0.3504 -0.4323  0.1859
 5124TIP3    H136863   4.582   3.153  11.315  2.1690  1.1755 -0.8510
 5124TIP3    H236864   4.500   3.186  11.192  2.9733  2.3659 -1.0832
 5125TIP3   OH236865   2.585   0.919   3.330 -0.2533 -0.2164  0.5908
 5125TIP3    H136866   2.652   0.854   3.310 -0.8230 -0.1514 -1.8855
 5125TIP3    H236867   2.630   0.984   3.384  0.8564 -1.6157  1.4235
 5126TIP3   OH236868   5.147   4.149  15.438 -0.1759 -0.4202 -0.1170
 5126TIP3    H136869   5.094   4.226  15.421  0.4605  0.0021 -0.2397
 5126TIP3    H236870   5.089   4.075  15.421 -0.0794 -0.0164 -2.5048
 5127TIP3   OH236871   5.612   5.425   2.622 -0.0474 -0.2596  0.5497
 5127TIP3    H136872   5.660   5.485   2.565 -1.6185  0.9894  0.4645
 5127TIP3    H236873   5.661   5.425   2.704 -0.7815  2.3577  1.0684
 5128TIP3   OH236874   4.031   3.739  10.897 -0.0746  0.0380 -0.2862
 5128TIP3    H136875   4.047   3.774  10.810  0.4782 -2.0147 -1.0634
 5128TIP3    H236876   4.027   3.644  10.885 -1.0882 -0.2449  1.7582
 5129TIP3   OH236877   3.003   2.946   4.692  0.1148  0.6947 -0.4933
 5129TIP3    H136878   2.923   2.995   4.711  0.2240  0.5556  0.3327
 5129TIP3    H236879   3.031   2.979   4.606 -1.4220 -0.0199 -1.3143
 5130TIP3   OH236880   4.101   5.114   2.568 -0.2841 -0.5031  0.5246
 5130TIP3    H136881   4.017   5.143   2.603 -0.3473 -1.1386  0.9058
 5130TIP3    H236882   4.081   5.035   2.518 -0.3843  0.9870 -1.9662
 5131TIP3   OH236883   6.708   4.197   1.818 -0.6192  0.3136  0.2403
 5131TIP3    H136884   6.797   4.232   1.818 -1.0159  1.4092 -1.2617
 5131TIP3    H236885   6.685   4.189   1.911  1.0495 -0.0545  0.6516
 5132TIP3   OH236886   5.891   5.905   5.288 -0.3835  0.5336  0.3387
 5132TIP3    H136887   5.813   5.958   5.272 -2.5650 -2.2380  1.1198
 5132TIP3    H236888   5.912   5.922   5.380 -1.0429  0.1009  0.5743
 5133TIP3   OH236889   3.354   1.235  15.889 -0.1669  0.0195  0.0266
 5133TIP3    H136890   3.423   1.169  15.901 -1.3919 -2.1727 -3.3855
 5133TIP3    H236891   3.401   1.316  15.872  1.5151 -0.8653  0.2392
 5134TIP3   OH236892   5.866   2.608   4.233 -0.0985  0.0779 -0.4671
 5134TIP3    H136893   5.863   2.600   4.138  0.5364  4.3841 -1.0750
 5134TIP3    H236894   5.787   2.657   4.256  1.2542  1.8943  0.6657
 5135TIP3   OH236895   5.165   0.866   0.494  0.1533 -0.2392  0.7649
 5135TIP3    H136896   5.174   0.800   0.426 -0.5399 -0.4082  0.8333
 5135TIP3    H236897   5.079   0.850   0.532  0.3953  0.0642  1.4584
 5136TIP3   OH236898   4.420   5.376  11.585  0.1550 -0.4104 -0.1371
 5136TIP3    H136899   4.443   5.300  11.532  1.5715 -1.1661  1.4402
 5136TIP3    H236900   4.503   5.423  11.595 -0.4668  0.7115 -0.1000
 5137TIP3   OH236901   4.448   5.955  15.790  0.1985 -0.0992  0.0695
 5137TIP3    H136902   4.404   5.875  15.820  1.2759 -1.2111 -1.2131
 5137TIP3    H236903   4.541   5.933  15.793  0.4589  0.7676 -1.2347
 5138TIP3   OH236904   0.279   4.411  16.886 -0.7415 -0.2859 -0.8841
 5138TIP3    H136905   0.309   4.379  16.971  0.9240  0.2436 -1.2291
 5138TIP3    H236906   0.352   4.464  16.853 -0.1519 -2.6565 -3.8411
 5139TIP3   OH236907   1.903   5.874  15.576 -0.2179  0.6403 -0.6476
 5139TIP3    H136908   1.996   5.862  15.557 -0.5016 -0.1817 -1.5766
 5139TIP3    H236909   1.890   5.833  15.661  0.2917  0.8426 -0.4726
 5140TIP3   OH236910   1.189   2.634  13.697  0.0993  0.2943  0.3744
 5140TIP3    H136911   1.178   2.569  13.627  0.1542  2.0591 -1.3319
 5140TIP3    H236912   1.216   2.582  13.773 -0.2371 -1.7260 -0.8109
 5141TIP3   OH236913   1.869   3.648  11.532 -0.5059  0.1153 -0.3982
 5141TIP3    H136914   1.950   3.699  11.527 -0.8118  0.6599  0.0898
 5141TIP3    H236915   1.800   3.714  11.540 -0.7681 -0.3694  2.3792
 5142TIP3   OH236916   5.696   2.110   4.093  0.4938 -0.1001 -0.0459
 5142TIP3    H136917   5.676   2.074   4.006  1.1350 -2.5154  0.7325
 5142TIP3    H236918   5.748   2.188   4.075  0.3846 -0.3961 -1.8295
 5143TIP3   OH236919   0.068   5.860  11.894  0.2177  0.9110  0.2442
 5143TIP3    H136920   0.082   5.928  11.959  1.6973  0.7535  0.1320
 5143TIP3    H236921   0.018   5.793  11.940  0.1928  1.3392  0.8579
 5144TIP3   OH236922   1.089   5.433  15.741 -0.1485 -0.3055  0.5511
 5144TIP3    H136923   1.022   5.384  15.694  1.2161 -1.4934 -0.2617
 5144TIP3    H236924   1.169   5.418  15.691  0.8598  0.4944  1.8502
 5145TIP3   OH236925   5.557   4.504  14.403  0.3572 -0.4643  0.1717
 5145TIP3    H136926   5.505   4.543  14.473  0.8457  2.4516 -0.9191
 5145TIP3    H236927   5.622   4.450  14.448  1.4797  2.2888  2.1743
 5146TIP3   OH236928   3.269   3.348   1.225 -0.2564 -0.2466 -0.2881
 5146TIP3    H136929   3.235   3.344   1.136 -0.4993  0.8305 -0.2584
 5146TIP3    H236930   3.319   3.268   1.235  1.5387  0.5583 -2.1221
 5147TIP3   OH236931   4.042   6.014  15.482 -0.0143  0.1147 -0.2523
 5147TIP3    H136932   4.120   6.029  15.428  0.4935 -2.5940 -0.4087
 5147TIP3    H236933   4.070   6.035  15.571  1.0794 -1.2588 -0.2420
 5148TIP3   OH236934   5.010   0.053  16.431  0.6014 -0.0544  0.1709
 5148TIP3    H136935   5.091   0.104  16.431  2.3128 -2.5762  0.2358
 5148TIP3    H236936   5.038  -0.036  16.455 -1.7759 -1.5965 -2.2061
 5149TIP3   OH236937   4.874   5.922   3.448  0.0171 -0.2241  0.0326
 5149TIP3    H136938   4.836   6.008   3.466  1.4909  0.5116 -0.2757
 5149TIP3    H236939   4.801   5.871   3.412 -0.4091  1.5101 -1.7055
 5150TIP3   OH236940   0.740   1.634  15.646 -0.3566  0.0525  0.2162
 5150TIP3    H136941   0.836   1.631  15.645 -0.3032 -0.6742  2.1404
 5150TIP3    H236942   0.719   1.723  15.674 -0.2968  0.5160 -1.1507
 5151TIP3   OH236943   6.640   6.417   5.313 -0.0686 -0.2988  0.0062
 5151TIP3    H136944   6.651   6.323   5.298 -1.4336 -0.2165 -1.9078
 5151TIP3    H236945   6.667   6.430   5.404 -0.7856 -2.7040  0.6330
 5152TIP3   OH236946   3.877   4.738   5.787  0.3005  0.9792 -0.1896
 5152TIP3    H136947   3.789   4.775   5.794  0.3549  0.9302  1.0616
 5152TIP3    H236948   3.910   4.739   5.877  0.9047 -0.6652 -0.3648
 5153TIP3   OH236949   1.398   3.268  15.219  0.3161 -0.2312  0.1778
 5153TIP3    H136950   1.473   3.221  15.182  0.5428 -0.2884  0.7071
 5153TIP3    H236951   1.336   3.200  15.242 -0.0135 -0.1680 -0.4993
 5154TIP3   OH236952   0.967   4.667   4.975 -0.0478  0.1699  0.2734
 5154TIP3    H136953   0.908   4.722   5.027  0.3518  0.2489  0.6530
 5154TIP3    H236954   0.923   4.583   4.970 -0.1347  0.1915  0.6635
 5155TIP3   OH236955   5.224   0.019  12.263 -0.4263 -0.0835 -0.1071
 5155TIP3    H136956   5.169   0.059  12.330  0.0354  0.2967  0.0491
 5155TIP3    H236957   5.311   0.013  12.303  0.5819  2.7898 -1.5970
 5156TIP3   OH236958   4.671   0.246   2.031 -0.3327 -0.1041 -0.6444
 5156TIP3    H136959   4.608   0.315   2.052  0.1395  1.4862 -3.7896
 5156TIP3    H236960   4.622   0.184   1.977  0.4329  0.5146 -2.1045
 5157TIP3   OH236961   5.457   3.426   3.613 -0.0143 -0.0404 -0.5929
 5157TIP3    H136962   5.415   3.398   3.531 -1.0657  0.0945 -0.1227
 5157TIP3    H236963   5.438   3.520   3.618 -3.6111 -0.6831  1.7645
 5158TIP3   OH236964   3.018   4.424   4.523  0.1272  0.0173  0.1721
 5158TIP3    H136965   2.975   4.480   4.458 -0.8503 -0.3102  0.5284
 5158TIP3    H236966   2.957   4.353   4.538  0.1848  0.2644  1.7153
 5159TIP3   OH236967   6.802   3.310  14.783 -0.1317  0.1532 -0.1704
 5159TIP3    H136968   6.833   3.281  14.697 -1.3342 -0.2459 -0.4793
 5159TIP3    H236969   6.853   3.389  14.801  1.7501 -0.9609 -0.2320
 5160TIP3   OH236970   1.214   1.994   6.533 -0.2561 -0.1601  0.3209
 5160TIP3    H136971   1.119   2.001   6.526 -0.1771 -0.2960 -1.0258
 5160TIP3    H236972   1.245   2.085   6.529 -0.2283 -0.2143 -1.1317
 5161TIP3   OH236973   2.307   1.878  15.867 -0.2100 -0.1973  0.1207
 5161TIP3    H136974   2.212   1.888  15.861 -0.0639  1.1654 -0.4408
 5161TIP3    H236975   2.322   1.844  15.955 -1.1167  1.5163  0.9853
 5162TIP3   OH236976   5.244   4.651  12.688  0.0084  0.0020  0.3913
 5162TIP3    H136977   5.211   4.706  12.758  0.4905  1.1445 -0.2544
 5162TIP3    H236978   5.323   4.611  12.724  0.1638  0.4569  0.5591
 5163TIP3   OH236979   4.640   2.347  13.176  0.4451 -0.2186  0.5996
 5163TIP3    H136980   4.719   2.322  13.127  0.5880  2.0224 -0.4433
 5163TIP3    H236981   4.647   2.442  13.185 -2.2175  0.0631  0.3517
 5164TIP3   OH236982   4.323   0.416  15.086 -0.2053 -0.3686  0.6247
 5164TIP3    H136983   4.269   0.367  15.148 -0.3324 -1.1374 -0.0832
 5164TIP3    H236984   4.262   0.443  15.017 -0.1478  0.8356  1.0120
 5165TIP3   OH236985   0.054   3.241  11.113  0.1013 -0.1964  0.1197
 5165TIP3    H136986  -0.015   3.307  11.122 -1.1090 -1.5591  1.3118
 5165TIP3    H236987   0.012   3.169  11.067  1.0906 -0.5858 -0.1845
 5166TIP3   OH236988   4.849   6.351  15.010  0.2902 -0.3714  0.0855
 5166TIP3    H136989   4.915   6.360  15.078  0.4638 -0.7775 -0.0228
 5166TIP3    H236990   4.777   6.407  15.038 -1.0502 -2.9613  2.3259
 5167TIP3   OH236991   0.453   4.991  16.184 -0.3326  0.2125  0.0854
 5167TIP3    H136992   0.360   4.967  16.183 -0.5221  0.9510 -0.5552
 5167TIP3    H236993   0.482   4.977  16.094 -0.2936  1.7608 -0.1710
 5168TIP3   OH236994   0.468   1.669  11.056 -1.0044  0.8482 -0.0503
 5168TIP3    H136995   0.478   1.574  11.060  2.0119  1.1094  1.8695
 5168TIP3    H236996   0.490   1.691  10.965  0.2704 -0.1730 -0.0183
 5169TIP3   OH236997   3.884   5.964  15.828  0.0254  0.7769 -0.2480
 5169TIP3    H136998   3.873   5.899  15.759 -0.1137 -1.1118  1.4639
 5169TIP3    H236999   3.868   6.048  15.785 -2.9538 -0.4961 -1.9129
 5170TIP3   OH237000   3.695   1.551   0.372 -0.2505 -0.3526 -0.1038
 5170TIP3    H137001   3.642   1.610   0.319  0.3576 -0.1096 -0.4535
 5170TIP3    H237002   3.685   1.465   0.332  0.3677 -0.1337 -0.7473
 5171TIP3   OH237003   3.752   4.018  15.202  0.4820  0.3927  0.0377
 5171TIP3    H137004   3.794   4.014  15.116 -0.0547 -0.0418 -0.2121
 5171TIP3    H237005   3.805   4.080  15.252 -0.4198  2.2925 -1.2727
 5172TIP3   OH237006   2.395   2.218  11.956  0.4845  0.0454  0.1697
 5172TIP3    H137007   2.380   2.309  11.981 -0.5482 -0.5132  1.7734
 5172TIP3    H237008   2.321   2.171  11.993  0.8733 -1.4247 -0.8408
 5173TIP3   OH237009   0.181   0.159   0.747  0.3834 -0.2458 -0.5882
 5173TIP3    H137010   0.268   0.198   0.742  0.9854 -1.5416 -0.5715
 5173TIP3    H237011   0.178   0.115   0.832 -1.4358  2.3268  0.8220
 5174TIP3   OH237012   5.573   2.941  14.453 -0.2412 -0.0146 -0.2942
 5174TIP3    H137013   5.500   2.998  14.430  1.4589  1.1915 -3.1936
 5174TIP3    H237014   5.611   2.980  14.532 -1.9023  0.0363  0.5199
 5175TIP3   OH237015   2.435   2.130   1.878  0.2813 -0.7238  0.2712
 5175TIP3    H137016   2.350   2.138   1.921  0.5540 -1.3482  0.9269
 5175TIP3    H237017   2.446   2.213   1.832 -0.5901 -0.5574  0.3488
 5176TIP3   OH237018   3.415   1.921  15.579  0.7099  0.1798  0.4387
 5176TIP3    H137019   3.491   1.862  15.585  0.5889 -0.1297 -0.7040
 5176TIP3    H237020   3.342   1.863  15.556  0.5145  0.7128 -0.3276
 5177TIP3   OH237021   1.063   2.899  10.363 -0.0687 -0.2549 -0.3582
 5177TIP3    H137022   1.050   2.959  10.436  0.2750  1.8009 -1.9040
 5177TIP3    H237023   1.101   2.821  10.403  0.5174  0.9584  1.5908
 5178TIP3   OH237024   6.341   1.047   2.615  0.0999  0.0290 -0.3366
 5178TIP3    H137025   6.278   1.054   2.543 -1.1123  2.5010  0.8406
 5178TIP3    H237026   6.377   1.135   2.624  1.5801 -0.6544  0.9465
 5179TIP3   OH237027   3.534   0.334  11.356  0.2734  0.5076 -0.6009
 5179TIP3    H137028   3.450   0.296  11.330  0.4048 -1.0171  1.0517
 5179TIP3    H237029   3.515   0.379  11.439  1.2509 -0.7440  0.3508
 5180TIP3   OH237030   0.454   4.979  11.576 -0.4120  0.6522  0.5771
 5180TIP3    H137031   0.516   5.013  11.511  0.9342 -1.6635  0.5438
 5180TIP3    H237032   0.368   4.988  11.534  0.3019  0.3588 -1.0185
 5181TIP3   OH237033   1.869   3.596   3.404  0.0931  0.1086  0.2228
 5181TIP3    H137034   1.789   3.648   3.406  1.0339  1.7365 -1.0382
 5181TIP3    H237035   1.917   3.621   3.483 -0.8105 -1.2264  1.2265
 5182TIP3   OH237036   3.383   2.580   2.533  0.2660  0.2793 -0.2239
 5182TIP3    H137037   3.356   2.668   2.561 -0.6459  0.0629 -0.4122
 5182TIP3    H237038   3.367   2.579   2.439  2.3901  0.6614 -0.6432
 5183TIP3   OH237039   5.555   2.376  11.483 -0.4118 -0.0426  0.6729
 5183TIP3    H137040   5.552   2.470  11.462  0.7320 -0.0725  0.3273
 5183TIP3    H237041   5.623   2.341  11.425 -2.6879 -1.6217 -1.2509
 5184TIP3   OH237042   1.785   0.853  11.010  0.0643  0.3628  0.0756
 5184TIP3    H137043   1.879   0.844  10.998  0.5644  1.6507  2.4992
 5184TIP3    H237044   1.769   0.828  11.101 -2.4170 -2.5848 -0.9789
 5185TIP3   OH237045   1.150   5.121  11.187 -0.0718 -0.1282  0.5723
 5185TIP3    H137046   1.111   5.036  11.208 -0.6851  0.0180  0.0538
 5185TIP3    H237047   1.166   5.118  11.093  0.0440  0.2753  0.5762
 5186TIP3   OH237048   1.515   3.533   4.272  0.1292 -0.2808 -0.8309
 5186TIP3    H137049   1.520   3.628   4.285 -0.3215 -0.3086 -0.4194
 5186TIP3    H237050   1.431   3.509   4.309  0.2046 -0.8331 -1.0173
 5187TIP3   OH237051   0.759   2.511  10.964  0.0599  0.7648 -0.3474
 5187TIP3    H137052   0.850   2.540  10.966 -0.2132  1.6219  1.1769
 5187TIP3    H237053   0.759   2.434  10.906  1.8240  0.4801 -0.0108
 5188TIP3   OH237054   2.366   0.786   4.538 -0.0732 -0.4622 -0.1663
 5188TIP3    H137055   2.367   0.700   4.495 -0.4727  0.7096 -2.6404
 5188TIP3    H237056   2.296   0.834   4.496  0.3864  1.2497  0.9091
 5189TIP3   OH237057   5.934   1.702  16.617  0.0993 -0.4694  0.0794
 5189TIP3    H137058   5.848   1.689  16.575  0.5745  0.3063 -1.1947
 5189TIP3    H237059   5.931   1.791  16.650  0.2461 -0.6091  0.4737
 5190TIP3   OH237060   2.075   1.527   4.557  0.2916  0.2453  0.0623
 5190TIP3    H137061   2.035   1.465   4.618  1.3620 -0.2797  0.2466
 5190TIP3    H237062   2.061   1.488   4.471 -0.2364  0.4330  0.0593
 5191TIP3   OH237063   5.766   3.515  16.256 -0.2863  0.4700  0.1033
 5191TIP3    H137064   5.726   3.465  16.327 -0.7853  1.5289  0.5990
 5191TIP3    H237065   5.818   3.582  16.299 -1.7205  2.0356 -0.4435
 5192TIP3   OH237066   0.510   3.972  11.567  0.4710 -0.0787 -0.2598
 5192TIP3    H137067   0.555   3.947  11.487  2.8947 -0.1988  1.0360
 5192TIP3    H237068   0.496   3.890  11.614 -0.4859  0.0436 -0.3047
 5193TIP3   OH237069   3.231   1.950   5.138  0.9977  0.7489 -0.6154
 5193TIP3    H137070   3.178   2.028   5.121  1.7753  1.4815  0.2215
 5193TIP3    H237071   3.212   1.892   5.065 -2.9768 -0.1686  0.9092
 5194TIP3   OH237072   5.902   5.944  12.205  0.7706  0.1228  0.2290
 5194TIP3    H137073   5.971   5.908  12.260 -0.4972 -1.7612  0.7064
 5194TIP3    H237074   5.838   5.872  12.197 -0.6802  1.4660 -0.9449
 5195TIP3   OH237075   5.268   3.235  15.316 -0.1929  0.1561  0.0728
 5195TIP3    H137076   5.235   3.221  15.405 -0.8272 -0.8021 -0.3059
 5195TIP3    H237077   5.216   3.309  15.283  0.5400  0.9961  0.7292
 5196TIP3   OH237078   6.096   2.558  11.735 -0.4070  0.1896  0.1814
 5196TIP3    H137079   6.171   2.504  11.708  0.6834  1.1323  1.1684
 5196TIP3    H237080   6.100   2.635  11.678  0.0348  0.7243  0.8994
 5197TIP3   OH237081   5.630   0.670   4.949 -0.6203  0.0426 -0.2077
 5197TIP3    H137082   5.599   0.678   5.040 -0.9976 -1.7318 -0.1410
 5197TIP3    H237083   5.657   0.759   4.925 -1.7553  0.8168  1.1943
 5198TIP3   OH237084   0.661   2.985   2.337  0.0035 -0.0534 -0.4306
 5198TIP3    H137085   0.640   2.996   2.430  1.0645  0.0304 -0.1924
 5198TIP3    H237086   0.685   2.893   2.329  0.9115  0.1702 -0.4018
 5199TIP3   OH237087   1.615   4.672  15.360 -0.7663 -0.1343  0.0084
 5199TIP3    H137088   1.560   4.708  15.290 -2.0836  1.8196  1.9046
 5199TIP3    H237089   1.554   4.623  15.416  0.2544 -1.6584 -0.1467
 5200TIP3   OH237090   3.338   6.839   3.282  0.1975 -0.3414 -0.2295
 5200TIP3    H137091   3.342   6.779   3.356 -1.4735 -0.0805  0.0998
 5200TIP3    H237092   3.244   6.852   3.266  0.5278  1.2329 -1.0717
 5201TIP3   OH237093   6.312   4.038  13.322 -0.3568 -0.4202 -0.2317
 5201TIP3    H137094   6.237   3.986  13.295 -0.5377  0.2208 -0.9781
 5201TIP3    H237095   6.320   4.106  13.256 -0.5283  0.9080  1.0745
 5202TIP3   OH237096   2.247   4.333   5.849  0.6386 -0.0315  0.3130
 5202TIP3    H137097   2.290   4.277   5.914 -1.0863  0.3526  1.8462
 5202TIP3    H237098   2.233   4.416   5.894 -0.9654  0.1129 -0.3990
 5203TIP3   OH237099   0.492   2.059  10.326 -0.9330 -0.2262  0.3197
 5203TIP3    H137100   0.532   2.134  10.283 -0.3642 -0.1037  1.0375
 5203TIP3    H237101   0.406   2.091  10.354 -0.5070  0.3270  1.0516
 5204TIP3   OH237102   0.616   0.382  11.239  0.3224  0.2173 -0.5830
 5204TIP3    H137103   0.658   0.424  11.164 -0.2321  2.8963  0.5008
 5204TIP3    H237104   0.524   0.407  11.233  0.3871  1.1474  1.3396
 5205TIP3   OH237105   4.524   3.379   4.217  0.2810 -0.4152 -0.5557
 5205TIP3    H137106   4.543   3.426   4.298 -1.2524 -1.3926  0.4305
 5205TIP3    H237107   4.526   3.446   4.148 -1.0091  0.9572  0.6823
 5206TIP3   OH237108   4.068   1.882   2.739 -0.6168  0.8027  0.5333
 5206TIP3    H137109   4.060   1.788   2.758 -1.1162  0.5264 -0.8532
 5206TIP3    H237110   4.018   1.925   2.809 -0.1500  0.0589  1.3416
 5207TIP3   OH237111   6.789   3.129   2.457 -0.3679 -0.3576  0.6543
 5207TIP3    H137112   6.701   3.133   2.420 -0.4059  1.4160  0.8485
 5207TIP3    H237113   6.844   3.175   2.393  0.6519 -2.3217  0.0191
 5208TIP3   OH237114   0.957   1.392   0.600  0.4298  0.0801 -0.0334
 5208TIP3    H137115   0.965   1.461   0.667  1.4550 -0.3134  0.2667
 5208TIP3    H237116   0.997   1.315   0.640 -2.8174 -1.4447  0.5971
 5209TIP3   OH237117   6.171   0.263  15.979  0.3525  0.9143 -0.1751
 5209TIP3    H137118   6.077   0.250  15.968  0.3440  1.2000 -0.4570
 5209TIP3    H237119   6.178   0.322  16.054  0.4223 -1.2648  1.6374
 5210TIP3   OH237120   0.848   6.842  13.927  0.5896  0.2582 -0.1351
 5210TIP3    H137121   0.820   6.932  13.910  2.0606  0.4936 -1.6253
 5210TIP3    H237122   0.825   6.794  13.847 -2.0207 -1.2351  1.3906
 5211TIP3   OH237123   1.558   2.234  15.337  0.1743 -0.3168 -0.6098
 5211TIP3    H137124   1.614   2.181  15.393 -0.4988 -1.8215 -1.3193
 5211TIP3    H237125   1.482   2.254  15.392  0.1339 -0.6417 -0.5483
 5212TIP3   OH237126   2.828   4.069  14.565  0.0303  0.1968 -0.4572
 5212TIP3    H137127   2.806   4.162  14.560  0.7185  0.4277  0.4250
 5212TIP3    H237128   2.781   4.029  14.492 -0.6512  1.1594 -0.5694
 5213TIP3   OH237129   2.242   6.137   1.049 -0.1653  0.0479  0.3621
 5213TIP3    H137130   2.254   6.049   1.086 -0.6925  0.2403  1.0264
 5213TIP3    H237131   2.177   6.178   1.107  0.5827  1.1193  0.4672
 5214TIP3   OH237132   3.664   2.637  14.801 -0.1605 -0.0463  0.4783
 5214TIP3    H137133   3.742   2.586  14.778 -0.8770 -0.6634 -0.7259
 5214TIP3    H237134   3.622   2.653  14.716 -0.2799  2.0381  0.8939
 5215TIP3   OH237135   3.654   1.761   1.060 -0.0061 -0.2811 -0.0716
 5215TIP3    H137136   3.740   1.774   1.099 -0.3176  1.7121  0.0821
 5215TIP3    H237137   3.602   1.719   1.129  0.2855  0.4267  0.5974
 5216TIP3   OH237138   3.222   4.651   5.251  0.2470  0.0265 -0.3474
 5216TIP3    H137139   3.296   4.677   5.196  0.7962  0.4847  0.6044
 5216TIP3    H237140   3.234   4.698   5.333  0.3296 -1.8729  0.7942
 5217TIP3   OH237141   4.509   4.875   6.242  0.0126 -0.3356 -0.0250
 5217TIP3    H137142   4.500   4.963   6.206  0.0980 -0.3018  0.0360
 5217TIP3    H237143   4.464   4.878   6.326  2.8558  0.6111  1.5981
 5218TIP3   OH237144   0.070   3.128   1.447  0.3706 -0.1793  0.3209
 5218TIP3    H137145   0.012   3.149   1.374 -0.9680 -2.1131  0.7596
 5218TIP3    H237146   0.015   3.136   1.525  0.3856 -2.8742  0.6815
 5219TIP3   OH237147   1.782   3.253  14.337  0.6435 -0.0284 -0.0390
 5219TIP3    H137148   1.704   3.223  14.290  2.1754 -2.3721 -1.3072
 5219TIP3    H237149   1.824   3.314  14.276 -0.2245  1.3483  0.7043
 5220TIP3   OH237150   6.441   0.146   2.648 -0.1455 -0.1546 -0.5998
 5220TIP3    H137151   6.463   0.126   2.739  0.9428  3.7292  0.1622
 5220TIP3    H237152   6.357   0.191   2.653  0.3109  0.8172 -1.4085
 5221TIP3   OH237153   2.543   1.654  13.177 -0.1902 -0.1384 -0.0121
 5221TIP3    H137154   2.633   1.658  13.146  0.3155 -0.3001  1.3404
 5221TIP3    H237155   2.532   1.734  13.228 -0.0734 -1.1321  1.6497
 5222TIP3   OH237156   0.672   1.336  16.317  0.5766 -0.2072 -0.2848
 5222TIP3    H137157   0.755   1.289  16.331  0.3490 -0.3750  0.5303
 5222TIP3    H237158   0.682   1.375  16.230  1.5894 -0.0619 -0.1186
 5223TIP3   OH237159   1.679   5.983  13.355  0.2051 -0.3526 -0.0300
 5223TIP3    H137160   1.654   6.042  13.283 -0.7262 -1.0938 -0.3267
 5223TIP3    H237161   1.613   5.914  13.354  1.3422 -1.4690  0.2560
 5224TIP3   OH237162   3.427   2.861   5.096 -0.0323  0.1465 -0.6841
 5224TIP3    H137163   3.459   2.771   5.095  0.7804  0.4259 -1.6392
 5224TIP3    H237164   3.466   2.900   5.174  0.2431 -0.1130 -0.6926
 5225TIP3   OH237165   1.373   4.912   2.654  0.4104  0.0434  0.1892
 5225TIP3    H137166   1.410   5.000   2.669  0.5859  0.0811 -0.4593
 5225TIP3    H237167   1.368   4.874   2.742 -0.5925  1.0678  0.6029
 5226TIP3   OH237168   5.642   4.971   2.117 -0.7104  0.7028  0.5672
 5226TIP3    H137169   5.595   4.912   2.176  0.1396  1.5159  2.1154
 5226TIP3    H237170   5.642   5.055   2.163 -0.1611  1.4057 -0.6761
 5227TIP3   OH237171   1.572   2.844  14.266  0.3518  0.0970 -0.2341
 5227TIP3    H137172   1.594   2.752  14.282 -2.6314 -0.5293  0.8865
 5227TIP3    H237173   1.521   2.843  14.185 -0.8218  0.5496  0.4769
 5228TIP3   OH237174   5.488   4.318   3.797 -0.0081 -0.3149  0.8561
 5228TIP3    H137175   5.531   4.332   3.882  2.1827 -0.5607 -0.1491
 5228TIP3    H237176   5.448   4.232   3.805  1.9765 -1.2919  1.0061
 5229TIP3   OH237177   3.759   6.825   6.206 -0.0559 -0.4078 -0.3897
 5229TIP3    H137178   3.850   6.819   6.175 -0.0684  0.9908 -0.7843
 5229TIP3    H237179   3.758   6.905   6.258 -0.9440 -0.7119  0.0674
 5230TIP3   OH237180   0.381   4.186  15.195 -0.0372 -0.4190 -0.3379
 5230TIP3    H137181   0.410   4.112  15.248  0.0536  0.3808  0.7497
 5230TIP3    H237182   0.288   4.167  15.177 -0.1096 -0.6144  0.2415
 5231TIP3   OH237183   3.208   2.279  16.205 -0.4748  0.2711 -0.7549
 5231TIP3    H137184   3.302   2.264  16.215 -0.0072  2.1479 -1.8503
 5231TIP3    H237185   3.180   2.213  16.140  0.2029  0.1075 -0.8832
 5232TIP3   OH237186   6.714   1.405   1.883  0.2032 -0.6588 -0.3780
 5232TIP3    H137187   6.629   1.418   1.925 -0.1046 -0.8445 -0.9266
 5232TIP3    H237188   6.715   1.312   1.859 -0.9855  0.0141 -3.5729
 5233TIP3   OH237189   1.869   5.971   5.786  0.1963 -0.3216 -0.1094
 5233TIP3    H137190   1.855   5.879   5.765 -2.3407 -0.3909  1.4440
 5233TIP3    H237191   1.791   5.997   5.836 -0.1718  3.2302 -2.1596
 5234TIP3   OH237192   3.988   1.523   4.790  0.0453 -0.1007  0.0854
 5234TIP3    H137193   4.056   1.533   4.857  0.1895  1.3275 -0.2381
 5234TIP3    H237194   3.918   1.582   4.818 -0.4321 -0.4417 -0.3657
 5235TIP3   OH237195   6.425   6.180   5.715  0.2184  0.2305  0.3416
 5235TIP3    H137196   6.472   6.139   5.643  1.3646  0.0514  1.1719
 5235TIP3    H237197   6.333   6.170   5.692  0.4852 -1.8799 -0.0017
 5236TIP3   OH237198   3.551   6.228   2.897 -0.5219 -0.5313  0.1250
 5236TIP3    H137199   3.636   6.194   2.870 -0.5200 -0.8728  0.5546
 5236TIP3    H237200   3.507   6.154   2.939 -1.1430 -0.4329 -0.3424
 5237TIP3   OH237201   0.026   3.715  11.283 -0.2110  0.1703  0.2527
 5237TIP3    H137202   0.079   3.696  11.360  0.7340  1.6038  0.0036
 5237TIP3    H237203  -0.032   3.787  11.311 -1.7019 -1.0278  0.3674
 5238TIP3   OH237204   4.982   2.064   0.630 -0.0467 -0.0335  0.4395
 5238TIP3    H137205   4.959   2.002   0.699  1.8186  0.3420  1.4571
 5238TIP3    H237206   5.077   2.071   0.635  0.1244  0.2134 -2.0079
 5239TIP3   OH237207   0.617   5.424  13.266 -0.0891 -0.3235  0.5035
 5239TIP3    H137208   0.624   5.478  13.188 -1.4166 -2.0207 -0.8976
 5239TIP3    H237209   0.707   5.399  13.288  0.4111  1.3077  0.3881
 5240TIP3   OH237210   2.550   3.071  14.878 -0.1959  0.0129 -0.0900
 5240TIP3    H137211   2.544   3.149  14.933 -0.2904 -0.4541  0.5815
 5240TIP3    H237212   2.643   3.062  14.859 -0.3558  1.2425 -1.6023
 5241TIP3   OH237213   0.809   6.487  16.923  0.3009  0.1108 -1.0257
 5241TIP3    H137214   0.863   6.412  16.945  0.0101  0.1029 -0.3109
 5241TIP3    H237215   0.737   6.451  16.870 -0.9591 -0.4810  0.9679
 5242TIP3   OH237216   3.255   1.081   1.985 -0.8992 -0.2276 -0.4118
 5242TIP3    H137217   3.313   1.155   1.968  0.3318 -1.4339 -1.7566
 5242TIP3    H237218   3.195   1.080   1.911 -0.0716 -1.2883 -1.1158
 5243TIP3   OH237219   5.115   3.457   0.063  0.3275 -0.4297  0.0921
 5243TIP3    H137220   5.188   3.517   0.080  0.8274 -1.4070  1.5848
 5243TIP3    H237221   5.072   3.494  -0.015  0.6981  1.7532  0.8386
 5244TIP3   OH237222   0.676   0.558   3.276  0.5152 -0.1568  0.5128
 5244TIP3    H137223   0.694   0.466   3.295 -0.8961 -0.4909  0.3265
 5244TIP3    H237224   0.580   0.564   3.273  0.5483  1.4868  1.3523
 5245TIP3   OH237225   6.431   0.575  10.204 -0.2657  0.2691 -1.0485
 5245TIP3    H137226   6.374   0.505  10.236 -0.3385  0.2664 -1.1845
 5245TIP3    H237227   6.429   0.566  10.109  0.5506 -0.1983 -1.0339
 5246TIP3   OH237228   6.530   2.919  16.794 -0.1656  0.2849  0.0599
 5246TIP3    H137229   6.603   2.876  16.748  0.6731  1.5823  0.1187
 5246TIP3    H237230   6.501   2.987  16.733 -0.1898  0.8899  0.7439
 5247TIP3   OH237231   4.074   6.103  15.088  0.3073 -0.1255  0.5846
 5247TIP3    H137232   4.139   6.072  15.025 -0.0483 -0.5921  0.4451
 5247TIP3    H237233   4.045   6.188  15.053  0.2522 -0.2904  0.2236
 5248TIP3   OH237234   6.351   2.126   2.740 -0.6239  0.2997  0.3543
 5248TIP3    H137235   6.350   2.213   2.699  2.8268 -0.5301 -1.9690
 5248TIP3    H237236   6.371   2.143   2.832 -0.9654  2.0006  0.1518
 5249TIP3   OH237237   4.982   5.733  11.710  0.2830  0.2106  0.4609
 5249TIP3    H137238   4.961   5.804  11.771  0.0172  0.8476 -0.3635
 5249TIP3    H237239   5.067   5.701  11.740  0.3319  0.7716  0.9479
 5250TIP3   OH237240   2.118   1.537  15.558  0.0220 -0.0415  0.0132
 5250TIP3    H137241   2.050   1.502  15.500  0.7464 -0.8539 -0.3598
 5250TIP3    H237242   2.072   1.553  15.641 -0.4588 -1.3717  0.0251
 5251TIP3   OH237243   5.297   1.496   3.569  0.2584  0.5015 -0.3948
 5251TIP3    H137244   5.363   1.439   3.609  0.2341  2.0045  2.0328
 5251TIP3    H237245   5.216   1.446   3.573  0.9020 -0.7799 -2.0327
 5252TIP3   OH237246   1.127   5.326   0.741 -0.3774  0.0273 -0.3780
 5252TIP3    H137247   1.207   5.336   0.792 -0.1818 -1.9605 -0.1984
 5252TIP3    H237248   1.125   5.233   0.718 -2.8535 -0.0713 -0.0185
 5253TIP3   OH237249   1.316   6.386  14.472 -0.2428 -0.0214 -0.2083
 5253TIP3    H137250   1.380   6.366  14.404  0.4603  2.0522 -0.2294
 5253TIP3    H237251   1.246   6.433  14.426  0.4518  1.8020  0.4935
 5254TIP3   OH237252   5.804   2.327   3.941  0.3013  0.6351 -0.1999
 5254TIP3    H137253   5.871   2.291   3.881 -0.3370 -1.7620  0.4087
 5254TIP3    H237254   5.825   2.420   3.947  3.6077  0.0213 -0.0450
 5255TIP3   OH237255   6.258   2.733  15.165 -0.2608  0.1612  0.7985
 5255TIP3    H137256   6.220   2.804  15.114 -1.2106 -1.6012 -1.0930
 5255TIP3    H237257   6.347   2.724  15.134  0.1512  1.0529  1.6717
 5256TIP3   OH237258   2.714   6.045   2.776 -0.2200 -0.5274  0.0629
 5256TIP3    H137259   2.710   6.063   2.870  1.2320 -1.9613  0.4520
 5256TIP3    H237260   2.656   5.970   2.763 -2.0129  0.9062 -0.5873
 5257TIP3   OH237261   5.699   2.298   5.149 -0.2564  0.2062 -0.4826
 5257TIP3    H137262   5.705   2.261   5.237 -0.0478 -1.2605 -1.0731
 5257TIP3    H237263   5.605   2.299   5.131 -0.2226 -2.4154 -1.3348
 5258TIP3   OH237264   6.562   0.545  11.522 -0.1401  0.5277 -0.3859
 5258TIP3    H137265   6.610   0.534  11.440  0.5182  0.4133  0.0171
 5258TIP3    H237266   6.566   0.460  11.565 -0.6595  0.5306 -0.3157
 5259TIP3   OH237267   3.750   3.439  11.431  0.1837 -0.8550  0.0753
 5259TIP3    H137268   3.784   3.524  11.405 -1.5058 -0.0246  0.4418
 5259TIP3    H237269   3.793   3.420  11.515  1.0783 -0.7111 -0.3358
 5260TIP3   OH237270   0.840   4.166  14.103  0.4867  0.0347 -0.2655
 5260TIP3    H137271   0.929   4.197  14.121  0.3526 -0.0925  0.6520
 5260TIP3    H237272   0.797   4.166  14.188 -0.2153 -0.4714 -0.6132
 5261TIP3   OH237273   3.088   3.945   1.670 -0.0428  0.4097 -0.1862
 5261TIP3    H137274   3.037   3.892   1.732 -1.0925  1.7095  0.0945
 5261TIP3    H237275   3.170   3.963   1.717 -1.5702  3.0077  1.7329
 5262TIP3   OH237276   5.185   0.417  13.901  0.0308 -0.2396  0.1152
 5262TIP3    H137277   5.140   0.477  13.842 -0.0149 -2.1733 -1.9839
 5262TIP3    H237278   5.263   0.390  13.852  0.0958 -1.7813  0.9979
 5263TIP3   OH237279   4.620   4.132  14.716  0.1007 -0.2450  0.1041
 5263TIP3    H137280   4.547   4.070  14.706 -0.1313  0.2475 -1.4620
 5263TIP3    H237281   4.648   4.150  14.627  0.0594  2.0445  0.5015
 5264TIP3   OH237282   6.161   4.933  15.773 -0.5879 -0.5637 -0.8995
 5264TIP3    H137283   6.148   5.028  15.769  1.2708 -0.2577 -0.6796
 5264TIP3    H237284   6.074   4.898  15.794 -1.4612  1.0154 -1.6615
 5265TIP3   OH237285   0.159   1.370   5.073  0.6323 -0.1355 -0.6345
 5265TIP3    H137286   0.108   1.334   5.145 -0.1607 -1.6877 -1.9196
 5265TIP3    H237287   0.193   1.453   5.107  0.7659 -1.0757  1.7060
 5266TIP3   OH237288   3.807   5.522  16.837  0.0154  0.5782 -0.2259
 5266TIP3    H137289   3.821   5.532  16.932  1.1002 -1.1146 -0.1622
 5266TIP3    H237290   3.895   5.513  16.801 -0.2526  3.0545 -1.6940
 5267TIP3   OH237291   1.893   2.342   3.146  0.3474  0.2641 -0.0940
 5267TIP3    H137292   1.876   2.385   3.230 -0.8891 -1.0831  0.3970
 5267TIP3    H237293   1.805   2.323   3.111  0.8478 -0.2121 -1.1335
 5268TIP3   OH237294   2.555   1.420  13.355  0.5853 -0.3006 -0.2378
 5268TIP3    H137295   2.473   1.383  13.385  0.4848  0.7292  0.8159
 5268TIP3    H237296   2.530   1.492  13.297  0.6557  1.2653  1.5781
 5269TIP3   OH237297   6.312   0.621   0.948 -0.2350 -0.0952 -0.7585
 5269TIP3    H137298   6.225   0.587   0.968 -0.0199  0.1356  0.6521
 5269TIP3    H237299   6.369   0.545   0.950  0.2060  0.1974  2.1619
 5270TIP3   OH237300   5.479   6.319  13.158  0.4251 -0.1481 -0.6969
 5270TIP3    H137301   5.390   6.336  13.128 -0.4214 -1.4789  0.8965
 5270TIP3    H237302   5.528   6.397  13.132 -1.6671  1.5588  0.1903
 5271TIP3   OH237303   1.422   5.041  11.516  0.0576 -0.2712  0.0515
 5271TIP3    H137304   1.488   5.110  11.528  0.7035 -1.0060  0.8781
 5271TIP3    H237305   1.372   5.069  11.439 -0.2767  1.5700  0.8882
 5272TIP3   OH237306   3.812   2.549  12.331  0.1074 -0.0714  0.1845
 5272TIP3    H137307   3.873   2.620  12.352  0.7925  0.0079 -1.7928
 5272TIP3    H237308   3.748   2.589  12.273 -2.3366  0.0126  2.7654
 5273TIP3   OH237309   5.675   0.042   5.779  0.3095  0.0377 -0.1795
 5273TIP3    H137310   5.601   0.083   5.824 -0.6670  2.8130 -3.8642
 5273TIP3    H237311   5.668  -0.051   5.800 -0.5764  0.8730  4.3555
 5274TIP3   OH237312   0.245   0.641  11.123 -0.0583  0.4143  0.2258
 5274TIP3    H137313   0.171   0.675  11.173 -1.2444 -0.6869 -0.6817
 5274TIP3    H237314   0.266   0.557  11.165 -0.7029 -0.2532 -0.7308
 5275TIP3   OH237315   5.880   1.600   5.659  0.3050 -0.4824 -0.1505
 5275TIP3    H137316   5.953   1.614   5.598 -0.5722 -1.7315 -1.5736
 5275TIP3    H237317   5.819   1.671   5.639 -0.1656 -1.1256 -1.0525
 5276TIP3   OH237318   0.056   3.209  11.416  0.2096 -0.4750 -0.9646
 5276TIP3    H137319   0.059   3.237  11.324 -3.6882 -1.9995 -1.7544
 5276TIP3    H237320   0.070   3.115  11.412 -0.4054 -0.6110 -0.0525
 5277TIP3   OH237321   5.987   0.484  16.969  0.1074 -0.1411 -0.1035
 5277TIP3    H137322   6.011   0.575  16.986  1.8587 -0.5092 -0.4844
 5277TIP3    H237323   5.980   0.479  16.874  0.1058 -0.4394 -0.0885
 5278TIP3   OH237324   4.446   1.212  16.493 -0.2470  0.1272  0.3971
 5278TIP3    H137325   4.453   1.167  16.577 -2.5015  1.3354  1.3190
 5278TIP3    H237326   4.470   1.303  16.512 -2.2731  0.7657  0.1479
 5279TIP3   OH237327   5.124   1.657   4.752  0.3193 -0.1062 -0.7197
 5279TIP3    H137328   5.192   1.622   4.810 -0.4293 -1.1200 -0.4212
 5279TIP3    H237329   5.171   1.709   4.687  1.3442 -0.5344 -0.3303
 5280TIP3   OH237330   4.194   4.281   5.226 -0.2759  0.1062 -0.4992
 5280TIP3    H137331   4.143   4.351   5.187 -0.0991  0.8400  0.5447
 5280TIP3    H237332   4.129   4.223   5.266 -0.3834  0.0668 -0.7305
 5281TIP3   OH237333   0.741   4.938   5.368 -0.0709  0.0006  0.3695
 5281TIP3    H137334   0.817   4.993   5.348 -0.9465  0.6171 -1.5159
 5281TIP3    H237335   0.722   4.956   5.460  1.4239  0.6303  0.5816
 5282TIP3   OH237336   2.196   0.527   3.923 -0.3680 -0.4833  0.3653
 5282TIP3    H137337   2.136   0.473   3.872  0.4759 -1.5746  0.4904
 5282TIP3    H237338   2.195   0.487   4.011  0.7407 -0.7062  0.2965
 5283TIP3   OH237339   5.500   0.759  13.393  0.0614 -0.3493 -0.2024
 5283TIP3    H137340   5.525   0.667  13.393 -0.0600 -0.4117 -1.6636
 5283TIP3    H237341   5.435   0.767  13.463  0.2896 -1.3046  0.1284
 5284TIP3   OH237342   3.004   6.562  13.022 -0.4836 -0.3246  0.4520
 5284TIP3    H137343   2.911   6.583  13.026 -0.1165  1.2232  1.8546
 5284TIP3    H237344   3.045   6.621  13.085  1.5439 -0.5252 -0.5984
 5285TIP3   OH237345   0.320   0.554   5.819  0.1179 -0.2544  0.3140
 5285TIP3    H137346   0.332   0.539   5.726 -0.7850 -0.1979  0.1718
 5285TIP3    H237347   0.243   0.502   5.842  1.9486 -2.5460  1.6652
 5286TIP3   OH237348   1.048   3.865   3.375 -0.0754  0.2549  0.9997
 5286TIP3    H137349   0.958   3.895   3.364 -0.7485 -1.5066  1.5198
 5286TIP3    H237350   1.048   3.775   3.342  1.8570  0.6958 -0.3956
 5287TIP3   OH237351   1.431   1.002   1.682 -0.8073 -0.2042 -0.2905
 5287TIP3    H137352   1.435   1.080   1.628  0.4479 -0.2900 -0.3386
 5287TIP3    H237353   1.477   0.935   1.632 -0.6151 -0.5874  0.3877
 5288TIP3   OH237354   2.696   6.676   0.163  0.0105 -0.0006  0.6531
 5288TIP3    H137355   2.664   6.713   0.081 -0.7818 -0.2456  0.8451
 5288TIP3    H237356   2.662   6.734   0.231  2.4538  1.5030  0.7484
 5289TIP3   OH237357   2.922   4.300  15.096  0.5017  0.0500  0.0680
 5289TIP3    H137358   2.883   4.384  15.074  1.0377  0.0879 -0.7849
 5289TIP3    H237359   2.922   4.251  15.014  0.8870 -0.4970  0.3868
 5290TIP3   OH237360   3.794   3.775   4.281  0.1909  0.3238  0.0071
 5290TIP3    H137361   3.795   3.836   4.355  1.6824  0.6096 -0.2180
 5290TIP3    H237362   3.803   3.688   4.321 -0.1578  0.3902  0.2281
 5291TIP3   OH237363   3.300   3.987   1.813  0.3604 -0.5282  0.5946
 5291TIP3    H137364   3.318   4.057   1.877  0.2288 -1.0630  1.2315
 5291TIP3    H237365   3.278   3.911   1.867 -0.5543 -0.7792 -0.1113
 5292TIP3   OH237366   5.478   2.601   3.928 -0.4970  0.6962 -0.1678
 5292TIP3    H137367   5.448   2.585   4.018 -0.0547 -1.4687 -0.3510
 5292TIP3    H237368   5.403   2.577   3.874 -0.2714  0.5603 -0.4209
 5293TIP3   OH237369   5.268   3.450  11.836  0.2927 -0.3313 -0.2555
 5293TIP3    H137370   5.210   3.397  11.891  0.1613  1.6674  1.6874
 5293TIP3    H237371   5.351   3.452  11.883 -0.1815  2.4410  0.6463
 5294TIP3   OH237372   1.133   1.278  16.491 -0.3166 -0.3369 -0.1786
 5294TIP3    H137373   1.166   1.346  16.551 -1.5100 -0.1015  0.2370
 5294TIP3    H237374   1.118   1.202  16.547 -0.8323 -0.3191 -0.2872
 5295TIP3   OH237375   0.461   5.256   2.250  0.2493  0.0901 -0.0718
 5295TIP3    H137376   0.530   5.299   2.300  2.2486 -2.3966 -0.4921
 5295TIP3    H237377   0.492   5.166   2.239 -2.5543 -0.8264 -1.3062
 5296TIP3   OH237378   6.205   5.538  15.987 -0.4709 -0.2683 -0.3832
 5296TIP3    H137379   6.160   5.488  15.919  0.7346 -0.6666 -0.9120
 5296TIP3    H237380   6.276   5.480  16.017 -0.7145  0.0620  0.9159
 5297TIP3   OH237381   0.449   1.005   5.289 -0.3746 -1.0110  0.2289
 5297TIP3    H137382   0.396   1.080   5.262 -1.0265 -1.5762 -0.1142
 5297TIP3    H237383   0.388   0.949   5.338  0.3297 -0.8979  1.2537
 5298TIP3   OH237384   2.040   5.195   3.288 -0.2439  0.6191 -0.3398
 5298TIP3    H137385   1.948   5.216   3.269  0.4754  2.6762 -1.9181
 5298TIP3    H237386   2.089   5.267   3.247  2.1391 -1.0623 -0.5768
 5299TIP3   OH237387   3.302   5.898   5.413 -0.4843  0.0530 -0.1576
 5299TIP3    H137388   3.310   5.807   5.442  2.0845 -0.0120 -0.8170
 5299TIP3    H237389   3.311   5.894   5.318 -0.9515  0.9499 -0.2493
 5300TIP3   OH237390   4.020   4.519   1.767  0.0977 -0.2626 -0.1443
 5300TIP3    H137391   3.954   4.565   1.819  1.0927  1.3795 -0.2458
 5300TIP3    H237392   4.059   4.457   1.828 -1.0137 -0.7302  0.1196
 5301TIP3   OH237393   3.226   3.893  12.442 -0.6075 -0.5817 -0.7436
 5301TIP3    H137394   3.259   3.962  12.499 -1.1321 -1.4536  0.6628
 5301TIP3    H237395   3.304   3.843  12.418 -0.5110 -0.9149  0.2106
 5302TIP3   OH237396   6.044   1.723   5.460  0.5328  0.4152  0.0419
 5302TIP3    H137397   6.120   1.779   5.446  0.0015  0.6198 -2.4471
 5302TIP3    H237398   5.970   1.774   5.425  0.0366 -1.7724 -2.3901
 5303TIP3   OH237399   3.269   1.798  15.287  0.0921  0.5261  0.4606
 5303TIP3    H137400   3.325   1.783  15.210  1.3933  0.3445  1.4081
 5303TIP3    H237401   3.180   1.795  15.253  0.6529  2.0245 -1.3363
 5304TIP3   OH237402   3.157   1.790  15.617 -0.7619  0.4110 -0.3197
 5304TIP3    H137403   3.084   1.749  15.571 -2.1748  0.8863  1.4044
 5304TIP3    H237404   3.147   1.764  15.708  1.3106  0.4179 -0.0372
 5305TIP3   OH237405   6.460   6.198   5.042  0.1996  0.6458  0.2279
 5305TIP3    H137406   6.388   6.140   5.016  1.1163 -0.1202 -0.7320
 5305TIP3    H237407   6.490   6.236   4.959  0.1299  1.8952  0.7595
 5306TIP3   OH237408   6.448   2.577   6.343  0.2143  0.4634 -0.4956
 5306TIP3    H137409   6.490   2.493   6.362  0.3324  0.3655 -1.1688
 5306TIP3    H237410   6.360   2.553   6.313 -0.4466  0.6758  1.1542
 5307TIP3   OH237411   2.526   0.846   2.431  0.1173 -0.2525  0.4293
 5307TIP3    H137412   2.587   0.905   2.476 -0.0660  0.4140 -0.1733
 5307TIP3    H237413   2.439   0.876   2.458  0.0059  0.1277 -0.3250
 5308TIP3   OH237414   1.160   2.752  16.482  0.1813  0.0782 -0.0674
 5308TIP3    H137415   1.174   2.694  16.557 -4.5703 -0.3064  0.8284
 5308TIP3    H237416   1.129   2.834  16.521  0.6981  1.0358 -1.5704
 5309TIP3   OH237417   0.757   6.565   5.971 -0.3467  0.2196 -0.0694
 5309TIP3    H137418   0.756   6.475   5.938 -0.1316  0.4922 -0.8528
 5309TIP3    H237419   0.844   6.577   6.008  0.0908  0.4929 -1.1310
 5310TIP3   OH237420   5.193   6.608   4.556 -0.0504  0.3191  0.1730
 5310TIP3    H137421   5.206   6.701   4.542 -0.1760  0.1037 -1.6143
 5310TIP3    H237422   5.188   6.598   4.652 -2.3258  2.4264  0.3562
 5311TIP3   OH237423   3.930   1.347   0.128  0.0494 -0.7935 -0.0468
 5311TIP3    H137424   3.900   1.434   0.103  1.6404 -0.6462 -1.7029
 5311TIP3    H237425   3.957   1.356   0.219  2.5389  1.2165 -0.8455
 5312TIP3   OH237426   1.600   1.095   2.265  0.8234 -0.3289  0.1041
 5312TIP3    H137427   1.546   1.042   2.206  0.6002  0.4790 -0.4276
 5312TIP3    H237428   1.651   1.030   2.314 -0.3110 -1.0865  0.3278
 5313TIP3   OH237429   4.679   4.412  13.703  0.2027  0.6566  0.5674
 5313TIP3    H137430   4.633   4.493  13.679  0.8488  0.4463 -1.6177
 5313TIP3    H237431   4.627   4.342  13.664  1.0457  0.2304  0.1914
 5314TIP3   OH237432   5.990   5.242   1.392  0.5357 -0.3465  0.3228
 5314TIP3    H137433   5.982   5.264   1.299  0.8467  0.6496  0.5287
 5314TIP3    H237434   6.074   5.280   1.419 -0.2459  0.7020  1.3683
 5315TIP3   OH237435   4.156   5.126  16.319  0.0412  0.0915  0.0160
 5315TIP3    H137436   4.206   5.086  16.247  0.4150 -2.4494  1.5919
 5315TIP3    H237437   4.183   5.078  16.397 -2.2640  1.0539  1.5033
 5316TIP3   OH237438   0.781   2.552  16.181  0.3882  0.1451  0.0551
 5316TIP3    H137439   0.847   2.558  16.250  0.7430  0.0720 -0.2759
 5316TIP3    H237440   0.806   2.474  16.131  0.2741  0.3365 -0.3018
 5317TIP3   OH237441   5.380   0.739   2.629 -0.1384 -0.4216 -0.8726
 5317TIP3    H137442   5.340   0.654   2.647 -1.7829  0.1427 -1.7137
 5317TIP3    H237443   5.317   0.785   2.575  2.4230 -0.1356 -3.9049
 5318TIP3   OH237444   1.895   3.357   2.976 -0.8546  0.4314  0.0545
 5318TIP3    H137445   1.949   3.287   2.941 -0.8000 -0.2510  1.4323
 5318TIP3    H237446   1.837   3.382   2.904 -0.4522 -0.6043 -0.6387
 5319TIP3   OH237447   2.960   0.098   5.082  0.0586 -0.0717  0.1108
 5319TIP3    H137448   3.036   0.058   5.040 -0.7600  0.7149 -2.3117
 5319TIP3    H237449   2.931   0.034   5.147  1.6990 -1.1743 -0.1926
 5320TIP3   OH237450   0.002   1.610   5.933  0.2554  0.1183  0.1602
 5320TIP3    H137451  -0.049   1.676   5.980 -1.2550 -1.6303  1.1334
 5320TIP3    H237452   0.077   1.594   5.989  1.0201  1.4712 -0.4323
 5321TIP3   OH237453   2.070   0.438   5.249 -0.0462  0.9169  0.3561
 5321TIP3    H137454   1.977   0.440   5.230  0.2579 -2.0525 -2.4748
 5321TIP3    H237455   2.092   0.344   5.252  2.7967  1.4997  1.0792
 5322TIP3   OH237456   4.826   4.350   1.951 -0.0012  0.8008 -0.8599
 5322TIP3    H137457   4.754   4.286   1.957 -0.1921  1.1039  0.3484
 5322TIP3    H237458   4.878   4.333   2.030  1.2432  0.6119 -1.7073
 5323TIP3   OH237459   1.342   2.514  12.306 -0.4216 -0.5310 -0.4417
 5323TIP3    H137460   1.407   2.444  12.301 -0.7278 -0.7987 -0.7227
 5323TIP3    H237461   1.296   2.498  12.389 -0.0145 -0.2379 -0.1588
 5324TIP3   OH237462   4.366   0.101   0.169 -0.5292 -0.0640 -0.5752
 5324TIP3    H137463   4.360   0.165   0.098  1.9867  1.0306  0.0883
 5324TIP3    H237464   4.416   0.029   0.132 -0.1525  0.0254 -0.2456
 5325TIP3   OH237465   2.003   0.464  12.504 -0.0016  0.2937  0.1485
 5325TIP3    H137466   2.007   0.558  12.491 -1.2499  0.0494 -2.8025
 5325TIP3    H237467   1.914   0.440  12.481 -0.1155 -1.4973  2.1687
 5326TIP3   OH237468   6.205   6.760   0.851 -0.0036  0.0020 -0.4610
 5326TIP3    H137469   6.142   6.814   0.802 -0.9234 -0.2516  0.4038
 5326TIP3    H237470   6.162   6.744   0.935  0.7020 -1.1964 -0.3083
 5327TIP3   OH237471   6.063   3.330   2.944 -0.4442 -0.1099  0.2321
 5327TIP3    H137472   6.016   3.395   2.894 -1.1866 -0.2861  0.6874
 5327TIP3    H237473   6.076   3.257   2.883 -2.2347 -0.7400  0.5574
 5328TIP3   OH237474   0.481   1.669  12.153 -0.3476  0.0128  0.1811
 5328TIP3    H137475   0.510   1.625  12.073  0.0887  0.0514  0.3130
 5328TIP3    H237476   0.534   1.629  12.222  0.1515  0.8297  0.2854
 5329TIP3   OH237477   5.612   2.392  12.459  0.0925 -0.6130 -0.9335
 5329TIP3    H137478   5.593   2.449  12.533  0.4844 -0.4824 -0.9306
 5329TIP3    H237479   5.601   2.448  12.382  2.7608  0.1566 -0.8462
 5330TIP3   OH237480   6.266   2.185  17.041  0.4677  0.1118  0.0753
 5330TIP3    H137481   6.256   2.090  17.047 -0.1013  0.2338  1.5459
 5330TIP3    H237482   6.244   2.217  17.129 -0.8266  1.7279 -0.7769
 5331TIP3   OH237483   4.521   6.756  15.409 -0.9084  0.1040 -0.4002
 5331TIP3    H137484   4.608   6.718  15.414 -0.7043  0.4477 -1.2242
 5331TIP3    H237485   4.511   6.805  15.491  1.1630  3.1630 -1.7663
 5332TIP3   OH237486   1.415   3.191   4.807  0.9052 -0.6456 -0.0431
 5332TIP3    H137487   1.347   3.160   4.866  0.1535  0.8965 -0.0572
 5332TIP3    H237488   1.437   3.278   4.839  0.6264  0.1565 -1.8742
 5333TIP3   OH237489   4.462   5.596   0.642 -0.1801  0.2742 -0.0166
 5333TIP3    H137490   4.431   5.529   0.580  0.2069  1.8290 -1.9777
 5333TIP3    H237491   4.383   5.636   0.676 -0.3849  0.0331 -0.2028
 5334TIP3   OH237492   4.747   4.829  14.044 -0.1269 -0.0004  0.3207
 5334TIP3    H137493   4.709   4.745  14.070  0.6573 -0.2127  0.8373
 5334TIP3    H237494   4.719   4.842  13.954  0.0952 -1.0348  0.0928
 5335TIP3   OH237495   2.437   5.521  15.844  0.4628  0.0773 -0.2693
 5335TIP3    H137496   2.489   5.602  15.841 -0.6341  0.9052  1.5150
 5335TIP3    H237497   2.452   5.486  15.931  1.9256 -2.4388 -1.4135
 5336TIP3   OH237498   2.100   3.583  11.836 -0.0474  0.1604  0.4838
 5336TIP3    H137499   2.018   3.535  11.844 -0.3700  0.7948  1.1318
 5336TIP3    H237500   2.091   3.657  11.896  0.5853  0.8216 -0.1963
 5337TIP3   OH237501   1.704   5.593   0.426  0.3395  0.6124 -0.1251
 5337TIP3    H137502   1.759   5.516   0.439 -0.6521 -0.2289 -0.7279
 5337TIP3    H237503   1.737   5.634   0.346  0.2952  0.2802 -0.3165
 5338TIP3   OH237504   3.405   0.565   2.414 -0.1247  0.2464  0.1765
 5338TIP3    H137505   3.316   0.591   2.440 -0.2037  0.2683 -0.1147
 5338TIP3    H237506   3.399   0.471   2.398 -0.2981  0.3937 -0.6709
 5339TIP3   OH237507   5.710   3.996  11.565  0.3221 -0.1589  0.4713
 5339TIP3    H137508   5.662   4.067  11.608 -1.5978 -1.3907  0.4830
 5339TIP3    H237509   5.789   4.037  11.531 -0.6632  1.9393  0.5899
 5340TIP3   OH237510   2.757   4.735   5.166  0.2104 -0.6936  0.1653
 5340TIP3    H137511   2.831   4.699   5.119  0.1730  0.4506 -0.8021
 5340TIP3    H237512   2.742   4.674   5.238  0.9344 -1.8975 -0.6850
 5341TIP3   OH237513   1.002   3.643  13.566  0.0612 -0.3617 -0.5966
 5341TIP3    H137514   1.047   3.568  13.526  0.5631 -0.3702 -0.0226
 5341TIP3    H237515   0.910   3.615  13.569  0.2736 -1.0547 -0.1866
 5342TIP3   OH237516   5.048   2.921  15.423  0.0585  0.1047  0.3472
 5342TIP3    H137517   5.088   3.006  15.442 -0.1010  0.2092  0.2169
 5342TIP3    H237518   5.086   2.862  15.487 -1.2434  0.6527  1.6760
 5343TIP3   OH237519   1.670   4.493   6.692  0.1969  0.0958 -0.9637
 5343TIP3    H137520   1.763   4.511   6.703  0.3045 -1.1046  0.3496
 5343TIP3    H237521   1.638   4.475   6.781 -0.7598 -1.8783 -1.6405
 5344TIP3   OH237522   3.373   2.075  12.665  0.6976  0.0482  0.3250
 5344TIP3    H137523   3.355   2.167  12.647  4.0067  0.8023  0.2852
 5344TIP3    H237524   3.390   2.037  12.578 -0.7692 -0.6927  0.3265
 5345TIP3   OH237525   4.653   2.942  12.153  0.1363 -0.2858 -0.1159
 5345TIP3    H137526   4.636   3.013  12.091  0.2058 -0.1315  0.0438
 5345TIP3    H237527   4.609   2.866  12.114 -1.2028  0.1717  0.4308
 5346TIP3   OH237528   5.291   2.636  16.526 -0.2534  0.1146 -0.3690
 5346TIP3    H137529   5.204   2.598  16.515 -0.3945  0.5290 -0.7207
 5346TIP3    H237530   5.348   2.582  16.472 -0.7960  1.6035 -2.5721
 5347TIP3   OH237531   4.509   5.761   4.706 -1.0460  0.3030  0.5093
 5347TIP3    H137532   4.544   5.724   4.787 -0.9710 -0.6945  0.0411
 5347TIP3    H237533   4.481   5.850   4.730  2.7399  1.6383  0.6960
 5348TIP3   OH237534   2.726   2.352   3.648 -0.1148  0.1234  0.2868
 5348TIP3    H137535   2.693   2.351   3.738  0.2478 -1.4488  0.4441
 5348TIP3    H237536   2.652   2.322   3.595  0.9713 -3.8048  0.6850
 5349TIP3   OH237537   2.378   0.738  11.838 -0.3970  0.0221 -0.1766
 5349TIP3    H137538   2.283   0.738  11.853 -0.6775  1.3023 -1.6704
 5349TIP3    H237539   2.388   0.771  11.748  1.4744  0.0348 -0.0014
 5350TIP3   OH237540   2.429   1.840  13.787 -0.3076  0.1770  0.1070
 5350TIP3    H137541   2.343   1.854  13.827 -1.1351  0.5644 -1.7323
 5350TIP3    H237542   2.489   1.835  13.862 -1.9561 -0.4634  1.4493
 5351TIP3   OH237543   4.505   1.599  11.132 -0.1040 -0.0723 -0.1133
 5351TIP3    H137544   4.487   1.688  11.104  2.0551  0.7101  0.7536
 5351TIP3    H237545   4.580   1.572  11.078 -2.0197 -2.2287 -1.9047
 5352TIP3   OH237546   6.515   3.866   3.138 -0.1340 -0.1367 -0.1525
 5352TIP3    H137547   6.483   3.904   3.056  0.5608  0.7692 -0.0257
 5352TIP3    H237548   6.610   3.859   3.125  0.1595  1.1728  0.9926
 5353TIP3   OH237549   3.267   3.147  14.200 -0.2623  0.0851 -0.0418
 5353TIP3    H137550   3.219   3.170  14.121  0.5605  0.8090 -0.3483
 5353TIP3    H237551   3.284   3.231  14.243  1.0739 -0.0978 -0.1632
 5354TIP3   OH237552   0.047   1.614  14.479  0.5410  0.7975  0.3625
 5354TIP3    H137553   0.075   1.525  14.458 -0.6513  0.6365 -0.6385
 5354TIP3    H237554   0.111   1.644  14.544  0.3731 -1.1489  1.5129
 5355TIP3   OH237555   2.714   3.958   3.606  0.2933  0.2370  0.3024
 5355TIP3    H137556   2.798   3.913   3.615 -0.0553 -0.7692 -1.0353
 5355TIP3    H237557   2.669   3.910   3.536 -1.4568  0.6679  1.0710
 5356TIP3   OH237558   1.688   1.598  13.209 -0.3425  0.0428 -0.2089
 5356TIP3    H137559   1.778   1.587  13.240  0.0902  0.9085 -1.1083
 5356TIP3    H237560   1.633   1.570  13.282  0.6437  1.1352  0.9862
 5357TIP3   OH237561   6.259   2.470  12.146  0.6116 -0.0378 -0.0409
 5357TIP3    H137562   6.172   2.476  12.185  0.0352 -0.5763 -1.1898
 5357TIP3    H237563   6.302   2.552  12.170  0.3077 -0.3466  1.7073
 5358TIP3   OH237564   4.772   2.168   3.795  0.5009  0.3211 -0.0826
 5358TIP3    H137565   4.687   2.212   3.793  0.8206  0.9807  0.4371
 5358TIP3    H237566   4.790   2.154   3.888  1.0144  0.2906 -0.1827
 5359TIP3   OH237567   3.458   4.708   0.673  0.3260  0.1169 -0.9393
 5359TIP3    H137568   3.480   4.620   0.704 -1.0455  0.4239  1.1174
 5359TIP3    H237569   3.476   4.765   0.748 -3.6563  0.8390 -0.2929
 5360TIP3   OH237570   2.828   4.521  15.282  0.3935  0.0766  0.0511
 5360TIP3    H137571   2.911   4.532  15.328  1.8764  0.2567 -2.4873
 5360TIP3    H237572   2.823   4.597  15.224 -0.7420 -0.7763 -1.0176
 5361TIP3   OH237573   5.647   1.730   0.841  0.0702 -0.1835 -0.1026
 5361TIP3    H137574   5.700   1.779   0.778 -0.4023  1.5904  0.8140
 5361TIP3    H237575   5.702   1.723   0.919 -0.4265  0.2357  0.2949
 5362TIP3   OH237576   4.293   5.486   3.582  0.0696  0.1252 -0.5254
 5362TIP3    H137577   4.339   5.457   3.503  0.6797  1.0844 -0.5490
 5362TIP3    H237578   4.213   5.527   3.549  0.9526  1.7326 -0.7858
 5363TIP3   OH237579   6.540   3.751   6.057  0.5396 -0.0730 -0.1801
 5363TIP3    H137580   6.593   3.688   6.106  0.1576 -0.7710 -0.6515
 5363TIP3    H237581   6.570   3.837   6.088  0.5987 -0.4929  0.9658
 5364TIP3   OH237582   0.745   3.469   3.035 -0.3951  0.3776 -0.1289
 5364TIP3    H137583   0.758   3.399   3.100  1.0077  1.7126  1.1187
 5364TIP3    H237584   0.702   3.539   3.084  0.1337  1.1797 -0.7776
 5365TIP3   OH237585   5.235   2.766  11.981 -0.4088  0.2372 -0.1286
 5365TIP3    H137586   5.181   2.845  11.977 -1.7539 -0.6246  0.4182
 5365TIP3    H237587   5.259   2.758  12.073  0.0953  0.2305 -0.2557
 5366TIP3   OH237588   1.243   4.381   3.501 -0.0883 -0.1163 -0.0879
 5366TIP3    H137589   1.193   4.304   3.473 -0.4515  0.3077 -0.6189
 5366TIP3    H237590   1.179   4.452   3.501  0.1072  0.0819  0.9644
 5367TIP3   OH237591   6.463   6.788   5.649 -0.4336 -0.4885 -0.3166
 5367TIP3    H137592   6.391   6.834   5.606 -0.2579  0.0995 -0.0028
 5367TIP3    H237593   6.538   6.848   5.641 -0.6242  0.0570  1.5951
 5368TIP3   OH237594   0.624   6.448  16.441 -0.2343  0.0403 -0.2327
 5368TIP3    H137595   0.692   6.515  16.437 -0.6718  0.4920 -0.1648
 5368TIP3    H237596   0.561   6.473  16.374 -0.8308  0.1774  0.3611
 5369TIP3   OH237597   6.199   5.726   5.598 -0.2016  0.3208 -0.0589
 5369TIP3    H137598   6.136   5.658   5.576  0.2608 -1.1101  2.6477
 5369TIP3    H237599   6.147   5.793   5.642 -0.6934  1.9787 -2.8989
 5370TIP3   OH237600   1.631   4.653  16.892  0.3895 -0.1677 -0.2295
 5370TIP3    H137601   1.712   4.642  16.942  0.2742  2.1148  0.5795
 5370TIP3    H237602   1.617   4.748  16.890 -1.7063 -0.4471 -1.2866
 5371TIP3   OH237603   0.362   3.953   0.844  0.7251 -0.1050 -0.4535
 5371TIP3    H137604   0.369   3.858   0.857  2.1722  0.2669  2.1867
 5371TIP3    H237605   0.400   3.968   0.758  1.6182 -1.8257 -0.4045
 5372TIP3   OH237606   4.268   5.354  13.510  0.3748  0.4126  0.0447
 5372TIP3    H137607   4.187   5.389  13.473  1.1642  2.3541  0.0762
 5372TIP3    H237608   4.298   5.421  13.571  2.3047 -0.0071 -0.3951
 5373TIP3   OH237609   1.121   2.436  14.338 -0.5530 -0.7733 -0.1042
 5373TIP3    H137610   1.042   2.488  14.329 -0.6689 -1.0260 -0.5607
 5373TIP3    H237611   1.171   2.453  14.259 -0.2878 -0.8452  0.0453
 5374TIP3   OH237612   4.880   2.778  14.666  0.0909  0.3574  0.0735
 5374TIP3    H137613   4.936   2.839  14.714  0.4734  0.3893 -0.4038
 5374TIP3    H237614   4.809   2.757  14.727  0.6755  0.2363  0.7265
 5375TIP3   OH237615   0.345   4.153   1.035  0.0157  0.0793  0.6135
 5375TIP3    H137616   0.412   4.201   0.987 -1.5189  0.5993 -1.1129
 5375TIP3    H237617   0.329   4.075   0.982  0.9588 -1.3306  2.2861
 5376TIP3   OH237618   3.879   1.230   5.955 -0.0301 -0.2307  0.1183
 5376TIP3    H137619   3.886   1.318   5.918  0.8105 -1.2672 -2.3482
 5376TIP3    H237620   3.956   1.222   6.012  1.2901 -0.1735 -1.5772
 5377TIP3   OH237621   4.207   3.781   4.624  0.6213  0.1949 -0.3935
 5377TIP3    H137622   4.176   3.844   4.690  0.7082  1.3461 -1.4211
 5377TIP3    H237623   4.155   3.702   4.640  2.1524 -0.4058  2.5002
 5378TIP3   OH237624   6.175   4.744   4.936  0.5635 -0.0791 -0.6063
 5378TIP3    H137625   6.128   4.818   4.973  0.8074  0.6740 -1.7438
 5378TIP3    H237626   6.187   4.683   5.009  1.5861  1.6100  0.7030
 5379TIP3   OH237627   4.736   2.940  12.697 -0.1238  0.1022 -0.0458
 5379TIP3    H137628   4.752   2.925  12.603  0.4805  0.0385  0.0653
 5379TIP3    H237629   4.643   2.918  12.708 -0.4833  1.1440 -0.8333
 5380TIP3   OH237630   1.534   2.643   5.208  0.0321  0.1626  0.0652
 5380TIP3    H137631   1.600   2.580   5.235  0.0121 -0.4671 -1.2673
 5380TIP3    H237632   1.546   2.717   5.267 -0.3486 -1.2959  2.0570
 5381TIP3   OH237633   5.493   4.849   4.023  0.4275 -0.1647 -0.0118
 5381TIP3    H137634   5.408   4.824   4.059  0.1621 -0.2317 -0.6770
 5381TIP3    H237635   5.501   4.942   4.043  0.0188 -0.0666 -0.3088
 5382TIP3   OH237636   1.767   0.551  11.768 -0.1565  0.0383  0.3894
 5382TIP3    H137637   1.725   0.472  11.733 -0.5392  0.9308 -1.2805
 5382TIP3    H237638   1.704   0.621  11.751  0.4386  0.8116  1.2744
 5383TIP3   OH237639   5.179   4.935  11.076  0.0228  0.3806  0.6204
 5383TIP3    H137640   5.176   5.011  11.134 -1.3207  1.4338 -0.7327
 5383TIP3    H237641   5.272   4.914  11.068  0.4433  2.0033  0.9147
 5384TIP3   OH237642   2.520   3.570   1.666 -0.0178  0.2204  0.5196
 5384TIP3    H137643   2.479   3.557   1.751  0.4289  0.0941  0.7227
 5384TIP3    H237644   2.471   3.641   1.626 -1.0234 -0.5499  0.3653
 5385TIP3   OH237645   1.419   0.910  15.591 -0.1938  0.1757 -0.2306
 5385TIP3    H137646   1.378   0.879  15.510  0.2577  0.6580 -0.6549
 5385TIP3    H237647   1.513   0.899  15.576 -0.1484 -0.8321  0.6933
 5386TIP3   OH237648   1.708   1.550   5.570 -0.0325  0.6141  0.6582
 5386TIP3    H137649   1.713   1.607   5.646  1.0895  0.6091  0.6043
 5386TIP3    H237650   1.628   1.577   5.525 -0.0240  1.4844  1.1497
 5387TIP3   OH237651   1.430   5.286  13.586  0.2323  0.3167 -0.3120
 5387TIP3    H137652   1.364   5.353  13.567  0.2924  0.6027  0.4539
 5387TIP3    H237653   1.513   5.328  13.564  0.1097 -0.6159 -2.9223
 5388TIP3   OH237654   0.773   4.309   2.231 -0.2251 -0.2736 -0.9649
 5388TIP3    H137655   0.720   4.237   2.198 -0.4448 -1.8100  2.3556
 5388TIP3    H237656   0.763   4.305   2.326  1.3258  2.9729 -0.5310
 5389TIP3   OH237657   2.803   6.092   0.709 -0.1124  0.3966  0.0951
 5389TIP3    H137658   2.769   6.168   0.756 -0.8607  0.9787 -1.3372
 5389TIP3    H237659   2.758   6.017   0.749 -1.9784  1.0182 -0.7190
 5390TIP3   OH237660   0.740   6.220  14.556 -0.0751 -0.2416 -0.3157
 5390TIP3    H137661   0.658   6.258  14.523 -0.2216 -0.0791  0.2245
 5390TIP3    H237662   0.745   6.250  14.647 -0.5013 -2.0006  0.3319
 5391TIP3   OH237663   2.558   5.235  16.723 -0.3083 -0.1421  0.4187
 5391TIP3    H137664   2.579   5.200  16.810 -2.1218 -0.7775  0.6349
 5391TIP3    H237665   2.610   5.181  16.663 -1.2276 -1.6645  0.9310
 5392TIP3   OH237666   1.770   1.200   2.646 -0.1423  0.3399  0.1439
 5392TIP3    H137667   1.814   1.114   2.645  1.4943  1.1337 -1.3511
 5392TIP3    H237668   1.783   1.234   2.558 -0.8402  2.1149  0.6967
 5393TIP3   OH237669   1.306   6.356   4.265  0.2342 -0.3118 -0.2836
 5393TIP3    H137670   1.400   6.356   4.286  0.2022  0.9657 -0.0370
 5393TIP3    H237671   1.271   6.433   4.311 -1.4372 -2.1399  1.6794
 5394TIP3   OH237672   3.011   4.518  10.703  0.0733  0.0409  0.3613
 5394TIP3    H137673   3.103   4.518  10.677 -0.1404  1.3583 -0.4676
 5394TIP3    H237674   2.964   4.488  10.626 -0.3569  1.6512 -0.0494
 5395TIP3   OH237675   0.623   6.413   3.239 -0.5545  0.5738 -0.2378
 5395TIP3    H137676   0.622   6.393   3.146 -1.2352  1.1134 -0.3535
 5395TIP3    H237677   0.537   6.384   3.270 -1.1125  2.1886 -0.1764
 5396TIP3   OH237678   1.150   5.150  13.639  0.3502 -0.8712  0.2855
 5396TIP3    H137679   1.094   5.221  13.608 -0.1943 -1.3903  0.0768
 5396TIP3    H237680   1.211   5.193  13.700  1.4877  0.1710 -1.5138
 5397TIP3   OH237681   6.696   6.566  12.629 -0.1401  0.1670 -0.2926
 5397TIP3    H137682   6.713   6.474  12.611  3.8996  0.4078  1.2037
 5397TIP3    H237683   6.763   6.591  12.693 -1.0936  4.1224 -0.5630
 5398TIP3   OH237684   6.609   2.984   6.034 -0.2689  0.0295 -0.4025
 5398TIP3    H137685   6.590   3.066   6.079 -2.0743  0.6425 -2.1542
 5398TIP3    H237686   6.648   2.928   6.102  3.8231  3.1751  0.2267
 5399TIP3   OH237687   6.033   4.594   2.020 -0.1286  0.0576 -0.7362
 5399TIP3    H137688   6.126   4.606   2.036 -0.0323 -0.7117 -0.6942
 5399TIP3    H237689   6.012   4.659   1.953  0.5155 -0.0172 -1.0176
 5400TIP3   OH237690   5.881   4.658  14.992 -0.0415  0.2477 -0.0069
 5400TIP3    H137691   5.907   4.747  15.014  0.9860  0.0523 -0.3863
 5400TIP3    H237692   5.909   4.646  14.902  0.7213 -0.7704  0.3388
 5401TIP3   OH237693   2.299   2.559   5.703 -0.1739 -0.0796  1.2159
 5401TIP3    H137694   2.381   2.525   5.739  0.4404  1.1858  1.0503
 5401TIP3    H237695   2.311   2.654   5.700 -2.1616  0.2797  2.4865
 5402TIP3   OH237696   1.337   3.711  11.626  0.2868  0.0018  0.0311
 5402TIP3    H137697   1.253   3.679  11.659 -0.1026 -0.1275 -1.0434
 5402TIP3    H237698   1.358   3.653  11.553  0.4448  1.0812 -0.8178
 5403TIP3   OH237699   4.767   0.085  14.621  0.6342 -0.1003 -0.0988
 5403TIP3    H137700   4.699   0.044  14.568  0.1297 -0.8971  1.1497
 5403TIP3    H237701   4.812   0.145  14.560  0.3957 -1.3571 -1.5549
 5404TIP3   OH237702   2.821   3.739   5.559 -0.0376  0.4754 -0.1036
 5404TIP3    H137703   2.809   3.827   5.523 -1.7247  0.1487 -0.4685
 5404TIP3    H237704   2.761   3.685   5.507  0.5932 -0.7944  0.4614
 5405TIP3   OH237705   6.643   0.479   4.567  0.3362  0.0640  0.1682
 5405TIP3    H137706   6.627   0.482   4.662  1.1356  0.5959  0.2836
 5405TIP3    H237707   6.596   0.555   4.533 -0.4093 -0.4297  0.0571
 5406TIP3   OH237708   2.968   0.363   4.981 -0.3449  0.0969  0.1480
 5406TIP3    H137709   2.986   0.288   5.038 -0.0498 -0.5619 -0.7842
 5406TIP3    H237710   3.002   0.337   4.895 -3.5107 -0.2550 -1.1539
 5407TIP3   OH237711   2.756   6.647   4.756  0.4020  0.2919  0.2890
 5407TIP3    H137712   2.764   6.690   4.841 -0.0193 -0.5228  0.7435
 5407TIP3    H237713   2.807   6.703   4.697  2.0380  0.0274  1.3707
 5408TIP3   OH237714   4.374   6.551   3.419 -0.3185 -0.5968 -0.6098
 5408TIP3    H137715   4.414   6.535   3.504 -0.3846 -0.4712 -0.5556
 5408TIP3    H237716   4.377   6.646   3.408 -1.9682 -0.4463  0.0587
 5409TIP3   OH237717   5.733   3.518   6.416 -0.0366 -1.0242 -0.8715
 5409TIP3    H137718   5.789   3.525   6.493  0.5910 -2.1507 -1.2094
 5409TIP3    H237719   5.676   3.595   6.421  0.5444 -0.6462  0.2671
 5410TIP3   OH237720   1.310   1.101   5.723 -0.1951 -0.0389  0.5117
 5410TIP3    H137721   1.307   1.197   5.726 -1.2843 -0.0392  0.1095
 5410TIP3    H237722   1.351   1.076   5.805 -0.5376  0.7620  0.9477
 5411TIP3   OH237723   2.864   3.746   0.002  0.1543 -0.2806 -0.0857
 5411TIP3    H137724   2.782   3.780   0.040 -0.3343 -1.4223 -0.0766
 5411TIP3    H237725   2.914   3.716   0.077 -0.7067 -2.3118 -0.2642
 5412TIP3   OH237726   0.273   1.706  13.717  0.1089 -0.7651 -0.0971
 5412TIP3    H137727   0.309   1.715  13.629  0.7495  0.0240  0.2289
 5412TIP3    H237728   0.340   1.742  13.774 -1.5684  1.7440  0.4658
 5413TIP3   OH237729   2.241   4.487   4.423 -0.1302  0.1732 -0.3483
 5413TIP3    H137730   2.277   4.536   4.349  0.9452 -1.6938 -1.1342
 5413TIP3    H237731   2.183   4.422   4.383 -0.7428  0.1292  0.5874
 5414TIP3   OH237732   0.752   2.539   0.663 -0.4926  0.3820 -0.6565
 5414TIP3    H137733   0.792   2.626   0.671 -0.9410  0.6070 -0.8578
 5414TIP3    H237734   0.747   2.507   0.753  1.2451 -0.1579 -0.7215
 5415TIP3   OH237735   3.418   0.666  16.514 -0.0180  0.0447  0.0905
 5415TIP3    H137736   3.471   0.588  16.498  0.3154  0.1195  0.8091
 5415TIP3    H237737   3.342   0.655  16.456 -0.1410 -0.9764  0.4280
 5416TIP3   OH237738   1.423   4.559   0.315  0.1158 -0.6486  0.0837
 5416TIP3    H137739   1.336   4.521   0.300 -0.1380  0.1215 -0.5164
 5416TIP3    H237740   1.484   4.494   0.282 -0.2641 -0.9371 -0.0625
 5417TIP3   OH237741   0.604   2.633   5.582 -0.5439 -0.5038  0.1816
 5417TIP3    H137742   0.600   2.667   5.672  1.4375 -1.9276  0.8613
 5417TIP3    H237743   0.677   2.679   5.542  0.4237 -1.9139  0.2544
 5418TIP3   OH237744   1.095   4.908   4.890  0.3886 -0.1132  0.3428
 5418TIP3    H137745   1.053   4.841   4.944 -0.1138  0.2149  0.3618
 5418TIP3    H237746   1.121   4.976   4.951  0.7711 -0.2217  0.3034
 5419TIP3   OH237747   0.354   4.693   5.892 -0.3706 -1.1027  0.3841
 5419TIP3    H137748   0.350   4.768   5.952 -0.1850 -1.0831  0.3709
 5419TIP3    H237749   0.264   4.661   5.889 -0.4658 -0.8359  0.3320
 5420TIP3   OH237750   2.587   0.122  15.752  0.2000 -0.4677  0.9715
 5420TIP3    H137751   2.554   0.058  15.815 -0.1448  0.2077  1.4873
 5420TIP3    H237752   2.544   0.204  15.776  1.6965  0.2781  1.1965
 5421TIP3   OH237753   6.228   3.505   3.858 -0.0126  0.1161 -0.0003
 5421TIP3    H137754   6.323   3.495   3.856  0.0672  0.8086  0.1186
 5421TIP3    H237755   6.202   3.499   3.766  0.1212 -0.2709 -0.0154
 5422TIP3   OH237756   1.620   4.955  16.899 -0.6527  0.4236 -0.4678
 5422TIP3    H137757   1.686   4.945  16.967 -0.2635 -1.5361 -1.0609
 5422TIP3    H237758   1.660   5.011  16.833  0.3414 -0.5106 -0.6880
 5423TIP3   OH237759   4.921   4.299  10.930 -0.4752  0.7293 -0.3749
 5423TIP3    H137760   5.013   4.277  10.942 -0.3725  1.5234  0.3940
 5423TIP3    H237761   4.921   4.369  10.864 -0.5489  0.6080 -0.5052
 5424TIP3   OH237762   1.060   5.933  12.246  0.2445 -0.2013  0.3596
 5424TIP3    H137763   1.153   5.911  12.245  0.3786  0.3646 -0.7447
 5424TIP3    H237764   1.047   5.982  12.328  1.7073  2.8775 -1.0923
 5425TIP3   OH237765   6.513   0.433  16.801  0.1010 -0.4182  0.5838
 5425TIP3    H137766   6.425   0.408  16.773  0.0001  2.1040 -1.7117
 5425TIP3    H237767   6.502   0.461  16.892 -1.3412 -0.6329  0.4954
 5426TIP3   OH237768   0.752   1.299   6.228  0.0181 -0.4482  0.0731
 5426TIP3    H137769   0.766   1.234   6.297  0.7193  0.9072  1.2549
 5426TIP3    H237770   0.691   1.361   6.266  0.5632  0.4251 -0.4438
 5427TIP3   OH237771   0.617   6.582   2.794  0.5515  0.0065  0.1416
 5427TIP3    H137772   0.562   6.660   2.795 -1.4922 -1.3341 -0.7495
 5427TIP3    H237773   0.696   6.609   2.746  0.1577  1.6668  0.3775
 5428TIP3   OH237774   2.481   0.318  13.657  0.2261 -0.4695  0.0776
 5428TIP3    H137775   2.542   0.285  13.590 -1.2242  0.4686 -1.7980
 5428TIP3    H237776   2.532   0.382  13.706  1.3557 -1.2439 -0.0425
 5429TIP3   OH237777   3.828   0.584   2.960 -0.1138  0.0006  0.4082
 5429TIP3    H137778   3.747   0.604   2.913  0.1213 -0.6563 -0.3029
 5429TIP3    H237779   3.807   0.505   3.010  0.4395 -0.9140 -0.7595
 5430TIP3   OH237780   2.550   2.369  15.985  0.3689  0.1019  0.2484
 5430TIP3    H137781   2.515   2.309  16.051 -1.2630  0.4183 -0.2861
 5430TIP3    H237782   2.601   2.433  16.035 -1.4116  0.7515  1.3262
 5431TIP3   OH237783   2.930   4.399  16.550 -0.4962 -0.1491  0.2161
 5431TIP3    H137784   2.979   4.334  16.601 -0.3447 -0.4306 -0.2890
 5431TIP3    H237785   2.982   4.411  16.471 -1.0067 -0.0935 -0.1094
 5432TIP3   OH237786   0.645   6.822   3.003 -0.0423  0.2231  0.8869
 5432TIP3    H137787   0.686   6.736   3.009 -1.4555 -0.6216 -0.7304
 5432TIP3    H237788   0.556   6.809   3.035 -0.8292  0.6133 -1.0213
 5433TIP3   OH237789   0.282   6.719   4.098  0.5493  0.7801  0.5861
 5433TIP3    H137790   0.301   6.744   4.188  0.3391  1.2390  0.5093
 5433TIP3    H237791   0.189   6.695   4.098  0.3882  1.3744  0.3746
 5434TIP3   OH237792   2.394   1.318  16.390 -0.1027  0.6078  0.1108
 5434TIP3    H137793   2.459   1.342  16.456  0.5478  1.9874 -0.9828
 5434TIP3    H237794   2.344   1.398  16.376 -2.3844 -0.5223  1.2279
 5435TIP3   OH237795   3.388   3.362   4.418 -0.8786 -0.2688  0.6565
 5435TIP3    H137796   3.403   3.402   4.332 -1.2881  1.0834  1.1898
 5435TIP3    H237797   3.475   3.333   4.446 -0.3477  1.2859  0.7269
 5436TIP3   OH237798   1.253   1.140   2.740  0.0868 -0.5399  0.2961
 5436TIP3    H137799   1.253   1.227   2.780 -0.2368 -0.4645  0.1359
 5436TIP3    H237800   1.325   1.142   2.677  0.3815 -0.5458  0.6314
 5437TIP3   OH237801   0.653   2.393  13.762 -0.3999 -0.3541  0.8210
 5437TIP3    H137802   0.559   2.406  13.748 -0.4407  0.7014  1.9489
 5437TIP3    H237803   0.693   2.411  13.677 -1.0147  1.5730  0.9094
 5438TIP3   OH237804   5.010   5.245   3.887  0.3339 -0.6346  0.3895
 5438TIP3    H137805   5.039   5.226   3.797 -1.1748 -1.4042  0.0425
 5438TIP3    H237806   5.077   5.304   3.921 -1.3551  3.6592 -2.8400
 5439TIP3   OH237807   2.825   5.949  16.148 -0.2291  0.2804 -0.3902
 5439TIP3    H137808   2.903   5.915  16.104 -0.2547 -0.7498  0.3328
 5439TIP3    H237809   2.766   5.874  16.154 -0.2097  0.3824  1.4107
 5440TIP3   OH237810   3.038   1.852  16.769 -0.2981  0.5130  0.3680
 5440TIP3    H137811   3.115   1.802  16.798 -0.0002  0.6688 -0.1389
 5440TIP3    H237812   2.977   1.785  16.738  0.2875  0.4706 -0.7537
 5441TIP3   OH237813   4.834   4.016   0.445 -0.2984 -0.5345  1.0397
 5441TIP3    H137814   4.915   3.992   0.399  0.0346 -0.4180  1.5591
 5441TIP3    H237815   4.776   3.941   0.431 -0.3494 -0.3321  0.0940
 5442TIP3   OH237816   1.968   1.440   1.371 -0.0701  0.1757  0.0453
 5442TIP3    H137817   2.025   1.421   1.297 -0.7815 -2.5674  0.1173
 5442TIP3    H237818   1.958   1.536   1.369  1.9642  0.4256 -1.8190
 5443TIP3   OH237819   4.130   5.086  14.557 -0.3164 -0.4372  0.3449
 5443TIP3    H137820   4.158   5.174  14.581 -0.7874  0.1849 -1.2406
 5443TIP3    H237821   4.196   5.057  14.493 -1.5034 -0.2041 -1.0365
 5444TIP3   OH237822   6.173   5.419  14.315  0.1035  0.2574 -0.0509
 5444TIP3    H137823   6.177   5.439  14.221 -0.9600  0.8034  0.0109
 5444TIP3    H237824   6.256   5.375  14.333  0.0655 -0.3969 -1.3728
 5445TIP3   OH237825   3.564   3.980   0.463 -0.2720 -0.6230  0.2950
 5445TIP3    H137826   3.488   3.994   0.407  0.9305 -0.6143 -1.4119
 5445TIP3    H237827   3.528   3.973   0.552 -2.2136 -0.3904 -0.4334
 5446TIP3   OH237828   6.559   6.348  16.571  0.7287 -0.5992 -0.1852
 5446TIP3    H137829   6.598   6.363  16.485 -1.4660 -0.0923 -1.1615
 5446TIP3    H237830   6.506   6.426  16.587  0.8750 -0.8236  1.5032
 5447TIP3   OH237831   5.611   0.195  15.981 -0.2432  0.6171  0.5386
 5447TIP3    H137832   5.558   0.139  15.925 -0.2793  0.1060  1.0779
 5447TIP3    H237833   5.617   0.278  15.934  0.5180 -0.1014 -0.6687
 5448TIP3   OH237834   5.305   1.254   1.301  0.8860  0.3102  0.6881
 5448TIP3    H137835   5.249   1.296   1.236  0.2010 -1.5749  0.0002
 5448TIP3    H237836   5.247   1.233   1.374  1.2997  0.8985  1.1940
 5449TIP3   OH237837   3.334   4.706  16.106 -0.3293 -0.2629 -0.0135
 5449TIP3    H137838   3.303   4.783  16.154  0.2567  0.7878 -1.2745
 5449TIP3    H237839   3.254   4.659  16.083 -0.6755 -0.2665  1.1000
 5450TIP3   OH237840   1.702   4.534  16.634  0.1453  0.0161 -0.1420
 5450TIP3    H137841   1.672   4.586  16.709  1.1848 -0.0863  0.3647
 5450TIP3    H237842   1.766   4.474  16.671  4.1369  2.9021 -1.6511
 5451TIP3   OH237843   2.877   6.674  11.787 -0.2623  0.6014  0.4471
 5451TIP3    H137844   2.808   6.627  11.834  0.7623  0.2235  1.6113
 5451TIP3    H237845   2.922   6.607  11.736  0.4102  0.5225  1.1360
 5452TIP3   OH237846   4.920   6.834   3.403 -0.0070 -0.2017  0.3763
 5452TIP3    H137847   4.893   6.831   3.312  0.8960 -0.7756  0.1094
 5452TIP3    H237848   4.846   6.874   3.449 -0.2210  0.6868 -0.6916
 5453TIP3   OH237849   0.200   6.777  12.468 -0.1744 -0.0505  0.3774
 5453TIP3    H137850   0.261   6.835  12.513 -0.1837 -0.0828  0.4316
 5453TIP3    H237851   0.113   6.808  12.497 -0.1510 -1.2466  1.8543
 5454TIP3   OH237852   2.570   1.223  11.407 -0.4032 -0.4995 -0.7283
 5454TIP3    H137853   2.619   1.304  11.421  0.5341 -1.0520 -0.7503
 5454TIP3    H237854   2.541   1.228  11.316  1.2299 -1.0086 -1.3011
 5455TIP3   OH237855   6.527   4.279   0.195  0.3936  0.0657 -0.4453
 5455TIP3    H137856   6.432   4.267   0.188  0.5149 -0.4964 -1.2454
 5455TIP3    H237857   6.558   4.279   0.105  1.2104 -0.2616 -0.1725
 5456TIP3   OH237858   2.689   2.259  15.425  0.1638 -0.2200 -0.3729
 5456TIP3    H137859   2.766   2.249  15.370 -0.3252  1.0510 -1.3318
 5456TIP3    H237860   2.700   2.344  15.467 -1.1173  0.3923 -1.2192
 5457TIP3   OH237861   5.439   3.429  10.982 -0.8002 -0.0146  0.3087
 5457TIP3    H137862   5.431   3.508  11.035  2.3340  0.6206  0.0052
 5457TIP3    H237863   5.485   3.457  10.903 -1.6991 -1.7368 -0.8927
 5458TIP3   OH237864   2.801   1.437  12.569  0.7250 -0.5127 -0.2194
 5458TIP3    H137865   2.711   1.448  12.538  1.4673  0.2662 -2.3007
 5458TIP3    H237866   2.822   1.346  12.550  0.7086 -0.4114 -0.7437
 5459TIP3   OH237867   1.750   5.581  14.150 -0.7531  0.0244  0.3012
 5459TIP3    H137868   1.704   5.500  14.126 -1.3469  0.1968  0.8374
 5459TIP3    H237869   1.792   5.561  14.233 -0.8565  0.2459  0.4082
 5460TIP3   OH237870   6.443   1.192   5.651  0.3265 -0.7200 -0.4744
 5460TIP3    H137871   6.427   1.272   5.601  0.1880 -0.1162  0.5050
 5460TIP3    H237872   6.530   1.163   5.624  0.7881  0.3107 -0.1291
 5461TIP3   OH237873   3.720   4.056  16.505 -0.0474 -0.2636  0.8657
 5461TIP3    H137874   3.751   3.983  16.452 -1.8567 -0.3225 -0.2127
 5461TIP3    H237875   3.685   4.118  16.440  1.2095  1.4751  1.7585
 5462TIP3   OH237876   6.770   0.261   3.850  0.7984  0.1336 -0.3700
 5462TIP3    H137877   6.734   0.179   3.819  2.4388 -0.2752 -1.3107
 5462TIP3    H237878   6.848   0.236   3.900 -0.1951  0.9632  1.7531
 5463TIP3   OH237879   6.725   0.686   5.490  0.1572  0.0688  0.5359
 5463TIP3    H137880   6.640   0.723   5.516  0.0847 -0.8141  1.6425
 5463TIP3    H237881   6.782   0.762   5.480 -0.3881  0.5899  1.2556
 5464TIP3   OH237882   2.642   0.483   2.424  0.1501 -0.0947 -0.2911
 5464TIP3    H137883   2.715   0.545   2.423 -0.4662  0.6497 -1.2432
 5464TIP3    H237884   2.644   0.442   2.337  0.1908 -0.9853  0.1219
 5465TIP3   OH237885   4.594   6.840  14.826 -0.1248 -0.0675 -0.1441
 5465TIP3    H137886   4.535   6.784  14.776 -1.1426  0.3248  0.5794
 5465TIP3    H237887   4.663   6.864  14.764 -0.4996 -0.8709 -0.8900
 5466TIP3   OH237888   3.753   2.967  12.497 -0.1405 -0.7229  0.3323
 5466TIP3    H137889   3.788   2.943  12.411  0.5953 -0.3087  0.5040
 5466TIP3    H237890   3.658   2.962  12.487 -0.0472 -1.7291 -0.1927
 5467TIP3   OH237891   5.045   2.820  13.935 -0.2496 -0.4963  0.4183
 5467TIP3    H137892   5.052   2.832  14.029 -0.0075  1.7154  0.1943
 5467TIP3    H237893   4.952   2.829  13.916 -0.1962  0.0580  0.3783
 5468TIP3   OH237894   6.506   6.074  14.373 -0.1258  0.2943 -0.8317
 5468TIP3    H137895   6.481   6.010  14.440 -0.3901  0.8824 -0.3659
 5468TIP3    H237896   6.460   6.045  14.294 -0.1844 -0.1352 -0.6416
 5469TIP3   OH237897   1.041   1.858  14.940 -0.0176 -0.4887 -0.1625
 5469TIP3    H137898   1.098   1.935  14.937 -0.7997  0.0829 -0.8480
 5469TIP3    H237899   1.030   1.833  14.849 -1.2171 -0.3182 -0.0751
 5470TIP3   OH237900   3.357   0.967  10.408 -0.7994  0.0160 -0.0401
 5470TIP3    H137901   3.444   0.965  10.449 -1.6458 -0.3097  1.8542
 5470TIP3    H237902   3.324   1.055  10.427 -1.1803 -0.1199 -0.0714
 5471TIP3   OH237903   5.680   5.344   5.892  0.3027  0.0671  0.3944
 5471TIP3    H137904   5.734   5.306   5.961  1.0361 -0.7312 -0.5810
 5471TIP3    H237905   5.713   5.303   5.812 -1.0259  0.4004 -0.3394
 5472TIP3   OH237906   2.379   0.874  11.614 -0.0882 -0.0049 -0.0455
 5472TIP3    H137907   2.445   0.942  11.627  0.1775 -0.1395 -0.6564
 5472TIP3    H237908   2.311   0.917  11.562  0.1460 -0.2388 -0.5524
 5473TIP3   OH237909   0.141   1.721   4.270 -0.5582 -0.2714  0.9190
 5473TIP3    H137910   0.146   1.777   4.348 -2.1537 -1.7660  2.1755
 5473TIP3    H237911   0.110   1.637   4.303  0.4148 -1.5065 -1.1070
 5474TIP3   OH237912   5.789   0.019   4.295 -0.2627  0.2499  0.2699
 5474TIP3    H137913   5.741   0.098   4.321 -1.1364  0.0033 -0.5139
 5474TIP3    H237914   5.740  -0.053   4.333  0.7611  0.0781  1.3223
 5475TIP3   OH237915   4.262   2.510   5.564  0.1625 -0.5221 -1.1004
 5475TIP3    H137916   4.191   2.462   5.521 -1.2506  1.5158 -1.1556
 5475TIP3    H237917   4.283   2.581   5.503  1.7920 -0.6724 -0.7583
 5476TIP3   OH237918   6.010   4.101   1.721  0.6535 -0.3669  0.4994
 5476TIP3    H137919   5.984   4.179   1.769  0.7328  0.3739 -0.6082
 5476TIP3    H237920   6.027   4.035   1.788 -3.2129 -0.6906  1.3520
 5477TIP3   OH237921   3.362   6.602  16.297 -0.1740  0.4607 -0.1865
 5477TIP3    H137922   3.350   6.640  16.210 -0.8505 -1.8214 -1.1763
 5477TIP3    H237923   3.315   6.518  16.293 -1.3929  0.8773  2.8257
 5478TIP3   OH237924   2.105   5.798   2.791  0.3536 -0.4425 -0.5271
 5478TIP3    H137925   2.048   5.863   2.832 -1.8013 -1.7810 -1.2044
 5478TIP3    H237926   2.126   5.836   2.705  0.8873  0.2580 -0.0999
 5479TIP3   OH237927   3.671   3.176  14.972 -0.1596  0.0378  0.2874
 5479TIP3    H137928   3.743   3.142  14.919  0.3977  0.2132  0.9124
 5479TIP3    H237929   3.626   3.097  15.003  0.0772 -0.0903  0.3115
 5480TIP3   OH237930   0.564   3.002  15.490 -0.3083  0.5644  0.3829
 5480TIP3    H137931   0.592   3.061  15.421 -1.5558 -0.6417 -1.2350
 5480TIP3    H237932   0.469   2.997  15.481 -0.4160 -0.2615  1.6570
 5481TIP3   OH237933   3.499   5.871   3.863  0.4877 -0.1283  0.2769
 5481TIP3    H137934   3.571   5.852   3.923  1.8021 -0.6250 -1.3837
 5481TIP3    H237935   3.488   5.966   3.867  1.5960  0.0181  0.1802
 5482TIP3   OH237936   1.798   0.917   1.688 -0.1611  0.3384  0.7788
 5482TIP3    H137937   1.823   0.833   1.725 -2.2502 -0.3207  0.8429
 5482TIP3    H237938   1.715   0.939   1.732 -2.1249  0.1175 -2.4608
 5483TIP3   OH237939   2.788   1.633   1.724  0.2157 -0.2187  0.2878
 5483TIP3    H137940   2.843   1.559   1.701  0.2718 -0.3240  0.7641
 5483TIP3    H237941   2.794   1.640   1.819  1.8013  1.6166  0.1295
 5484TIP3   OH237942   5.948   0.001  16.917 -0.6938 -0.2372 -0.1312
 5484TIP3    H137943   6.011   0.072  16.903 -0.8041  0.4785  2.3779
 5484TIP3    H237944   5.963  -0.027  17.007 -2.9483 -1.0810  0.0643
 5485TIP3   OH237945   4.454   2.037  13.263 -0.0757 -0.1604 -0.0040
 5485TIP3    H137946   4.514   2.050  13.189 -0.2744 -3.0905 -0.8215
 5485TIP3    H237947   4.512   2.015  13.336  0.0268  1.0685  0.3014
 5486TIP3   OH237948   2.002   3.853   1.851 -0.2289 -0.1192  0.4356
 5486TIP3    H137949   2.076   3.872   1.794 -0.0855  0.0708  0.6854
 5486TIP3    H237950   1.950   3.934   1.853 -1.2385 -0.6991 -0.9110
 5487TIP3   OH237951   0.368   0.417  11.786 -0.5390  0.4747 -0.5550
 5487TIP3    H137952   0.441   0.370  11.826  0.8887 -0.1702 -3.5816
 5487TIP3    H237953   0.323   0.350  11.734 -2.3631  1.2216 -0.0259
 5488TIP3   OH237954   0.031   4.381   3.410 -0.5550  0.5929 -0.2362
 5488TIP3    H137955   0.121   4.407   3.391 -0.3876 -0.3896 -0.9021
 5488TIP3    H237956  -0.013   4.386   3.325 -0.5025 -1.2269 -0.4109
 5489TIP3   OH237957   5.737   1.329   0.013 -0.4166 -0.1084  0.3467
 5489TIP3    H137958   5.742   1.267   0.086 -0.2794 -0.7710 -0.2164
 5489TIP3    H237959   5.715   1.413   0.054 -0.5825 -0.5225  1.1198
 5490TIP3   OH237960   5.294   6.741   1.093 -0.5821  0.1557 -0.9715
 5490TIP3    H137961   5.215   6.698   1.127 -0.0090 -1.6776 -1.8258
 5490TIP3    H237962   5.365   6.706   1.146 -0.4021  3.0971  0.9712
 5491TIP3   OH237963   1.418   3.536  11.405 -0.0175 -0.0274 -0.5194
 5491TIP3    H137964   1.355   3.506  11.339 -0.5399  2.2535 -1.1678
 5491TIP3    H237965   1.494   3.564  11.354  0.1511  0.3998 -0.0460
 5492TIP3   OH237966   5.293   4.619   2.943  0.2482 -0.6097 -0.5266
 5492TIP3    H137967   5.301   4.568   2.862 -0.9631 -0.7324 -0.5948
 5492TIP3    H237968   5.202   4.649   2.943  0.6050  0.5295  0.1290
 5493TIP3   OH237969   5.066   1.434   3.420  0.5592 -0.3120  0.4151
 5493TIP3    H137970   5.129   1.503   3.401 -0.3309  0.3360 -0.2483
 5493TIP3    H237971   5.025   1.414   3.336 -1.7881  0.9595  1.1564
 5494TIP3   OH237972   5.189   1.441  14.849 -0.1930 -0.5072 -0.1917
 5494TIP3    H137973   5.095   1.426  14.862 -0.0364 -1.8620 -0.4447
 5494TIP3    H237974   5.230   1.363  14.887  0.9494  0.7782  1.3343
 5495TIP3   OH237975   5.344   5.820   2.839  0.0475 -0.2168 -0.5691
 5495TIP3    H137976   5.312   5.877   2.909 -0.2759 -2.1277  0.9252
 5495TIP3    H237977   5.300   5.852   2.760 -1.2942  0.6592  0.4893
 5496TIP3   OH237978   6.800   2.137  14.344  0.0821  0.2113  0.5668
 5496TIP3    H137979   6.832   2.048  14.357 -2.6874 -0.9211  0.2937
 5496TIP3    H237980   6.742   2.131  14.268  1.7586  2.8310 -1.0763
 5497TIP3   OH237981   2.949   6.675  15.698 -0.0292 -0.5156  0.0044
 5497TIP3    H137982   3.025   6.618  15.693 -1.1672 -2.6111  3.3386
 5497TIP3    H237983   2.874   6.615  15.703 -1.8028  1.4249 -1.4149
 5498TIP3   OH237984   5.504   4.693  13.898  0.0923 -0.2473  0.0729
 5498TIP3    H137985   5.570   4.646  13.949  2.2398  0.2635 -2.0239
 5498TIP3    H237986   5.470   4.760  13.957  1.6504 -0.3756  1.1647
 5499TIP3   OH237987   0.998   5.627  13.263  0.0189 -0.2138  0.2055
 5499TIP3    H137988   1.053   5.706  13.268 -1.2525  0.6774  0.4547
 5499TIP3    H237989   0.998   5.603  13.170 -1.2167  1.2795 -0.2079
 5500TIP3   OH237990   6.030   2.094  12.188 -0.0266  0.1154 -0.4802
 5500TIP3    H137991   6.055   2.149  12.263 -1.2435 -1.5119  1.1810
 5500TIP3    H237992   6.103   2.033  12.178  0.1975  0.4177 -0.7506
 5501TIP3   OH237993   0.512   0.412  13.378 -0.2485  0.1547 -0.9044
 5501TIP3    H137994   0.481   0.321  13.382 -1.6733  0.6271 -0.7173
 5501TIP3    H237995   0.458   0.452  13.310 -0.3640  1.1392 -0.2441
 5502TIP3   OH237996   4.287   6.499  11.397 -0.0003  0.4696  0.2360
 5502TIP3    H137997   4.315   6.540  11.479 -0.8311 -1.6753  1.6701
 5502TIP3    H237998   4.255   6.413  11.423 -0.1525 -0.3437 -2.3921
 5503TIP3   OH237999   3.838   0.078  15.719  0.1345 -0.0992  0.2182
 5503TIP3    H138000   3.925   0.052  15.691  0.0738 -0.5096  0.3975
 5503TIP3    H238001   3.833   0.172  15.700  0.2463 -0.2781 -0.7300
 5504TIP3   OH238002   2.286   1.177   4.654 -0.5084 -0.2558  0.4555
 5504TIP3    H138003   2.289   1.253   4.712  0.0720  1.6746 -1.9161
 5504TIP3    H238004   2.194   1.170   4.629 -0.3204  0.7943 -0.6242
 5505TIP3   OH238005   1.840   3.962  11.275 -0.4648 -0.2642  0.1016
 5505TIP3    H138006   1.882   4.040  11.237  0.2821 -0.8266 -0.2715
 5505TIP3    H238007   1.875   3.957  11.364 -1.6934  0.6721  0.6632
 5506TIP3   OH238008   1.723   5.445   0.703 -0.1514 -0.5252 -0.2520
 5506TIP3    H138009   1.715   5.535   0.672  0.1755 -0.4520 -0.1267
 5506TIP3    H238010   1.633   5.419   0.724 -0.2228 -0.1575 -0.0928
 5507TIP3   OH238011   0.934   2.891  14.888  0.3135 -0.2765  0.1381
 5507TIP3    H138012   0.978   2.807  14.875 -0.0507 -0.6449  1.2221
 5507TIP3    H238013   0.858   2.888  14.829  0.9034 -0.2426 -0.6393
 5508TIP3   OH238014   5.822   4.856  12.218  0.2859 -0.5830 -0.0389
 5508TIP3    H138015   5.815   4.810  12.302 -1.5936  0.0186  0.1862
 5508TIP3    H238016   5.758   4.927  12.224  1.9471  1.0819 -1.0120
 5509TIP3   OH238017   3.957   5.348   3.475  0.4075 -0.3107 -0.1371
 5509TIP3    H138018   3.901   5.422   3.501 -0.0078 -1.2139  1.6616
 5509TIP3    H238019   3.957   5.290   3.550  1.8305 -1.5241 -1.0164
 5510TIP3   OH238020   6.332   3.542   4.266 -0.8729 -0.6836  0.0721
 5510TIP3    H138021   6.304   3.507   4.350 -0.8987  0.3660  0.5228
 5510TIP3    H238022   6.313   3.473   4.203 -1.9523 -1.0297  0.7556
 5511TIP3   OH238023   4.914   2.960  14.455  0.1635  0.3286 -0.0251
 5511TIP3    H138024   4.838   3.016  14.469  0.2064  0.5646 -0.7346
 5511TIP3    H238025   4.903   2.889  14.519 -0.5331  0.4812  0.0283
 5512TIP3   OH238026   1.456   3.145  12.052  0.4296  0.3802 -0.3978
 5512TIP3    H138027   1.369   3.127  12.015  0.7730 -0.2884 -0.9046
 5512TIP3    H238028   1.459   3.091  12.131 -0.0654  1.3290  0.2872
 5513TIP3   OH238029   3.251   3.295  15.684 -0.2148  0.7582 -0.4192
 5513TIP3    H138030   3.189   3.226  15.709  0.9986 -1.1086 -2.2101
 5513TIP3    H238031   3.226   3.317  15.594  1.7896 -0.2303 -1.2791
 5514TIP3   OH238032   1.924   0.602  11.550  0.0695  0.4451 -0.3483
 5514TIP3    H138033   1.924   0.693  11.582 -0.4007  0.1359  0.5603
 5514TIP3    H238034   1.890   0.551  11.624  1.1118 -0.5764 -0.5567
 5515TIP3   OH238035   5.249   5.703  12.318 -0.6970  0.3979 -0.3081
 5515TIP3    H138036   5.246   5.713  12.413 -2.7869  2.3501 -0.4840
 5515TIP3    H238037   5.341   5.712  12.296 -0.0863 -0.6999  1.5445
 5516TIP3   OH238038   5.170   6.480   2.007 -0.2212 -0.4250  0.6568
 5516TIP3    H138039   5.219   6.421   1.949 -1.2731 -0.6449 -0.0330
 5516TIP3    H238040   5.233   6.505   2.074  0.1608 -2.6834  1.2189
 5517TIP3   OH238041   2.027   4.614  11.673  0.2454 -0.5147  0.1010
 5517TIP3    H138042   1.988   4.692  11.711  1.3837 -0.5651  1.4311
 5517TIP3    H238043   1.954   4.568  11.631 -0.2340  1.9204 -1.9945
 5518TIP3   OH238044   3.531   3.660   2.369 -0.7213 -0.2850  0.3862
 5518TIP3    H138045   3.505   3.742   2.411 -1.1766 -0.4035  0.3354
 5518TIP3    H238046   3.587   3.617   2.434 -0.6282 -0.0184  0.4840
 5519TIP3   OH238047   5.798   5.079   3.996 -0.0952 -0.1535  0.2272
 5519TIP3    H138048   5.812   4.984   3.993 -1.5464 -0.4457  1.6192
 5519TIP3    H238049   5.710   5.091   3.960  0.2211  0.7115 -0.2680
 5520TIP3   OH238050   5.100   5.387  12.305 -0.2132 -0.3813 -0.0465
 5520TIP3    H138051   5.189   5.372  12.337 -1.1277  0.6628  3.4173
 5520TIP3    H238052   5.054   5.305  12.324 -0.4019 -0.3078 -0.1843
 5521TIP3   OH238053   2.824   5.642  14.150 -0.2976 -0.2088 -0.3245
 5521TIP3    H138054   2.744   5.626  14.100 -0.5720 -2.9927  0.8531
 5521TIP3    H238055   2.886   5.676  14.085 -0.9920 -2.5827 -2.3802
 5522TIP3   OH238056   0.131   0.840  13.832  0.4512  0.3575 -0.1496
 5522TIP3    H138057   0.040   0.852  13.858 -0.7668 -3.7020 -1.6991
 5522TIP3    H238058   0.129   0.842  13.737  1.8399 -0.5077 -0.2218
 5523TIP3   OH238059   0.013   3.910  14.435 -0.5233  0.7138  0.5490
 5523TIP3    H138060  -0.000   3.941  14.525 -0.5807  0.0113  0.7855
 5523TIP3    H238061  -0.053   3.842  14.423  0.2891 -0.0687  0.4041
 5524TIP3   OH238062   4.349   6.788  12.758 -0.3804 -0.5612  0.1574
 5524TIP3    H138063   4.303   6.706  12.777  0.9658 -1.3448  0.0948
 5524TIP3    H238064   4.317   6.813  12.671 -0.4065 -1.2917 -0.0481
 5525TIP3   OH238065   2.739   3.127   0.329 -0.2275 -0.0475 -0.1937
 5525TIP3    H138066   2.699   3.058   0.275  0.3367 -0.3323 -0.2548
 5525TIP3    H238067   2.767   3.194   0.266 -2.9788  1.4563  0.0094
 5526TIP3   OH238068   3.843   4.436  13.014  0.2161  0.4133 -0.3117
 5526TIP3    H138069   3.917   4.383  13.040 -0.2708  0.0520  0.3677
 5526TIP3    H238070   3.774   4.373  12.994 -0.4953  0.7746  0.8938
 5527TIP3   OH238071   5.836   6.072  15.787  0.1243  0.4518  0.0196
 5527TIP3    H138072   5.895   6.147  15.798 -2.4894  2.5762  0.6407
 5527TIP3    H238073   5.779   6.076  15.864 -1.7268 -0.5999 -1.2428
 5528TIP3   OH238074   1.770   0.421   5.147 -0.2633  0.3140 -0.8021
 5528TIP3    H138075   1.705   0.404   5.215  0.6718 -1.5586 -0.3024
 5528TIP3    H238076   1.727   0.482   5.087 -1.0345  2.2755  1.5506
 5529TIP3   OH238077   1.765   0.420  13.207 -0.7413 -0.4303  0.2641
 5529TIP3    H138078   1.807   0.497  13.246 -1.4905  0.1411 -0.0458
 5529TIP3    H238079   1.801   0.346  13.256  1.1394 -0.0334 -0.4110
 5530TIP3   OH238080   1.232   6.023  15.513 -0.4500 -0.3132  0.0628
 5530TIP3    H138081   1.164   6.040  15.578 -0.4265 -0.5739  0.1538
 5530TIP3    H238082   1.285   6.103  15.513  0.0332 -0.6274  0.9485
 5531TIP3   OH238083   4.263   0.022  17.056  0.3214  0.1538  0.0510
 5531TIP3    H138084   4.221   0.089  17.110 -2.0439 -0.9353 -0.3051
 5531TIP3    H238085   4.264  -0.056  17.111 -2.2152 -1.0048 -1.3435
 5532TIP3   OH238086   3.259   1.641   0.295 -0.5145 -0.2025  0.0293
 5532TIP3    H138087   3.273   1.687   0.212 -0.5178 -1.6913 -0.8402
 5532TIP3    H238088   3.317   1.564   0.290  0.7052  0.4787  2.1108
 5533TIP3   OH238089   1.611   3.752  14.244  0.1454 -0.2080 -0.0171
 5533TIP3    H138090   1.628   3.734  14.337 -0.1270 -0.9123 -0.0961
 5533TIP3    H238091   1.637   3.844  14.233  0.0057 -0.0558  0.7979
 5534TIP3   OH238092   4.024   2.944  16.313 -0.0651  0.2069 -0.4676
 5534TIP3    H138093   3.961   3.006  16.349 -0.5036 -0.5613  0.0950
 5534TIP3    H238094   4.034   2.971  16.221 -1.3184  0.2595 -0.6054
 5535TIP3   OH238095   6.153   6.094  17.015  0.3430 -0.0688 -0.1127
 5535TIP3    H138096   6.234   6.042  17.015  1.3591  1.4411 -0.6988
 5535TIP3    H238097   6.177   6.176  16.973 -0.6391  1.7415  2.5635
 5536TIP3   OH238098   2.257   4.887   1.831 -0.3084 -0.3059 -0.6056
 5536TIP3    H138099   2.264   4.958   1.895  0.5809  0.8603 -1.9363
 5536TIP3    H238100   2.319   4.911   1.762 -1.3319 -1.4579 -1.9748
 5537TIP3   OH238101   1.363   5.186   4.717  0.1012 -0.1332  0.0949
 5537TIP3    H138102   1.405   5.106   4.683  2.0487  0.1903  1.5325
 5537TIP3    H238103   1.288   5.200   4.659  0.2260 -2.4825 -0.7657
 5538TIP3   OH238104   3.580   6.276  12.176 -0.5392 -1.0795  0.1654
 5538TIP3    H138105   3.540   6.305  12.258  1.2025  0.0178  0.6892
 5538TIP3    H238106   3.622   6.354  12.140  1.3927 -2.1798 -0.1437
 5539TIP3   OH238107   2.321   2.504   1.153  0.2799  0.3576  0.0444
 5539TIP3    H138108   2.329   2.484   1.059 -0.4061 -2.4876  0.5060
 5539TIP3    H238109   2.412   2.511   1.183  0.6732 -2.2491 -0.2543
 5540TIP3   OH238110   6.417   3.757   0.693 -0.0772 -0.1880 -0.0547
 5540TIP3    H138111   6.401   3.675   0.647 -1.1791 -0.5139  0.8694
 5540TIP3    H238112   6.391   3.825   0.630 -0.7738 -0.6043 -0.2187
 5541TIP3   OH238113   0.864   6.449   6.443 -0.2531  0.2019 -0.3102
 5541TIP3    H138114   0.820   6.513   6.388 -0.4106  1.5188  1.2831
 5541TIP3    H238115   0.793   6.402   6.487 -0.1157  0.0424 -0.2579
 5542TIP3   OH238116   4.017   4.880  16.887  0.3237  0.1805 -0.0816
 5542TIP3    H138117   4.092   4.915  16.934  1.1563  0.5768 -1.6162
 5542TIP3    H238118   3.986   4.952  16.833 -2.0949  0.4635  1.5185
 5543TIP3   OH238119   2.189   3.340   4.124 -0.1020 -0.7549 -0.1492
 5543TIP3    H138120   2.246   3.306   4.192  1.0864 -0.1511 -0.8152
 5543TIP3    H238121   2.107   3.292   4.134  0.0569 -0.6768  1.6948
 5544TIP3   OH238122   5.310   2.286   3.713  0.5153 -0.2311  0.2635
 5544TIP3    H138123   5.250   2.307   3.784 -0.6333 -1.2128 -0.3765
 5544TIP3    H238124   5.293   2.194   3.693  1.8893 -0.3931 -0.2829
 5545TIP3   OH238125   0.007   5.703  15.992  0.5135  0.1826  0.0295
 5545TIP3    H138126  -0.080   5.664  15.989  1.1358 -1.2792  0.1080
 5545TIP3    H238127  -0.003   5.780  16.048 -0.4961 -0.5454  0.8890
 5546TIP3   OH238128   6.145   2.847   5.496 -0.0440  0.2819 -0.3189
 5546TIP3    H138129   6.210   2.787   5.533  1.0622  0.5161 -1.8381
 5546TIP3    H238130   6.074   2.846   5.561  1.1208 -0.5488  1.0214
 5547TIP3   OH238131   0.781   0.828  12.621  0.0004  0.4434  0.2790
 5547TIP3    H138132   0.729   0.763  12.667  1.1795 -2.5351 -2.2321
 5547TIP3    H238133   0.774   0.803  12.528  1.4428  3.2643 -0.7143
 5548TIP3   OH238134   3.022   5.017  16.516 -0.0626 -0.8476  0.0802
 5548TIP3    H138135   3.093   4.952  16.510  0.7430  0.1230 -1.6229
 5548TIP3    H238136   3.060   5.090  16.565 -0.2191 -0.7250  0.0190
 5549TIP3   OH238137   0.105   6.101   0.290 -0.0734 -0.1767  0.1904
 5549TIP3    H138138   0.183   6.109   0.236  0.5353 -1.9108  0.7602
 5549TIP3    H238139   0.080   6.191   0.309  0.9764  0.4304 -1.1275
 5550TIP3   OH238140   5.069   5.393  14.541 -0.2415 -0.0144  0.4097
 5550TIP3    H138141   4.975   5.412  14.543  0.0877  1.7965  0.5407
 5550TIP3    H238142   5.079   5.318  14.601 -1.3415  1.1004  2.0836
 5551TIP3   OH238143   4.925   2.349   1.151  0.3180 -0.3807  0.0667
 5551TIP3    H138144   4.969   2.304   1.080 -0.0154 -2.3603  1.0461
 5551TIP3    H238145   4.833   2.352   1.125  0.5254  0.9761 -0.5876
 5552TIP3   OH238146   3.404   6.079  15.106  1.1305  0.2538 -0.4767
 5552TIP3    H138147   3.422   6.128  15.186 -0.9821  0.4235 -0.0505
 5552TIP3    H238148   3.308   6.075  15.101  1.2087 -2.1091 -1.5499
 5553TIP3   OH238149   2.035   3.775   1.201 -0.0343 -0.2651 -0.1518
 5553TIP3    H138150   2.047   3.715   1.275  0.7342  1.8786  1.5736
 5553TIP3    H238151   1.955   3.824   1.223  0.5929  0.8843 -0.3523
 5554TIP3   OH238152   1.028   4.486  13.963  0.9143 -0.5052  0.0667
 5554TIP3    H138153   1.067   4.415  14.015  3.0462 -1.0192 -2.0204
 5554TIP3    H238154   1.103   4.541  13.939 -0.0856  0.1643 -1.6843
 5555TIP3   OH238155   4.235   4.891  13.773  0.0035 -0.4598 -0.0787
 5555TIP3    H138156   4.246   4.982  13.745 -0.2567 -0.1813  0.6965
 5555TIP3    H238157   4.200   4.846  13.697  1.9166 -0.3279 -1.0892
 5556TIP3   OH238158   2.509   1.394  14.534  0.2392  0.2497  0.5411
 5556TIP3    H138159   2.544   1.313  14.495 -0.6133 -0.0732  0.4080
 5556TIP3    H238160   2.414   1.384  14.527  0.1259  1.4753  0.1005
 5557TIP3   OH238161   3.299   3.890   0.606 -0.8954  0.1964  0.5792
 5557TIP3    H138162   3.284   3.971   0.556  0.5532  1.4584  2.0577
 5557TIP3    H238163   3.247   3.902   0.686 -2.1377 -1.1969  0.0096
 5558TIP3   OH238164   2.596   2.427   0.258  0.2127 -0.4946 -0.8350
 5558TIP3    H138165   2.506   2.433   0.227  0.6317  0.2737 -1.9452
 5558TIP3    H238166   2.650   2.434   0.179  1.2624 -0.6578 -0.1615
 5559TIP3   OH238167   6.377   1.631   5.810 -0.1460  0.4391  0.3864
 5559TIP3    H138168   6.421   1.709   5.845 -2.5489  1.5594  1.0929
 5559TIP3    H238169   6.361   1.576   5.887  3.2670 -1.8184 -0.3221
 5560TIP3   OH238170   3.181   6.275   5.689 -0.6124 -0.0540  0.0228
 5560TIP3    H138171   3.186   6.246   5.598  0.0044 -0.2978  0.1267
 5560TIP3    H238172   3.237   6.214   5.736 -0.1146  0.6884  0.4044
 5561TIP3   OH238173   4.513   6.711   4.704  0.2704 -0.0634 -0.1427
 5561TIP3    H138174   4.572   6.746   4.637 -2.7544  3.5959 -1.1852
 5561TIP3    H238175   4.531   6.762   4.782 -0.1394 -0.3545  0.1483
 5562TIP3   OH238176   4.605   6.616   3.880 -0.1181  0.0771  0.1948
 5562TIP3    H138177   4.666   6.675   3.925  0.6021 -0.5277  0.0223
 5562TIP3    H238178   4.598   6.540   3.938  2.5426 -1.7194 -1.6590
 5563TIP3   OH238179   4.554   5.804   3.874 -0.0727 -0.0794  0.3123
 5563TIP3    H138180   4.549   5.710   3.891  0.0895 -0.2464 -0.5141
 5563TIP3    H238181   4.646   5.819   3.852  0.1201  0.4554  1.4153
 5564TIP3   OH238182   3.884   5.831   3.417 -0.4032  0.1884  0.0855
 5564TIP3    H138183   3.814   5.881   3.460 -1.1647 -0.8633  0.0930
 5564TIP3    H238184   3.945   5.898   3.386 -0.8684  1.0770  1.0094
 5565TIP3   OH238185   0.072   0.779  11.299  0.1935  0.6155  0.0083
 5565TIP3    H138186   0.004   0.720  11.330 -0.3330  0.7496 -0.8517
 5565TIP3    H238187   0.096   0.831  11.376  1.1238 -1.1209  0.9412
 5566TIP3   OH238188   2.152   1.314  12.785 -0.2261  0.9060  0.5900
 5566TIP3    H138189   2.088   1.287  12.851  0.3352 -0.8344  0.4648
 5566TIP3    H238190   2.144   1.409  12.782 -2.9131  0.7511  0.4740
 5567TIP3   OH238191   5.601   2.276  15.108  0.3801  0.3491 -0.4624
 5567TIP3    H138192   5.518   2.247  15.070  0.8308  1.7070 -2.6782
 5567TIP3    H238193   5.598   2.372  15.103  2.2968  0.4211 -1.1692
 5568TIP3   OH238194   6.156   0.139  13.088  0.1227 -0.3092  0.3400
 5568TIP3    H138195   6.211   0.218  13.092 -0.7905  0.4573 -1.2600
 5568TIP3    H238196   6.120   0.131  13.176  0.3876  0.9560  0.5939
 5569TIP3   OH238197   0.993   4.265  11.641 -0.1992  0.1988  0.2368
 5569TIP3    H138198   0.931   4.247  11.712  0.3899 -3.2300  0.0603
 5569TIP3    H238199   0.955   4.223  11.564  0.7336  1.0481 -0.7283
 5570TIP3   OH238200   3.488   2.758  17.073 -0.1935 -0.0189 -0.4645
 5570TIP3    H138201   3.487   2.746  17.168  0.3992 -0.4689 -0.5142
 5570TIP3    H238202   3.411   2.710  17.042  0.2065 -0.7568 -0.3188
 5571TIP3   OH238203   5.308   2.539   4.184 -0.3216  0.2831 -0.2897
 5571TIP3    H138204   5.226   2.548   4.233 -1.1530 -0.3720 -1.5208
 5571TIP3    H238205   5.376   2.558   4.249 -1.4203  0.5213  0.8421
 5572TIP3   OH238206   3.712   2.254   2.622 -0.2940 -0.2910  0.7287
 5572TIP3    H138207   3.768   2.217   2.554  1.2087  0.9503  1.2201
 5572TIP3    H238208   3.745   2.217   2.703  0.2023  0.8714  1.0758
 5573TIP3   OH238209   5.963   0.776   5.977  0.4240  0.8342 -0.2987
 5573TIP3    H138210   6.024   0.726   6.031 -0.5905 -0.4726 -0.2819
 5573TIP3    H238211   5.978   0.745   5.888 -0.1532  0.5432 -0.3033
 5574TIP3   OH238212   5.566   1.870  11.752 -0.7222 -0.2857  0.0958
 5574TIP3    H138213   5.625   1.818  11.806 -0.7395  0.5771  0.9776
 5574TIP3    H238214   5.619   1.944  11.722 -1.4737  0.8189  1.3935
 5575TIP3   OH238215   2.734   5.948   6.208  0.2815 -0.2363  0.3034
 5575TIP3    H138216   2.667   5.913   6.149  0.6588 -0.4977  0.0205
 5575TIP3    H238217   2.705   5.921   6.296 -0.4466  0.4297  0.2746
 5576TIP3   OH238218   4.995   4.705  15.408  0.5689  0.1861 -0.1437
 5576TIP3    H138219   4.976   4.763  15.482  1.1902  0.1932  0.0173
 5576TIP3    H238220   4.988   4.762  15.331  0.5913  0.3366 -0.0350
 5577TIP3   OH238221   2.372   4.991   3.221 -0.4047 -0.3661 -0.6803
 5577TIP3    H138222   2.449   5.047   3.235  0.0890 -1.2438  0.2324
 5577TIP3    H238223   2.408   4.906   3.198 -1.1472 -0.4164 -1.7100
 5578TIP3   OH238224   5.628   2.134  14.705 -0.2155  0.1133  0.6238
 5578TIP3    H138225   5.687   2.103  14.636 -1.6472 -0.9969 -0.1459
 5578TIP3    H238226   5.559   2.180  14.658 -1.7524 -1.5299  1.1937
 5579TIP3   OH238227   1.457   1.380   4.793  0.2886 -0.2808  0.6130
 5579TIP3    H138228   1.546   1.345   4.800  0.1616 -0.3022  2.5995
 5579TIP3    H238229   1.423   1.378   4.883 -1.9039 -0.7351 -0.1691
 5580TIP3   OH238230   6.398   4.642  10.815  0.0010 -0.2809  0.1148
 5580TIP3    H138231   6.324   4.584  10.835 -0.6806  0.4644 -0.1673
 5580TIP3    H238232   6.454   4.637  10.892  0.0205 -1.3982  0.0454
 5581TIP3   OH238233   6.593   4.696  16.293  0.1563 -0.0390 -0.3168
 5581TIP3    H138234   6.550   4.700  16.207 -2.1076 -1.2612  0.6697
 5581TIP3    H238235   6.625   4.606  16.299 -0.2311 -0.1362  0.3497
 5582TIP3   OH238236   5.823   6.598  16.403 -0.0354 -0.1280 -0.5819
 5582TIP3    H138237   5.804   6.520  16.456 -1.4126  0.9324  0.5942
 5582TIP3    H238238   5.740   6.647  16.403  0.8295  1.3941 -1.1703
 5583TIP3   OH238239   3.325   5.921   0.294 -0.3494 -0.1964  0.0301
 5583TIP3    H138240   3.264   5.924   0.220  0.7663 -2.5992 -1.0980
 5583TIP3    H238241   3.408   5.892   0.255  0.3297 -1.3001  2.1576
 5584TIP3   OH238242   4.883   3.838   5.455  0.0152  0.6373  0.3899
 5584TIP3    H138243   4.889   3.929   5.427 -1.4977  0.7901  0.5001
 5584TIP3    H238244   4.906   3.788   5.377  1.5913  1.0917  0.5280
 5585TIP3   OH238245   1.901   0.345   4.057 -0.3189 -0.5728 -0.1354
 5585TIP3    H138246   1.871   0.423   4.011  0.1219  0.1142  0.7210
 5585TIP3    H238247   1.953   0.297   3.992  3.1919  2.0481  0.4166
 5586TIP3   OH238248   1.078   6.572  12.643 -0.4087 -0.2732 -0.2402
 5586TIP3    H138249   1.121   6.510  12.702 -0.8969  0.3489  0.7844
 5586TIP3    H238250   0.984   6.560  12.659 -0.6400 -1.1358 -1.9627
 5587TIP3   OH238251   2.549   6.441   0.079 -0.6112 -0.0368 -0.0158
 5587TIP3    H138252   2.611   6.510   0.106 -0.6654  0.8170 -1.9183
 5587TIP3    H238253   2.573   6.366   0.133  0.9209  0.8022  0.5587
 5588TIP3   OH238254   5.139   5.139  10.693 -0.4081  0.0058  0.1605
 5588TIP3    H138255   5.142   5.153  10.598  0.6375 -0.3378  0.1231
 5588TIP3    H238256   5.191   5.211  10.729  0.2080 -0.5397  0.3781
 5589TIP3   OH238257   5.785   5.148   6.310  0.4113 -0.7255 -0.0190
 5589TIP3    H138258   5.759   5.067   6.354 -1.4414 -0.3947 -0.4054
 5589TIP3    H238259   5.776   5.215   6.377 -0.8819 -0.4458 -0.4529
 5590TIP3   OH238260   1.684   0.899  15.498 -0.1670  0.6257  0.0602
 5590TIP3    H138261   1.723   0.817  15.529 -0.8455 -2.1068 -5.1286
 5590TIP3    H238262   1.757   0.949  15.462 -0.0418  1.3410  1.2605
 5591TIP3   OH238263   2.042   2.000  12.438  0.0878  0.5346  0.3172
 5591TIP3    H138264   1.947   2.008  12.436 -0.0518 -0.2318 -3.1310
 5591TIP3    H238265   2.074   2.086  12.464 -1.5327  1.1191  0.4333
 5592TIP3   OH238266   2.316   3.225   1.531 -0.1874  0.2124  0.1427
 5592TIP3    H138267   2.316   3.286   1.457  0.6832  0.0275 -0.0269
 5592TIP3    H238268   2.264   3.268   1.598  1.0569  1.5180  0.3264
 5593TIP3   OH238269   1.466   4.939   6.506  0.1923 -0.3097  0.2707
 5593TIP3    H138270   1.450   5.024   6.546  0.9876  0.0583 -0.1727
 5593TIP3    H238271   1.436   4.949   6.416  0.2065 -0.5300  0.2412
 5594TIP3   OH238272   5.277   4.605   0.392 -0.6634  0.2446 -0.0551
 5594TIP3    H138273   5.206   4.664   0.418  1.1414  1.8360  1.5746
 5594TIP3    H238274   5.338   4.607   0.466  1.0392 -1.1535 -1.3328
 5595TIP3   OH238275   1.921   3.486  13.862 -0.0296 -0.7747  0.0269
 5595TIP3    H138276   1.862   3.517  13.931  2.7819 -1.9108  3.2277
 5595TIP3    H238277   1.998   3.542  13.870 -0.4058  0.5842 -3.9289
 5596TIP3   OH238278   0.864   0.107   2.915  0.1312  0.7131  0.5401
 5596TIP3    H138279   0.797   0.046   2.946  0.2713  0.8967  1.2242
 5596TIP3    H238280   0.870   0.173   2.985  1.4578  0.3698  0.7715
 5597TIP3   OH238281   3.377   3.999  15.872  0.3858  0.2581  0.3202
 5597TIP3    H138282   3.364   4.027  15.782 -0.2872  0.4849  0.4830
 5597TIP3    H238283   3.380   3.903  15.867 -1.1994  0.1910  0.2336
 5598TIP3   OH238284   5.096   0.645   1.659  0.4074  0.1211  0.3841
 5598TIP3    H138285   5.142   0.669   1.578 -1.3836  0.7512 -0.4921
 5598TIP3    H238286   5.049   0.565   1.637  0.0179  0.2209  0.8579
 5599TIP3   OH238287   4.618   6.173  15.914  0.1604  0.1680 -0.7830
 5599TIP3    H138288   4.607   6.197  15.822 -1.1436  2.0618 -0.1889
 5599TIP3    H238289   4.561   6.096  15.925 -2.3221  1.8683 -0.8741
 5600TIP3   OH238290   1.555   5.938   3.461  0.1482 -0.3316 -0.2310
 5600TIP3    H138291   1.580   6.000   3.392  2.8364 -0.8120  0.1846
 5600TIP3    H238292   1.508   5.990   3.525  2.5726  1.4718  0.2409
 5601TIP3   OH238293   1.454   5.160  16.365  0.3839  0.3769 -0.2668
 5601TIP3    H138294   1.416   5.244  16.343 -1.0485 -0.8353 -2.8959
 5601TIP3    H238295   1.453   5.157  16.461  0.6346  3.3419 -0.0979
 5602TIP3   OH238296   3.308   6.014   2.878  0.1027 -0.1034  0.1725
 5602TIP3    H138297   3.359   5.933   2.879  0.3963  0.0380 -1.5189
 5602TIP3    H238298   3.263   6.013   2.793 -2.3375  0.0250  1.3545
 5603TIP3   OH238299   5.781   3.820   5.500 -0.5714 -0.0330  0.5397
 5603TIP3    H138300   5.766   3.755   5.568 -0.5174 -1.5525 -0.8260
 5603TIP3    H238301   5.703   3.813   5.444 -0.5644  1.0897  0.3762
 5604TIP3   OH238302   1.672   0.314  11.679 -0.5441 -0.0756  0.5120
 5604TIP3    H138303   1.663   0.279  11.768 -0.2671  1.4909  1.1927
 5604TIP3    H238304   1.622   0.254  11.624  0.2234 -1.7267  1.5501
 5605TIP3   OH238305   4.498   1.113  15.679 -0.8639 -0.4229 -0.2968
 5605TIP3    H138306   4.454   1.194  15.706 -0.0387  0.1548 -0.6223
 5605TIP3    H238307   4.536   1.078  15.760  1.4363  1.1999 -0.5590
 5606TIP3   OH238308   5.142   1.642   1.381  0.4357 -0.0547  0.3209
 5606TIP3    H138309   5.086   1.720   1.382 -2.7835 -2.1912  1.7210
 5606TIP3    H238310   5.191   1.646   1.463  0.8836  0.7729  0.0402
 5607TIP3   OH238311   0.791   4.208  11.809 -0.1600  0.0884  0.3210
 5607TIP3    H138312   0.751   4.141  11.864 -2.2505  1.2631  0.3638
 5607TIP3    H238313   0.739   4.207  11.729 -0.1332  1.5170  0.2613
 5608TIP3   OH238314   1.023   0.043   6.145 -0.0760 -0.3024 -0.2980
 5608TIP3    H138315   0.960   0.114   6.154  0.4497  0.2083 -0.6221
 5608TIP3    H238316   1.081   0.053   6.220  0.1053 -0.2849 -0.4416
 5609TIP3   OH238317   1.474   4.992  12.906 -0.4967 -0.1288  0.0767
 5609TIP3    H138318   1.439   4.992  12.996  0.9836  1.8603  0.7214
 5609TIP3    H238319   1.507   5.080  12.893  0.5822 -0.7634 -1.9670
 5610TIP3   OH238320   0.913   5.006   3.992  0.1753  0.1035  0.0139
 5610TIP3    H138321   0.937   4.976   4.079  2.5408  1.2107 -0.1787
 5610TIP3    H238322   0.872   4.930   3.950  1.6255 -1.3300  1.1133
 5611TIP3   OH238323   4.089   4.228   2.660 -0.7230  0.4690  1.1249
 5611TIP3    H138324   3.998   4.253   2.646 -0.9889 -0.8190  0.4179
 5611TIP3    H238325   4.096   4.140   2.622  0.5572  0.1348  2.0664
 5612TIP3   OH238326   6.157   1.259  15.076 -0.4837 -0.3455  0.0502
 5612TIP3    H138327   6.123   1.329  15.132  0.2619  0.9950 -1.1091
 5612TIP3    H238328   6.249   1.249  15.103 -0.7348 -1.2932  0.5916
 5613TIP3   OH238329   0.782   0.376   2.794  0.0995 -0.1977 -0.1554
 5613TIP3    H138330   0.710   0.431   2.764  0.0652 -1.3241 -2.3565
 5613TIP3    H238331   0.846   0.438   2.831 -0.0852  1.3174 -2.1968
 5614TIP3   OH238332   4.412   1.045  16.226  0.7277 -0.5721 -0.1972
 5614TIP3    H138333   4.349   1.117  16.216 -0.3883 -1.6283 -0.9621
 5614TIP3    H238334   4.473   1.077  16.292 -0.3400  0.6727  0.2404
 5615TIP3   OH238335   0.662   2.456  13.457 -0.3156  0.2543  0.2585
 5615TIP3    H138336   0.648   2.399  13.381 -0.4857  2.1965 -1.2484
 5615TIP3    H238337   0.754   2.483  13.450  0.2693 -1.1206  1.9458
 5616TIP3   OH238338   3.255   2.467   2.045 -0.2338  0.4199  0.1690
 5616TIP3    H138339   3.166   2.434   2.056 -0.1337  0.0889 -0.0127
 5616TIP3    H238340   3.267   2.473   1.951 -0.6483  2.0556  0.1836
 5617TIP3   OH238341   5.486   1.368   0.934 -0.1321  0.4912  0.4208
 5617TIP3    H138342   5.518   1.319   0.859  0.0030  2.0714 -0.5963
 5617TIP3    H238343   5.556   1.362   0.999  1.4873  2.2575 -1.0377
 5618TIP3   OH238344   0.331   2.807  10.266 -0.2046 -0.4708 -0.0879
 5618TIP3    H138345   0.264   2.784  10.201 -0.9985 -1.0769  0.9142
 5618TIP3    H238346   0.282   2.831  10.344  0.7412  0.0831  0.3623
 5619TIP3   OH238347   1.628   5.751   5.497  0.4501  0.4411 -0.3755
 5619TIP3    H138348   1.561   5.789   5.555 -0.3222 -2.0694  0.5039
 5619TIP3    H238349   1.578   5.716   5.423  0.7238 -1.4412  0.2798
 5620TIP3   OH238350   0.199   2.001  12.920  0.0166 -0.4397  0.1866
 5620TIP3    H138351   0.274   2.030  12.869  0.7852  0.2021  1.6045
 5620TIP3    H238352   0.166   2.081  12.962 -0.3112 -1.0036  1.0266
 5621TIP3   OH238353   3.569   2.509  16.676  0.4005  0.1593 -0.4033
 5621TIP3    H138354   3.586   2.495  16.583 -0.3798  1.9527 -0.8843
 5621TIP3    H238355   3.485   2.556  16.677  0.6588  0.6393  1.1674
 5622TIP3   OH238356   2.632   1.435   2.151 -0.6953 -0.1978 -0.9156
 5622TIP3    H138357   2.651   1.464   2.240  0.4507  0.4520 -1.3403
 5622TIP3    H238358   2.709   1.464   2.100 -0.3950 -2.2736 -1.7391
 5623TIP3   OH238359   1.401   2.610   2.681 -0.2123 -0.0345  0.6454
 5623TIP3    H138360   1.410   2.645   2.592  0.2864  0.6194  0.9370
 5623TIP3    H238361   1.310   2.628   2.705 -0.3885 -0.3486  0.2103
 5624TIP3   OH238362   0.899   0.197  17.155 -0.1905 -0.1772 -0.5152
 5624TIP3    H138363   0.815   0.174  17.194  0.7045 -0.1870  1.5663
 5624TIP3    H238364   0.877   0.249  17.078 -2.0940 -1.2177 -0.7268
 5625TIP3   OH238365   4.265   1.873  15.591 -0.3999 -0.0320  0.0466
 5625TIP3    H138366   4.185   1.906  15.551 -0.2808 -1.0238 -1.0624
 5625TIP3    H238367   4.307   1.822  15.522 -0.1261 -1.7065  1.3842
 5626TIP3   OH238368   0.016   1.678  15.096 -0.4845 -0.3554  0.5193
 5626TIP3    H138369   0.083   1.670  15.028  2.2562  1.5633  2.7859
 5626TIP3    H238370  -0.064   1.699  15.048  1.1531  0.2140 -2.1778
 5627TIP3   OH238371   3.493   5.211   2.941 -0.2223 -0.1294  0.6365
 5627TIP3    H138372   3.463   5.122   2.923  0.5843 -0.1025 -0.9670
 5627TIP3    H238373   3.560   5.200   3.009 -1.9265 -0.4312  2.3651
 5628TIP3   OH238374   0.368   4.996   4.027 -0.2448 -0.2034 -0.3515
 5628TIP3    H138375   0.327   4.955   3.952 -1.6828  0.7926 -0.1608
 5628TIP3    H238376   0.388   4.924   4.087 -1.1649 -0.7882 -0.7343
 5629TIP3   OH238377   6.120   2.043   2.080 -0.5423  0.1471  0.3877
 5629TIP3    H138378   6.075   2.121   2.112  0.4226  1.3053 -0.9424
 5629TIP3    H238379   6.195   2.034   2.138  0.7261  1.7353 -0.9016
 5630TIP3   OH238380   1.069   1.193  14.397  0.1049  0.5013 -0.5086
 5630TIP3    H138381   1.026   1.111  14.423  1.1030  0.0049 -0.3957
 5630TIP3    H238382   0.996   1.253  14.377 -0.6320 -0.7882 -1.8392
 5631TIP3   OH238383   5.092   3.454   2.750 -0.2754 -0.0897 -0.7446
 5631TIP3    H138384   5.113   3.519   2.818  0.3167 -0.7553 -0.2690
 5631TIP3    H238385   5.007   3.420   2.775  0.3661 -1.0284  0.2400
 5632TIP3   OH238386   2.700   3.163   5.929  0.2871  0.0405  0.8319
 5632TIP3    H138387   2.635   3.159   5.999  1.5803 -1.2225  2.0384
 5632TIP3    H238388   2.771   3.106   5.960  0.0393 -2.3214 -2.4092
 5633TIP3   OH238389   4.157   1.621   1.263  0.6626 -0.0022  0.0617
 5633TIP3    H138390   4.252   1.606   1.261  0.5601 -0.7334  0.4152
 5633TIP3    H238391   4.120   1.535   1.282 -0.0133  0.5079  1.1255
 5634TIP3   OH238392   6.451   4.569   0.953  0.7041 -0.0884 -0.5351
 5634TIP3    H138393   6.508   4.621   1.010  0.6015 -0.0352 -0.4815
 5634TIP3    H238394   6.380   4.628   0.928 -0.6475 -0.8171  1.3488
 5635TIP3   OH238395   5.840   5.079  14.406  0.5552 -0.0981 -0.2933
 5635TIP3    H138396   5.754   5.120  14.418  0.3128 -0.6050 -0.2640
 5635TIP3    H238397   5.824   5.008  14.344  0.8269 -0.5629  0.1541
 5636TIP3   OH238398   4.485   4.515  16.189 -0.1851  0.7113 -0.7333
 5636TIP3    H138399   4.449   4.595  16.227  0.8656  0.3532  1.1542
 5636TIP3    H238400   4.426   4.446  16.219  0.6871  0.4175  0.3733
 5637TIP3   OH238401   1.688   5.038   4.280 -0.1430 -0.0753  0.1759
 5637TIP3    H138402   1.717   4.950   4.304 -0.1635  0.8813  4.5710
 5637TIP3    H238403   1.767   5.083   4.252  0.3502 -0.7638  0.4332
 5638TIP3   OH238404   1.495   3.430  13.810 -0.0344 -0.7227  0.2183
 5638TIP3    H138405   1.562   3.372  13.845 -1.3605 -1.4404  1.7248
 5638TIP3    H238406   1.543   3.510  13.785  1.1219 -0.1939  3.6011
 5639TIP3   OH238407   2.542   0.119   3.655  0.1810 -0.4532  0.4762
 5639TIP3    H138408   2.468   0.138   3.713 -0.0614  1.9006 -0.4832
 5639TIP3    H238409   2.506   0.125   3.567  1.1478 -1.1619  0.0072
 5640TIP3   OH238410   0.605   5.384  16.300 -0.4053  0.1996  0.2404
 5640TIP3    H138411   0.663   5.377  16.224 -0.4253 -0.6285  0.2884
 5640TIP3    H238412   0.663   5.379  16.375 -0.4636  0.1796  0.2850
 5641TIP3   OH238413   6.078   0.453   0.936 -0.0068 -0.2460 -0.2203
 5641TIP3    H138414   6.065   0.402   0.856  0.3796  1.1006 -1.1764
 5641TIP3    H238415   6.014   0.417   0.998 -2.4576  0.6175 -2.0775
 5642TIP3   OH238416   0.098   2.875   4.216  0.5506 -0.4758 -0.1635
 5642TIP3    H138417   0.189   2.876   4.186  0.6075  0.0222  0.0166
 5642TIP3    H238418   0.055   2.943   4.164 -0.3922 -2.5617 -2.2678
 5643TIP3   OH238419   3.195   1.239  12.701  0.1245 -1.0869  0.4656
 5643TIP3    H138420   3.177   1.164  12.757  0.4605 -0.5684  1.2771
 5643TIP3    H238421   3.290   1.245  12.698  0.1131 -1.0935 -0.1540
 5644TIP3   OH238422   4.741   6.167   2.782 -0.0437  0.0077 -0.0122
 5644TIP3    H138423   4.825   6.156   2.826 -0.7621  0.8462  1.6511
 5644TIP3    H238424   4.738   6.259   2.758 -0.2685 -0.1340 -0.5307
 5645TIP3   OH238425   2.559   2.246  13.978  0.7224  0.4562  0.1353
 5645TIP3    H138426   2.636   2.198  14.008 -0.1171 -0.8697  0.2117
 5645TIP3    H238427   2.523   2.285  14.058 -0.1505 -1.1007  0.5420
 5646TIP3   OH238428   3.468   4.562   2.498 -0.0729  0.1669 -0.2622
 5646TIP3    H138429   3.452   4.468   2.493  2.6369 -0.5534  2.1199
 5646TIP3    H238430   3.540   4.578   2.437  0.0574  0.5516 -0.0114
 5647TIP3   OH238431   4.171   5.221   0.541  0.2656  0.0251 -0.1512
 5647TIP3    H138432   4.109   5.224   0.468 -0.9808 -0.6002  0.8459
 5647TIP3    H238433   4.187   5.128   0.556 -2.3203 -0.1162  2.6179
 5648TIP3   OH238434   1.104   6.831   3.238  0.2338  0.1678  0.1128
 5648TIP3    H138435   1.129   6.899   3.176  0.4808  0.0724  0.1064
 5648TIP3    H238436   1.100   6.875   3.322 -1.8492  0.7123 -0.2011
 5649TIP3   OH238437   3.011   3.806  13.239  0.1296 -0.4762  0.4914
 5649TIP3    H138438   2.929   3.840  13.277  0.3804  2.0732 -1.0193
 5649TIP3    H238439   3.075   3.875  13.254  1.3933 -1.3850 -0.5092
 5650TIP3   OH238440   2.425   5.618   5.911 -0.1716 -0.0867  0.6855
 5650TIP3    H138441   2.428   5.612   6.006  1.1508  0.8777  0.7445
 5650TIP3    H238442   2.426   5.712   5.893 -2.2324 -0.1989 -0.2808
 5651TIP3   OH238443   0.809   5.413   3.494 -0.7008 -0.6064 -0.1280
 5651TIP3    H138444   0.869   5.406   3.568 -0.4192  1.1187 -0.1620
 5651TIP3    H238445   0.850   5.360   3.425  0.5595  0.1525  0.0053
 5652TIP3   OH238446   5.359   6.465   0.364  0.1557  0.7357  0.4927
 5652TIP3    H138447   5.409   6.387   0.386 -0.4722  0.3462  0.5779
 5652TIP3    H238448   5.424   6.535   0.356  0.8335  0.0050 -0.5531
 5653TIP3   OH238449   2.935   4.388  15.600  0.0359 -0.2909  0.2238
 5653TIP3    H138450   3.003   4.387  15.533 -0.8818 -0.1782 -0.7296
 5653TIP3    H238451   2.855   4.367  15.553 -0.8180  0.9490  1.0823
 5654TIP3   OH238452   1.405   5.466   2.624  0.5845  0.4968  0.0580
 5654TIP3    H138453   1.400   5.552   2.582  1.1240  0.0824 -0.8809
 5654TIP3    H238454   1.454   5.482   2.705  0.8483  1.0475 -0.2028
 5655TIP3   OH238455   0.824   0.712   0.915  0.0183  0.2473  0.6173
 5655TIP3    H138456   0.872   0.771   0.858  0.3572  0.3269  0.9826
 5655TIP3    H238457   0.758   0.672   0.858 -0.1914  0.9416  0.3555
 5656TIP3   OH238458   1.000   2.660  16.057 -0.4051  0.3637  0.1877
 5656TIP3    H138459   1.073   2.637  16.115 -1.4839 -0.2611  1.3462
 5656TIP3    H238460   0.929   2.604  16.085 -0.8407 -0.3365 -2.1256
 5657TIP3   OH238461   5.178   2.554  12.259  0.2836 -0.4955  0.1626
 5657TIP3    H138462   5.260   2.604  12.263  0.3490 -0.6670  1.3970
 5657TIP3    H238463   5.193   2.490  12.190  0.2565  1.0527 -1.3468
 5658TIP3   OH238464   4.571   2.432  13.709 -0.1782  0.0580 -0.5795
 5658TIP3    H138465   4.601   2.494  13.775 -0.9513  1.2527 -1.3306
 5658TIP3    H238466   4.647   2.421  13.651 -0.3656  1.1370 -1.0483
 5659TIP3   OH238467   3.263   0.669  12.788  0.5881  0.5176 -0.1717
 5659TIP3    H138468   3.260   0.594  12.847 -1.0526 -0.0318 -0.9012
 5659TIP3    H238469   3.295   0.633  12.705 -0.5846  0.5130 -0.6388
 5660TIP3   OH238470   6.733   3.972  13.963 -0.0939  0.5847  0.0276
 5660TIP3    H138471   6.782   3.892  13.948 -0.5909  0.2880 -0.0215
 5660TIP3    H238472   6.765   4.004  14.047 -0.9718 -0.4728  0.7898
 5661TIP3   OH238473   1.370   5.712  11.803 -0.0643  0.9726 -0.2011
 5661TIP3    H138474   1.350   5.673  11.888  1.1807  1.3106  0.2787
 5661TIP3    H238475   1.452   5.671  11.776 -0.9416  0.1512 -1.7311
 5662TIP3   OH238476   3.214   6.366   2.382  0.2856  0.5489  0.3797
 5662TIP3    H138477   3.229   6.410   2.298  0.7162  0.7955  0.5864
 5662TIP3    H238478   3.274   6.408   2.443 -0.1617  0.5009  0.8639
 5663TIP3   OH238479   0.929   6.381  11.255  0.1123 -0.1069 -0.8146
 5663TIP3    H138480   0.919   6.286  11.243  1.9120 -0.2512 -1.4843
 5663TIP3    H238481   0.842   6.416  11.240 -0.3956 -1.5655 -1.5264
 5664TIP3   OH238482   3.172   0.681  16.899 -0.1757 -0.1454  0.5810
 5664TIP3    H138483   3.134   0.613  16.843 -0.0267 -0.8724  1.3439
 5664TIP3    H238484   3.102   0.745  16.911  0.1698  0.7143 -1.4837
 5665TIP3   OH238485   6.651   0.833   0.743  0.6136 -0.3066  0.1004
 5665TIP3    H138486   6.618   0.898   0.805 -0.1409  0.8322 -1.4282
 5665TIP3    H238487   6.602   0.850   0.662  1.2735 -2.0033 -0.7017
 5666TIP3   OH238488   2.034   1.226   1.515  0.4251 -0.0649  0.0025
 5666TIP3    H138489   2.087   1.177   1.452  0.7080 -0.0875  0.2579
 5666TIP3    H238490   2.014   1.309   1.471  0.3236 -0.2230 -0.2537
 5667TIP3   OH238491   0.712   5.683  14.431  0.1266  0.1503  0.0117
 5667TIP3    H138492   0.759   5.764  14.453  0.1880  0.0303  0.3257
 5667TIP3    H238493   0.703   5.686  14.336  1.2512 -0.0883 -0.1112
 5668TIP3   OH238494   2.197   3.102   5.417  0.2448  0.0605  0.5978
 5668TIP3    H138495   2.110   3.125   5.449 -0.5855 -1.2587 -0.6117
 5668TIP3    H238496   2.257   3.140   5.481 -1.0181  3.9184 -0.2474
 5669TIP3   OH238497   4.048   1.872  13.226 -0.0002 -0.1194  0.1477
 5669TIP3    H138498   4.138   1.851  13.250  0.4199  1.5935  0.1447
 5669TIP3    H238499   4.043   1.853  13.132  0.4154  0.0063  0.1004
 5670TIP3   OH238500   2.616   3.407  10.792  0.4630  0.2362  0.2368
 5670TIP3    H138501   2.556   3.366  10.730  0.2359 -0.9589  1.2223
 5670TIP3    H238502   2.703   3.381  10.761  0.3119 -1.2147  0.9906
 5671TIP3   OH238503   6.362   5.814   4.019  0.1715  0.1790 -0.1560
 5671TIP3    H138504   6.395   5.731   4.052 -1.4023 -1.6582 -2.8490
 5671TIP3    H238505   6.268   5.812   4.038 -0.0625  0.8747 -1.1479
 5672TIP3   OH238506   5.358   3.593  15.020 -0.1687 -0.4447 -0.1771
 5672TIP3    H138507   5.343   3.683  15.048  1.3036 -0.3450  0.3607
 5672TIP3    H238508   5.441   3.596  14.971 -1.5321 -1.0002 -2.7267
 5673TIP3   OH238509   5.651   2.893   1.748  0.2730  0.2852 -0.2492
 5673TIP3    H138510   5.562   2.879   1.778  0.6195 -1.5267  0.0202
 5673TIP3    H238511   5.644   2.893   1.652  0.0293 -0.1889 -0.2318
 5674TIP3   OH238512   0.404   3.638   0.360 -0.1047 -0.5730 -0.4224
 5674TIP3    H138513   0.331   3.700   0.355  0.1528  0.2206  3.0409
 5674TIP3    H238514   0.481   3.692   0.375  0.9239 -1.5394 -1.9790
 5675TIP3   OH238515   5.392   6.747  17.189 -0.1200 -0.2399 -0.0178
 5675TIP3    H138516   5.428   6.750  17.278 -1.0104  1.8559  0.3326
 5675TIP3    H238517   5.392   6.838  17.160 -1.9859 -0.5818 -1.2798
 5676TIP3   OH238518   6.375   0.784   2.717  0.0948 -0.5578 -0.1337
 5676TIP3    H138519   6.365   0.875   2.687 -0.1562 -1.4054 -2.9077
 5676TIP3    H238520   6.464   0.760   2.690  0.6352 -0.8255  1.7168
 5677TIP3   OH238521   3.238   3.089   5.120 -0.0356 -0.0930 -0.0641
 5677TIP3    H138522   3.310   3.028   5.134  0.8918  0.7622 -0.9385
 5677TIP3    H238523   3.202   3.104   5.208 -0.3689 -1.9520  0.1613
 5678TIP3   OH238524   1.643   3.841  11.493 -0.2367  0.4949  0.3874
 5678TIP3    H138525   1.632   3.777  11.422  1.5380  0.3876  0.1705
 5678TIP3    H238526   1.591   3.916  11.466 -1.5994 -0.4689  0.1887
 5679TIP3   OH238527   3.461   5.431   5.582 -0.0616 -0.3017  0.0073
 5679TIP3    H138528   3.458   5.340   5.552 -0.3368 -0.3316  0.1232
 5679TIP3    H238529   3.518   5.429   5.659 -2.1057 -0.8560  1.6204
 5680TIP3   OH238530   3.693   6.391   5.368  0.1689  0.4721  0.4082
 5680TIP3    H138531   3.786   6.376   5.353  0.7798  2.1178  2.0635
 5680TIP3    H238532   3.650   6.315   5.329  2.1656 -0.2055 -0.6443
 5681TIP3   OH238533   5.561   2.755  14.088  0.9394 -0.1107 -0.0867
 5681TIP3    H138534   5.536   2.663  14.092 -1.3360  0.4478  0.0817
 5681TIP3    H238535   5.541   2.781  13.998 -2.0426  1.0529  0.7892
 5682TIP3   OH238536   0.504   5.107  12.850 -0.3350 -0.2314 -0.1967
 5682TIP3    H138537   0.538   5.036  12.904  1.8113  0.1990 -0.8644
 5682TIP3    H238538   0.455   5.064  12.781 -2.1326 -0.8372  1.3728
 5683TIP3   OH238539   6.005   6.143   0.769  0.0255 -0.2046  1.0537
 5683TIP3    H138540   5.918   6.113   0.741  0.5537 -1.5734  0.8033
 5683TIP3    H238541   6.032   6.081   0.836  0.7006  0.3796  1.3362
 5684TIP3   OH238542   0.162   3.134  12.258  0.9788 -0.5429  0.0006
 5684TIP3    H138543   0.106   3.079  12.312  0.1043 -0.0815 -0.4272
 5684TIP3    H238544   0.139   3.112  12.168  0.9490  0.1846 -0.1782
 5685TIP3   OH238545   6.326   3.415   6.487 -0.7376  0.2477  0.5884
 5685TIP3    H138546   6.333   3.510   6.488 -1.2295  0.2819  1.0335
 5685TIP3    H238547   6.236   3.397   6.515 -1.8743 -0.2206 -2.8474
 5686TIP3   OH238548   4.465   3.505   5.528  0.2215  0.3173 -0.3901
 5686TIP3    H138549   4.472   3.591   5.570  2.0691 -0.2137  0.5123
 5686TIP3    H238550   4.371   3.486   5.528 -0.3219  2.6775 -1.4011
 5687TIP3   OH238551   6.073   5.903  15.313 -0.1739  0.3518  0.4178
 5687TIP3    H138552   6.112   5.906  15.400  0.0756 -2.2545  0.4733
 5687TIP3    H238553   5.987   5.863  15.326 -0.5466  0.8483 -0.4199
 5688TIP3   OH238554   1.499   5.968  16.025 -0.0198  0.1569 -0.3990
 5688TIP3    H138555   1.507   5.873  16.021  1.0162  0.2399 -0.4961
 5688TIP3    H238556   1.554   6.000  15.954 -0.2995  0.8399 -0.3181
 5689TIP3   OH238557   2.120   2.021  10.675 -0.3561 -0.7221 -0.7259
 5689TIP3    H138558   2.082   2.085  10.616 -0.1016  0.5605  0.4557
 5689TIP3    H238559   2.210   2.010  10.644 -0.6021 -1.0666 -1.3506
 5690TIP3   OH238560   1.439   3.427   4.938  0.3919 -0.0141  0.4688
 5690TIP3    H138561   1.451   3.459   5.027 -0.7673  1.5976  0.0780
 5690TIP3    H238562   1.467   3.499   4.882 -1.9565  0.2812 -0.4423
 5691TIP3   OH238563   6.574   0.817  14.927  0.2030  0.0700  0.4535
 5691TIP3    H138564   6.612   0.881  14.987  2.2918  0.9945 -1.7097
 5691TIP3    H238565   6.636   0.743  14.928  0.1621  0.0101 -0.3541
 5692TIP3   OH238566   2.816   5.116   3.772 -0.2496  0.2713  0.0280
 5692TIP3    H138567   2.769   5.066   3.705  1.0104 -0.4214 -0.3688
 5692TIP3    H238568   2.838   5.199   3.728  1.5940 -0.6311 -0.8742
 5693TIP3   OH238569   5.458   6.394  13.973 -0.0778  0.2492  0.3101
 5693TIP3    H138570   5.535   6.389  14.029 -0.2836 -1.0052  0.5005
 5693TIP3    H238571   5.433   6.303  13.957  0.2460  0.5131 -2.2131
 5694TIP3   OH238572   6.377   6.815  11.853 -0.0142  0.1638  0.5390
 5694TIP3    H138573   6.442   6.830  11.784 -0.6980  0.8531  0.0210
 5694TIP3    H238574   6.323   6.743  11.820 -0.1126  0.2488  0.5113
 5695TIP3   OH238575   4.448   3.872  14.740 -0.0366 -0.3035  0.5456
 5695TIP3    H138576   4.387   3.886  14.667 -1.3391 -1.9933  1.2121
 5695TIP3    H238577   4.515   3.815  14.704  0.7544  0.9298  0.0161
 5696TIP3   OH238578   6.586   2.814   4.083  0.4384  0.1365 -0.7492
 5696TIP3    H138579   6.612   2.899   4.117  1.0226  0.4299 -1.8695
 5696TIP3    H238580   6.504   2.794   4.128 -0.4933  1.9737 -1.5168
 5697TIP3   OH238581   3.617   5.377   2.751 -0.0236 -0.2148  0.2406
 5697TIP3    H138582   3.691   5.324   2.722 -2.5212 -2.9990 -1.6699
 5697TIP3    H238583   3.587   5.335   2.832  0.1461  0.5801  0.7252
 5698TIP3   OH238584   1.731   4.674   3.199  0.0852 -0.2791 -0.0738
 5698TIP3    H138585   1.721   4.632   3.284 -3.8054  1.5483  0.5700
 5698TIP3    H238586   1.755   4.765   3.219 -2.2325  0.5545 -0.6879
 5699TIP3   OH238587   5.424   6.772  12.428 -0.5407 -0.4580 -0.0346
 5699TIP3    H138588   5.508   6.790  12.386 -0.9880  0.0500 -0.7292
 5699TIP3    H238589   5.447   6.727  12.509  0.3505 -1.3550 -0.7609
 5700TIP3   OH238590   0.767   5.068  12.630 -0.3483 -0.0712 -0.0255
 5700TIP3    H138591   0.836   5.124  12.593  0.6882 -1.5939 -0.4870
 5700TIP3    H238592   0.736   5.017  12.556 -3.1894  1.6954 -0.1896
 5701TIP3   OH238593   2.971   4.747   2.917 -0.7297  0.2954 -0.3784
 5701TIP3    H138594   2.898   4.685   2.916 -0.6700  0.2163 -2.2238
 5701TIP3    H238595   2.949   4.811   2.849 -0.1592  1.5811  0.6074
 5702TIP3   OH238596   5.036   0.432   6.507 -0.4344  0.4884 -0.0429
 5702TIP3    H138597   4.999   0.418   6.420  0.6483  1.0806 -0.6298
 5702TIP3    H238598   4.987   0.374   6.565 -1.0430 -0.0560 -1.0863
 5703TIP3   OH238599   0.129   2.966   1.203  0.5355  0.6620  0.8811
 5703TIP3    H138600   0.101   2.993   1.291  0.4302  0.2883  0.9688
 5703TIP3    H238601   0.224   2.982   1.202  0.2607  2.4109  0.4021
 5704TIP3   OH238602   4.517   0.919  15.433 -0.5239  0.0321  0.1030
 5704TIP3    H138603   4.463   0.956  15.502 -0.0729  0.5224  0.1922
 5704TIP3    H238604   4.592   0.978  15.426  0.1433 -0.7870  0.1642
 5705TIP3   OH238605   1.592   3.855  15.833  0.7291  0.3853 -0.1175
 5705TIP3    H138606   1.636   3.804  15.902 -2.1014 -1.1606  0.6923
 5705TIP3    H238607   1.585   3.794  15.760 -0.6055  0.3608  0.0159
 5706TIP3   OH238608   2.178   2.917  14.914  0.4655 -0.5427 -0.3445
 5706TIP3    H138609   2.137   2.976  14.850  1.0348  0.5563  0.2792
 5706TIP3    H238610   2.105   2.889  14.969 -0.2893 -2.5965 -2.2373
 5707TIP3   OH238611   6.694   4.353   6.011 -0.4469 -0.2095  0.5756
 5707TIP3    H138612   6.759   4.329   6.077  0.9586 -0.7298 -0.9192
 5707TIP3    H238613   6.621   4.293   6.025  0.0992 -0.7231  1.2486
 5708TIP3   OH238614   5.634   5.838  14.089 -0.3493  0.3499 -0.7072
 5708TIP3    H138615   5.651   5.841  14.183 -1.8869  1.6912 -0.4159
 5708TIP3    H238616   5.620   5.746  14.069  1.1705 -0.0795  0.1314
 5709TIP3   OH238617   2.923   4.156   1.267  0.2688  0.1186  0.4657
 5709TIP3    H138618   2.838   4.131   1.230  1.2430 -2.0847 -0.4211
 5709TIP3    H238619   2.961   4.214   1.200  0.3952 -0.7252 -0.2095
 5710TIP3   OH238620   0.293   5.230  13.142  0.9164 -0.4952  0.3969
 5710TIP3    H138621   0.285   5.264  13.053 -0.6528 -0.5117  0.4951
 5710TIP3    H238622   0.355   5.158  13.135  1.7340  0.2603 -0.4413
 5711TIP3   OH238623   2.980   3.566  15.051 -0.1633  0.1159 -0.3632
 5711TIP3    H138624   2.978   3.594  14.959 -2.1927 -1.4111 -0.8758
 5711TIP3    H238625   2.897   3.596  15.087  0.3509  0.1725  0.8078
 5712TIP3   OH238626   6.629   0.913   1.430 -0.8840  0.7704  0.0809
 5712TIP3    H138627   6.656   0.900   1.521  1.2854 -0.5174 -0.6635
 5712TIP3    H238628   6.540   0.878   1.426 -0.2368 -1.1923  1.2957
 5713TIP3   OH238629   3.261   2.667  11.619 -0.3128  0.2083 -0.6679
 5713TIP3    H138630   3.347   2.709  11.622  0.3230 -1.1024 -0.0903
 5713TIP3    H238631   3.228   2.686  11.532  0.1608  1.4853 -0.5957
 5714TIP3   OH238632   3.523   0.110   0.612  0.2051 -0.1265  0.2344
 5714TIP3    H138633   3.476   0.182   0.570  0.0158 -0.7218 -0.6074
 5714TIP3    H238634   3.615   0.128   0.593  0.1748  0.0143  0.2203
 5715TIP3   OH238635   0.320   5.194   1.221  0.5167  0.1824  0.0621
 5715TIP3    H138636   0.256   5.216   1.288  2.1835  1.6806  1.2647
 5715TIP3    H238637   0.376   5.128   1.263 -0.0852 -0.9669 -0.8997
 5716TIP3   OH238638   1.300   5.668   3.469  0.2614  0.3686 -0.2843
 5716TIP3    H138639   1.244   5.628   3.402  0.2617  0.5779 -0.4113
 5716TIP3    H238640   1.314   5.598   3.534 -0.3110  0.3806 -0.1500
 5717TIP3   OH238641   0.589   2.464  16.377 -0.2562  0.3875 -0.6384
 5717TIP3    H138642   0.561   2.528  16.442  1.7283  0.6178  0.0706
 5717TIP3    H238643   0.533   2.388  16.393 -0.9670  1.0582  0.1743
 5718TIP3   OH238644   0.007   5.566   3.450  0.2045  0.8031  0.0258
 5718TIP3    H138645  -0.008   5.641   3.392 -0.9264 -0.5402 -1.5037
 5718TIP3    H238646   0.089   5.587   3.494  0.1768  2.7152 -0.7203
 5719TIP3   OH238647   2.601   6.647   1.164  0.2087  0.4201 -0.2354
 5719TIP3    H138648   2.587   6.555   1.186 -0.1561  0.4955 -0.1399
 5719TIP3    H238649   2.519   6.674   1.123  0.6921  0.4113 -1.2506
 5720TIP3   OH238650   2.061   5.862  10.863  0.4587  0.4702 -0.5480
 5720TIP3    H138651   2.003   5.912  10.805 -0.5017 -0.7465 -0.6701
 5720TIP3    H238652   2.131   5.924  10.886 -1.1119  2.1487 -0.0219
 5721TIP3   OH238653   0.733   0.910  13.548 -0.2872  0.3336  0.7064
 5721TIP3    H138654   0.658   0.927  13.491  0.3733  2.6524  0.4398
 5721TIP3    H238655   0.702   0.932  13.636  0.3947  2.6339  0.4343
 5722TIP3   OH238656   2.738   4.434  10.996  0.3410  0.5917 -0.4425
 5722TIP3    H138657   2.819   4.382  10.993 -0.2530 -0.5157  1.2294
 5722TIP3    H238658   2.766   4.519  11.029  0.8227  0.1241  0.4131
 5723TIP3   OH238659   3.829   6.219   1.175  0.0134  0.2819 -0.0646
 5723TIP3    H138660   3.851   6.247   1.086 -0.0117 -0.6257 -0.3644
 5723TIP3    H238661   3.736   6.240   1.184  0.1207  0.7852 -0.0879
 5724TIP3   OH238662   6.265   1.238   4.826 -0.9709 -0.2930 -0.1218
 5724TIP3    H138663   6.209   1.283   4.890 -1.6231  0.3292 -1.0976
 5724TIP3    H238664   6.229   1.149   4.822  0.2668 -0.9407  1.7502
 5725TIP3   OH238665   0.343   0.630  15.966 -0.2604  0.6188 -0.0481
 5725TIP3    H138666   0.380   0.612  15.879 -0.3200 -1.2947  0.2714
 5725TIP3    H238667   0.418   0.652  16.020 -0.0211  0.1897 -0.2028
 5726TIP3   OH238668   4.810   5.682   1.828  0.3215 -0.1227 -0.1949
 5726TIP3    H138669   4.842   5.666   1.739  0.8856  0.6982 -0.1467
 5726TIP3    H238670   4.880   5.731   1.871  0.3555 -1.1045  0.9342
 5727TIP3   OH238671   3.083   0.588  11.957  0.7952 -0.6659  0.2504
 5727TIP3    H138672   3.162   0.630  11.922  0.1383 -0.2209 -0.7388
 5727TIP3    H238673   3.094   0.593  12.052  0.3873  2.4940  0.2239
 5728TIP3   OH238674   5.411   2.981   1.141 -0.7120 -0.1341  0.5277
 5728TIP3    H138675   5.456   2.962   1.224  3.9975 -1.5985 -2.0383
 5728TIP3    H238676   5.459   3.056   1.105 -2.2712  0.0848 -1.1922
 5729TIP3   OH238677   4.246   1.881   1.171 -0.3895 -0.3300  0.1980
 5729TIP3    H138678   4.177   1.942   1.146 -1.8081 -0.5100  3.1664
 5729TIP3    H238679   4.200   1.798   1.184  0.7726 -0.9878  0.1750
 5730TIP3   OH238680   4.129   2.021  11.992  0.3170  0.3036 -0.4982
 5730TIP3    H138681   4.128   1.927  12.008  0.0545 -0.1341 -2.7362
 5730TIP3    H238682   4.040   2.050  12.011  0.2354 -0.0291 -0.3779
 5731TIP3   OH238683   3.242   1.025   6.576  0.7836  0.7060 -0.1234
 5731TIP3    H138684   3.192   1.098   6.612  0.0029  1.7662 -3.0526
 5731TIP3    H238685   3.327   1.063   6.553  1.4798 -0.0852  1.0155
 5732TIP3   OH238686   5.311   5.312   4.962  0.4669  0.9108  0.3303
 5732TIP3    H138687   5.260   5.235   4.985  0.8783  0.2174 -1.0207
 5732TIP3    H238688   5.248   5.384   4.964  0.2608  0.7448  2.5017
 5733TIP3   OH238689   3.436   3.878   3.072  0.1555 -0.2638  0.7347
 5733TIP3    H138690   3.469   3.794   3.105  0.8037  0.7197  2.7568
 5733TIP3    H238691   3.341   3.874   3.088 -0.2235 -1.5154 -1.4245
 5734TIP3   OH238692   2.633   2.888   4.606  0.2782  0.0697  0.2269
 5734TIP3    H138693   2.718   2.930   4.618  0.5984 -0.6093  0.4235
 5734TIP3    H238694   2.616   2.843   4.689 -1.9343  3.0249  1.5479
 5735TIP3   OH238695   1.974   3.771  16.808  0.0801  0.0822 -0.6096
 5735TIP3    H138696   1.981   3.675  16.812 -0.2729 -0.0318 -2.1739
 5735TIP3    H238697   2.002   3.793  16.719  1.2406  1.5511  0.0768
 5736TIP3   OH238698   3.294   3.373   4.692 -0.2369  0.4763 -0.3312
 5736TIP3    H138699   3.352   3.344   4.621  1.0453  0.6751  0.5928
 5736TIP3    H238700   3.305   3.307   4.760 -0.9017  0.6689 -0.0301
 5737TIP3   OH238701   5.528   1.795  15.606  0.0027 -0.1369 -0.4529
 5737TIP3    H138702   5.619   1.796  15.574  0.7346  0.7090  1.4637
 5737TIP3    H238703   5.536   1.776  15.700 -1.5595  2.3822  0.2858
 5738TIP3   OH238704   3.621   4.788   5.661 -0.0153 -0.2939 -0.3239
 5738TIP3    H138705   3.657   4.713   5.614 -0.7271 -2.3969  2.2176
 5738TIP3    H238706   3.536   4.803   5.621  0.0732 -0.9515 -0.7723
 5739TIP3   OH238707   4.373   5.523   0.318 -0.2863  0.1275 -0.0578
 5739TIP3    H138708   4.447   5.575   0.287 -0.3878  0.9818  1.0740
 5739TIP3    H238709   4.300   5.549   0.262 -0.1812  0.7217  0.0752
 5740TIP3   OH238710   2.549   4.563   5.035 -0.4343 -0.5077  0.3013
 5740TIP3    H138711   2.556   4.475   5.072 -0.6867 -0.0724  1.4276
 5740TIP3    H238712   2.612   4.616   5.085  1.3337 -0.4820 -1.8392
 5741TIP3   OH238713   6.532   0.421   2.866 -0.0856 -0.2420 -0.7067
 5741TIP3    H138714   6.460   0.455   2.813  0.3592  2.2742  0.2024
 5741TIP3    H238715   6.603   0.406   2.804 -0.3833  0.2316 -1.1682
 5742TIP3   OH238716   3.805   5.331   5.317  0.1465 -0.4079  0.7423
 5742TIP3    H138717   3.833   5.422   5.330 -0.6072  0.1444 -1.1596
 5742TIP3    H238718   3.768   5.330   5.229  0.7640 -2.7300  0.4435
 5743TIP3   OH238719   0.875   6.599   1.598  0.4568 -0.5926  0.1184
 5743TIP3    H138720   0.814   6.534   1.633  1.0236 -1.3688 -0.3059
 5743TIP3    H238721   0.872   6.587   1.503 -0.1156  0.6298 -0.0408
 5744TIP3   OH238722   5.259   1.930  13.571  0.3804 -0.3938  0.0666
 5744TIP3    H138723   5.342   1.933  13.618 -0.1357 -1.2262  1.0684
 5744TIP3    H238724   5.237   1.837  13.567 -2.0566 -0.0477  2.6563
 5745TIP3   OH238725   6.402   5.120   4.320 -0.0693 -0.4271  0.1025
 5745TIP3    H138726   6.387   5.102   4.413 -0.4152 -1.4520 -0.1352
 5745TIP3    H238727   6.449   5.204   4.319 -2.4056  0.9929  1.0772
 5746TIP3   OH238728   1.975   6.684   1.807  0.4996 -0.4324  0.3303
 5746TIP3    H138729   1.961   6.722   1.720  0.7778 -0.2955  0.3432
 5746TIP3    H238730   2.068   6.662   1.809  0.6324  0.1288  0.8081
 5747TIP3   OH238731   1.695   4.639  14.472 -0.6473  0.3332  0.3436
 5747TIP3    H138732   1.624   4.666  14.414  0.9224 -0.6553 -2.1900
 5747TIP3    H238733   1.685   4.545  14.481  1.0330 -0.0496 -1.1804
 5748TIP3   OH238734   0.586   6.832  12.732 -0.0425  0.1589  0.7612
 5748TIP3    H138735   0.493   6.822  12.753  0.0013  2.5706  2.4244
 5748TIP3    H238736   0.624   6.875  12.808  1.9066  1.6992 -0.9522
 5749TIP3   OH238737   5.946   6.023   5.584  0.1130 -0.1759 -0.2028
 5749TIP3    H138738   5.881   5.967   5.626 -0.2659 -3.1457 -4.1507
 5749TIP3    H238739   5.894   6.086   5.534  0.2275 -1.1359 -1.5958
 5750TIP3   OH238740   2.647   5.212   1.097  0.3919 -0.1529 -0.1761
 5750TIP3    H138741   2.603   5.146   1.150 -1.4871  0.7316 -0.5528
 5750TIP3    H238742   2.702   5.260   1.159  0.5610 -1.0384  0.3773
 5751TIP3   OH238743   3.889   6.535   0.681 -0.9040  0.0703  0.0338
 5751TIP3    H138744   3.951   6.608   0.689 -1.1031  0.1945  0.5038
 5751TIP3    H238745   3.923   6.483   0.608  0.0754 -0.1668  0.6343
 5752TIP3   OH238746   2.947   2.215  12.517 -0.9442 -0.3601  0.6672
 5752TIP3    H138747   2.935   2.264  12.436 -1.7122 -0.7946  0.5110
 5752TIP3    H238748   3.034   2.240  12.547 -0.4737 -0.5234 -0.5111
 5753TIP3   OH238749   5.836   1.019  16.039 -0.2877 -0.2226 -0.2132
 5753TIP3    H138750   5.753   1.055  16.070 -0.3608  0.6275 -1.3332
 5753TIP3    H238751   5.901   1.084  16.064  0.2783 -1.4675  1.8012
 5754TIP3   OH238752   6.034   3.012  12.326 -0.8559 -0.1960  0.0559
 5754TIP3    H138753   6.080   2.954  12.386 -0.5616 -0.5222 -0.4709
 5754TIP3    H238754   5.990   2.953  12.264 -0.5472  0.1316 -0.4872
 5755TIP3   OH238755   2.317   2.746  12.311 -0.1436  0.1289 -0.5006
 5755TIP3    H138756   2.318   2.664  12.261  1.7633 -0.7906  0.9346
 5755TIP3    H238757   2.395   2.793  12.281  0.2794  0.1643  0.6077
 5756TIP3   OH238758   2.442   5.088   0.754 -0.2215  0.5797 -0.1266
 5756TIP3    H138759   2.470   5.022   0.817 -0.4636 -1.1407 -1.7453
 5756TIP3    H238760   2.390   5.150   0.805  0.4503 -0.1696  1.5363
 5757TIP3   OH238761   3.270   6.597  17.098  0.0975 -0.1775  0.8813
 5757TIP3    H138762   3.281   6.600  17.002 -3.0001 -1.3835  0.3849
 5757TIP3    H238763   3.342   6.650  17.131  1.8897 -0.5131 -2.0505
 5758TIP3   OH238764   2.237   1.161   5.666 -0.1677 -0.4618 -0.6289
 5758TIP3    H138765   2.325   1.131   5.645  0.0370 -0.7260  0.5420
 5758TIP3    H238766   2.226   1.241   5.614  1.0565 -0.0019 -0.2187
 5759TIP3   OH238767   0.768   4.129   5.772 -0.3158 -0.2191 -0.1367
 5759TIP3    H138768   0.831   4.165   5.834 -1.8224  2.4512 -0.0464
 5759TIP3    H238769   0.683   4.160   5.802 -1.3789 -1.0242 -2.0837
 5760TIP3   OH238770   0.155   0.950   1.740  0.7343 -0.0149  0.6671
 5760TIP3    H138771   0.219   0.924   1.673  0.6962  1.4449  0.0416
 5760TIP3    H238772   0.199   0.930   1.823  1.6551  0.1581  0.2365
 5761TIP3   OH238773   1.289   6.626  13.994 -0.3045 -0.2888 -0.9239
 5761TIP3    H138774   1.332   6.632  13.909  0.3863  0.3865 -0.5407
 5761TIP3    H238775   1.252   6.537  13.996  1.8274 -1.2274 -0.9117
 5762TIP3   OH238776   3.171   2.193   6.397 -0.0281  0.0305  0.2427
 5762TIP3    H138777   3.232   2.161   6.330 -0.2283 -0.8345  0.4528
 5762TIP3    H238778   3.228   2.228   6.466  0.4389 -2.9269  1.5477
 5763TIP3   OH238779   2.594   3.522  11.632  0.7654 -0.9775  0.1127
 5763TIP3    H138780   2.525   3.567  11.584 -0.9859 -3.6366 -0.1002
 5763TIP3    H238781   2.669   3.521  11.572 -0.5747 -2.0930 -1.6533
 5764TIP3   OH238782   5.987   2.268  11.985  0.1666 -0.3319 -0.0187
 5764TIP3    H138783   5.973   2.227  12.071  0.9988 -0.7031 -0.0427
 5764TIP3    H238784   6.075   2.306  11.992 -0.0795  0.3092 -0.4457
 5765TIP3   OH238785   3.730   4.541  11.228 -0.5178  0.2403 -0.5555
 5765TIP3    H138786   3.789   4.601  11.274 -1.5741 -0.0951  1.3433
 5765TIP3    H238787   3.672   4.598  11.177 -0.1562  0.7069 -0.4513
 5766TIP3   OH238788   0.127   3.310   0.584  0.0411  0.2113 -0.6303
 5766TIP3    H138789   0.199   3.297   0.522 -0.7512 -1.5997 -1.2529
 5766TIP3    H238790   0.120   3.226   0.631 -1.6084  0.3413 -0.5735
 5767TIP3   OH238791   5.726   3.687  12.367 -0.1792  0.0886  0.0553
 5767TIP3    H138792   5.731   3.628  12.442 -0.1175 -0.6313 -0.5058
 5767TIP3    H238793   5.643   3.734  12.378 -0.7251 -0.8464 -0.0417
 5768TIP3   OH238794   1.152   5.242  13.036 -0.4232 -0.0248 -0.1451
 5768TIP3    H138795   1.197   5.299  12.972 -3.1824 -0.2035 -2.4634
 5768TIP3    H238796   1.069   5.287  13.052 -0.9608 -1.4409  1.1490
 5769TIP3   OH238797   2.473   5.261  13.688 -0.5147  0.3303 -0.0157
 5769TIP3    H138798   2.452   5.303  13.771  1.6915 -1.5503  1.6304
 5769TIP3    H238799   2.491   5.170  13.711  0.6602 -0.1447 -2.4668
 5770TIP3   OH238800   6.568   0.039   2.169 -0.0570  0.4649  0.2222
 5770TIP3    H138801   6.502   0.040   2.100  1.2686 -3.4991 -1.3722
 5770TIP3    H238802   6.517   0.029   2.250 -1.4872  1.6079 -0.4751
 5771TIP3   OH238803   3.048   0.769   2.774 -0.5398  0.4946 -0.5213
 5771TIP3    H138804   2.966   0.727   2.749 -0.2888 -1.9316  2.1803
 5771TIP3    H238805   3.023   0.858   2.799 -2.6245 -0.4813  1.2289
 5772TIP3   OH238806   3.613   2.743   3.108  0.4565  0.4218 -0.4817
 5772TIP3    H138807   3.520   2.724   3.123  0.7044 -1.6544 -1.3638
 5772TIP3    H238808   3.613   2.811   3.041 -0.4110 -0.2101 -1.1361
 5773TIP3   OH238809   4.070   6.522  16.556  0.3212 -0.0410  0.5067
 5773TIP3    H138810   4.055   6.608  16.517  0.6560  0.1699  0.8385
 5773TIP3    H238811   4.115   6.472  16.488 -0.3995 -0.1542  0.0951
 5774TIP3   OH238812   5.593   4.363  14.802 -0.9133 -0.6206  0.3826
 5774TIP3    H138813   5.500   4.342  14.796 -0.8532 -0.4607 -2.3242
 5774TIP3    H238814   5.595   4.454  14.833 -1.5688 -1.0782  1.8276
 5775TIP3   OH238815   4.084   0.290   4.987  0.0711  0.1118  0.6541
 5775TIP3    H138816   4.023   0.311   5.058  0.6274 -2.6940  2.0998
 5775TIP3    H238817   4.074   0.196   4.974  2.5498 -0.0505 -0.5384
 5776TIP3   OH238818   3.657   1.312   0.768 -0.0307  0.2398  0.1728
 5776TIP3    H138819   3.654   1.407   0.773  0.6393  0.2884 -0.2256
 5776TIP3    H238820   3.607   1.282   0.844 -0.2741  0.9054  0.2784
 5777TIP3   OH238821   5.544   1.707   4.341  0.5742 -0.1587 -0.1725
 5777TIP3    H138822   5.559   1.798   4.316  0.4537 -0.3905 -1.1602
 5777TIP3    H238823   5.485   1.674   4.274  1.2937 -1.1929 -0.3211
 5778TIP3   OH238824   0.633   2.049   3.591 -0.0853  0.5279  0.1625
 5778TIP3    H138825   0.561   2.100   3.628 -0.6601 -1.5161  2.1429
 5778TIP3    H238826   0.592   1.968   3.560  0.9034  0.8094 -2.0991
 5779TIP3   OH238827   1.580   1.902  14.414  0.4711  0.6579  0.4751
 5779TIP3    H138828   1.628   1.984  14.404  2.3036 -0.5258 -1.3690
 5779TIP3    H238829   1.499   1.915  14.364  0.7891  1.3340  0.1226
 5780TIP3   OH238830   6.744   1.257   1.132  0.3869  0.0632  0.1678
 5780TIP3    H138831   6.694   1.224   1.057 -0.0927  0.1666  0.4313
 5780TIP3    H238832   6.746   1.352   1.118 -0.1289  0.1302  0.5371
 5781TIP3   OH238833   2.537   5.458   6.151 -0.6362 -0.2134  0.3192
 5781TIP3    H138834   2.452   5.493   6.177  0.0317  0.7451  1.3144
 5781TIP3    H238835   2.559   5.396   6.220 -0.2388  0.0329  0.4178
 5782TIP3   OH238836   1.225   4.900   1.802  0.2950  0.2868 -0.5697
 5782TIP3    H138837   1.187   4.978   1.843  2.0744  0.3454  1.1550
 5782TIP3    H238838   1.282   4.934   1.733  1.3210  0.5719  0.3947
 5783TIP3   OH238839   5.255   5.591   4.298 -0.0178 -0.0158  0.3212
 5783TIP3    H138840   5.349   5.571   4.290 -0.3053 -0.6494 -2.1548
 5783TIP3    H238841   5.253   5.677   4.340  1.6001 -0.5845  1.6991
 5784TIP3   OH238842   6.149   6.742   2.783 -0.4110 -0.5162 -0.4116
 5784TIP3    H138843   6.089   6.667   2.782 -0.7396 -0.2668 -2.0706
 5784TIP3    H238844   6.112   6.804   2.720 -0.2135  1.1323  1.0391
 5785TIP3   OH238845   0.346   1.744   0.764  0.0882  0.9036  0.4320
 5785TIP3    H138846   0.416   1.761   0.701  0.1557 -1.0032 -0.0590
 5785TIP3    H238847   0.391   1.738   0.848  0.4696  0.1665  0.1867
 5786TIP3   OH238848   1.244   6.381   0.270 -0.4400 -0.2830 -0.1847
 5786TIP3    H138849   1.195   6.453   0.231  1.1080  1.2049  0.4996
 5786TIP3    H238850   1.332   6.390   0.236 -0.0281 -1.4145  0.5044
 5787TIP3   OH238851   2.452   5.907  13.534  0.1344 -0.3259 -0.3965
 5787TIP3    H138852   2.503   5.828  13.551  0.3652 -0.0034  0.4456
 5787TIP3    H238853   2.514   5.979  13.548 -0.7357  0.1132  1.5651
 5788TIP3   OH238854   6.284   0.665  14.676  0.2632  0.4160 -0.3113
 5788TIP3    H138855   6.214   0.598  14.677 -1.3613  2.0355  0.6776
 5788TIP3    H238856   6.314   0.669  14.766  0.6416  0.7422 -0.4510
 5789TIP3   OH238857   1.228   0.360   2.104 -0.0590  0.5928  0.2402
 5789TIP3    H138858   1.273   0.295   2.050 -1.8245 -0.1406 -0.4396
 5789TIP3    H238859   1.179   0.308   2.167  0.9495  1.4110  1.7471
 5790TIP3   OH238860   2.145   6.052   3.140  0.4965  0.1579  0.1247
 5790TIP3    H138861   2.182   5.964   3.151  1.5802  0.5919  0.0218
 5790TIP3    H238862   2.060   6.037   3.099  0.4285 -0.8783  0.6128
 5791TIP3   OH238863   0.628   1.083  16.521  0.0049 -0.3243  0.3271
 5791TIP3    H138864   0.672   1.102  16.438 -0.3596  0.3949  0.2899
 5791TIP3    H238865   0.541   1.121  16.512  0.0682  0.0572  1.1588
 5792TIP3   OH238866   3.864   2.036   5.620 -0.3757 -0.0039  0.6298
 5792TIP3    H138867   3.894   2.002   5.704 -0.8671 -0.9378  0.4342
 5792TIP3    H238868   3.937   2.021   5.561 -0.8270 -1.3611  0.3882
 5793TIP3   OH238869   0.562   3.038  11.566  0.2410 -0.1669  0.6698
 5793TIP3    H138870   0.504   2.963  11.579  0.0608 -0.3894 -1.1671
 5793TIP3    H238871   0.549   3.092  11.644 -1.8518 -0.5920  0.6823
 5794TIP3   OH238872   0.077   0.516   5.601 -0.3671  0.4304  0.7648
 5794TIP3    H138873   0.079   0.518   5.696 -1.3180 -3.7756  1.0410
 5794TIP3    H238874  -0.004   0.561   5.577 -1.2076 -0.3344  2.0987
 5795TIP3   OH238875   3.751   6.390  13.110 -0.7244  0.2505 -0.5187
 5795TIP3    H138876   3.671   6.373  13.060 -1.2936  1.1507  0.0506
 5795TIP3    H238877   3.728   6.367  13.200  0.1894 -1.0509 -0.5797
 5796TIP3   OH238878   2.167   0.402   4.177 -0.2953 -0.0495 -0.5743
 5796TIP3    H138879   2.119   0.330   4.218 -0.5280  0.6404  0.4114
 5796TIP3    H238880   2.259   0.378   4.189 -0.2824  1.0198  2.1484
 5797TIP3   OH238881   4.538   3.034  16.584 -0.0194 -0.2284  0.2549
 5797TIP3    H138882   4.518   3.126  16.603  0.0899 -0.0571 -0.4334
 5797TIP3    H238883   4.625   3.021  16.622 -0.8966 -0.6765  2.2946
 5798TIP3   OH238884   4.442   2.817  12.457  0.7279 -0.1924 -0.3365
 5798TIP3    H138885   4.398   2.742  12.418  0.8523  0.2958 -1.4616
 5798TIP3    H238886   4.426   2.889  12.395  1.2519  0.5187  0.3327
 5799TIP3   OH238887   5.179   3.019   2.091 -0.0737 -0.4566  0.5854
 5799TIP3    H138888   5.268   3.055   2.095 -0.7138  1.4020 -0.6040
 5799TIP3    H238889   5.131   3.065   2.160 -0.9339  1.2531 -1.0398
 5800TIP3   OH238890   6.253   4.138  13.740  0.1722 -0.1425 -0.3758
 5800TIP3    H138891   6.192   4.064  13.738  0.4891 -0.4075 -0.3423
 5800TIP3    H238892   6.340   4.098  13.736  0.4116  0.1377  1.2160
 5801TIP3   OH238893   6.710   4.320   3.672  0.5770 -0.4199  0.7815
 5801TIP3    H138894   6.748   4.374   3.603 -1.2616  0.2982  0.2697
 5801TIP3    H238895   6.779   4.258   3.695  1.5834 -0.0255 -0.9947
 5802TIP3   OH238896   5.891   3.346   6.265 -0.4619  0.4710 -0.1239
 5802TIP3    H138897   5.979   3.380   6.281  0.4153 -0.7939 -1.8448
 5802TIP3    H238898   5.835   3.395   6.325  1.2500  2.0861  0.2634
 5803TIP3   OH238899   4.063   1.848  16.033  0.5270  0.2120  0.1076
 5803TIP3    H138900   4.029   1.881  16.117  1.7172  0.4098  0.5328
 5803TIP3    H238901   4.104   1.765  16.055  0.6785  0.1755 -0.3122
 5804TIP3   OH238902   0.642   2.002   3.207  0.1173 -0.2860 -0.7371
 5804TIP3    H138903   0.728   2.043   3.215  0.9853 -1.8796 -1.5390
 5804TIP3    H238904   0.644   1.929   3.268 -0.3606 -0.8092 -1.3320
 5805TIP3   OH238905   4.229   1.052  15.500 -0.4012  0.0124 -0.8138
 5805TIP3    H138906   4.185   0.985  15.447  0.3975 -1.1518 -0.0468
 5805TIP3    H238907   4.281   1.101  15.436  0.3772 -1.2309 -1.1781
 5806TIP3   OH238908   5.723   5.685  17.158 -0.4326 -0.4144 -0.1689
 5806TIP3    H138909   5.783   5.716  17.090 -0.2346  1.2595  0.7180
 5806TIP3    H238910   5.764   5.606  17.193  1.5906  0.9631  0.7595
 5807TIP3   OH238911   1.578   5.731  13.082  0.0355 -0.0119  0.2761
 5807TIP3    H138912   1.669   5.714  13.059 -0.2674 -1.7537  0.1765
 5807TIP3    H238913   1.572   5.706  13.174 -0.9267 -2.7521 -0.4388
 5808TIP3   OH238914   2.861   0.842   1.871  0.3574 -0.6678  0.2589
 5808TIP3    H138915   2.861   0.818   1.964  0.2266 -2.5597 -0.1737
 5808TIP3    H238916   2.791   0.789   1.833 -0.5792  1.1719 -0.6990
 5809TIP3   OH238917   1.627   2.060  13.356 -0.1835  0.0086 -0.2215
 5809TIP3    H138918   1.562   2.124  13.326  0.2781  0.4472 -0.3071
 5809TIP3    H238919   1.702   2.113  13.384  0.9250 -0.5450 -1.9771
 5810TIP3   OH238920   1.681   0.008   3.792 -0.0618  0.8131 -0.2378
 5810TIP3    H138921   1.651  -0.077   3.759  0.7118 -1.0415  3.2792
 5810TIP3    H238922   1.776  -0.003   3.802 -0.2005  1.2848  2.1615
 5811TIP3   OH238923   6.402   3.544  14.972  0.0627 -0.2495  0.2785
 5811TIP3    H138924   6.447   3.628  14.972 -0.9476  0.3856  2.7626
 5811TIP3    H238925   6.311   3.565  14.995 -0.3798 -1.9630  0.2688
 5812TIP3   OH238926   4.922   3.169   1.196 -0.0783 -0.6489  0.5627
 5812TIP3    H138927   4.935   3.179   1.102 -1.4345 -2.7361  0.0783
 5812TIP3    H238928   4.928   3.074   1.211  0.2679 -0.3616  2.6124
 5813TIP3   OH238929   1.381   3.591   3.830 -0.3820 -0.0114  0.0812
 5813TIP3    H138930   1.460   3.605   3.778 -0.4913  1.4434  0.2723
 5813TIP3    H238931   1.309   3.617   3.772 -0.6844 -0.6473  0.1575
 5814TIP3   OH238932   1.795   3.365  13.151  0.2390  0.0343 -0.1208
 5814TIP3    H138933   1.721   3.422  13.133 -0.3754 -0.5903  0.3643
 5814TIP3    H238934   1.781   3.289  13.094  0.4983 -0.1017 -0.0062
 5815TIP3   OH238935   6.298   1.153  13.170  0.4689  0.2386  0.0494
 5815TIP3    H138936   6.382   1.177  13.209 -0.5233 -1.1539  3.3594
 5815TIP3    H238937   6.238   1.222  13.198  0.1521  0.4017 -0.9872
 5816TIP3   OH238938   6.248   4.170  12.792  0.1055 -0.0911 -0.1704
 5816TIP3    H138939   6.247   4.253  12.838  0.4622 -0.3256  0.2673
 5816TIP3    H238940   6.222   4.105  12.857  1.2391 -0.5102 -0.1035
 5817TIP3   OH238941   2.097   3.993  16.209  0.4390 -0.3733 -0.2634
 5817TIP3    H138942   2.105   4.068  16.150  0.0087 -1.3277 -1.5752
 5817TIP3    H238943   2.100   3.916  16.151 -0.0295 -1.3413  0.9577
 5818TIP3   OH238944   4.119   1.547   1.657  0.8932  0.2197  0.3506
 5818TIP3    H138945   4.185   1.483   1.682 -0.1445 -0.7643  0.7004
 5818TIP3    H238946   4.166   1.629   1.647  2.2200 -0.5410  0.1675
 5819TIP3   OH238947   2.489   1.841  16.649 -0.1201 -0.0926  0.3255
 5819TIP3    H138948   2.522   1.917  16.600 -1.1812  0.3210  0.2200
 5819TIP3    H238949   2.523   1.852  16.737 -0.8384  0.8909  0.4887
 5820TIP3   OH238950   4.397   0.635  12.649 -0.7587 -0.3851 -0.0839
 5820TIP3    H138951   4.389   0.645  12.743  0.1452  0.9275 -0.1147
 5820TIP3    H238952   4.348   0.555  12.628 -0.5374 -0.9702  1.5460
 5821TIP3   OH238953   5.391   3.976   1.502  0.2762  0.0889 -0.0143
 5821TIP3    H138954   5.351   3.920   1.569 -1.5124  2.4852  1.0830
 5821TIP3    H238955   5.364   3.935   1.419  0.1454 -1.3804  0.7094
 5822TIP3   OH238956   3.807   3.380   2.962  0.1593  0.0401  0.0095
 5822TIP3    H138957   3.768   3.446   2.904  0.1889  0.1674  0.1322
 5822TIP3    H238958   3.880   3.344   2.911  1.2616  1.3490  0.5816
 5823TIP3   OH238959   3.405   1.293  16.387 -0.5149  0.0840 -0.0468
 5823TIP3    H138960   3.328   1.317  16.336  0.3421  0.4310 -1.2378
 5823TIP3    H238961   3.465   1.366  16.376 -0.6990  0.6740  2.4181
 5824TIP3   OH238962   1.657   6.383  11.659 -0.6272  0.3299 -0.1879
 5824TIP3    H138963   1.647   6.472  11.627 -0.1227  0.0342 -1.2048
 5824TIP3    H238964   1.719   6.391  11.732  0.3313  0.6644 -1.0207
 5825TIP3   OH238965   6.650   1.620  14.902  0.3169  0.6239  0.7220
 5825TIP3    H138966   6.590   1.690  14.879 -0.7030 -0.3283  0.4146
 5825TIP3    H238967   6.672   1.579  14.818 -1.0624 -0.9691  1.0777
 5826TIP3   OH238968   3.846   3.296  12.821  0.3651 -0.2371  0.5960
 5826TIP3    H138969   3.938   3.321  12.827  0.7208 -1.4415  0.4647
 5826TIP3    H238970   3.821   3.319  12.731  0.2945  0.8075  0.8620
 5827TIP3   OH238971   0.103   5.309  15.298 -0.4254  0.1637  0.2127
 5827TIP3    H138972   0.038   5.375  15.325 -0.0220  0.0847  1.4146
 5827TIP3    H238973   0.161   5.300  15.374 -0.8811 -2.1038  0.3593
 5828TIP3   OH238974   1.528   4.686  11.207  0.1179 -0.5618  0.2707
 5828TIP3    H138975   1.509   4.601  11.245  0.3960 -0.4313  0.7016
 5828TIP3    H238976   1.579   4.732  11.274  0.5084 -0.2880 -0.2083
 5829TIP3   OH238977   3.821   5.739   6.389  0.1326 -0.3176  0.5060
 5829TIP3    H138978   3.820   5.695   6.304 -1.1472 -1.2503  0.9825
 5829TIP3    H238979   3.888   5.692   6.439  3.6915  2.5448 -1.0647
 5830TIP3   OH238980   2.469   5.455  13.445 -0.2918  0.1923  0.1658
 5830TIP3    H138981   2.378   5.472  13.469 -0.6806 -2.5076  0.9839
 5830TIP3    H238982   2.506   5.410  13.522  0.4435 -2.5616 -1.6280
 5831TIP3   OH238983   3.512   4.249   1.237 -0.0848  0.6308  0.1585
 5831TIP3    H138984   3.562   4.167   1.229 -1.0578  0.1919 -2.0523
 5831TIP3    H238985   3.576   4.313   1.267  1.5076 -0.2103 -1.2847
 5832TIP3   OH238986   5.717   2.018   0.363 -0.1619 -0.4450  0.3336
 5832TIP3    H138987   5.798   2.058   0.394  0.3190 -1.1889  0.0785
 5832TIP3    H238988   5.728   2.008   0.269  0.2222 -2.1777  0.5178
 5833TIP3   OH238989   2.694   3.751  11.032  0.0481  0.4805  0.0663
 5833TIP3    H138990   2.602   3.777  11.042  0.5596  2.2274  0.7254
 5833TIP3    H238991   2.697   3.661  11.063 -1.0427  1.1848  2.4680
 5834TIP3   OH238992   4.781   6.549  12.623 -0.4169  0.0818  0.3198
 5834TIP3    H138993   4.875   6.549  12.642 -0.3740 -2.3492  0.3204
 5834TIP3    H238994   4.777   6.569  12.529  0.2633 -1.6488 -0.1159
 5835TIP3   OH238995   5.997   0.780   5.458 -0.3492  0.4058  0.5191
 5835TIP3    H138996   5.956   0.864   5.479 -0.9257 -0.1363  1.6645
 5835TIP3    H238997   5.946   0.746   5.384  2.0744  2.6117 -2.4265
 5836TIP3   OH238998   5.647   1.039  10.049  0.3216 -0.0871 -0.1641
 5836TIP3    H138999   5.683   1.121  10.083  1.3831 -1.3179  1.8220
 5836TIP3    H239000   5.717   1.003   9.995  0.3498 -0.3487  0.0521
 5837TIP3   OH239001   3.988   1.820  12.220 -0.1208 -0.4769 -0.0339
 5837TIP3    H139002   3.993   1.807  12.126  1.7812  0.8575 -0.1817
 5837TIP3    H239003   3.907   1.870  12.234 -0.5908 -0.9906 -0.9103
 5838TIP3   OH239004   2.415   3.555   5.668  0.3050  0.2129  0.6265
 5838TIP3    H139005   2.453   3.632   5.711 -0.5255  0.9250  0.1143
 5838TIP3    H239006   2.472   3.539   5.593  1.2510 -0.5012  1.4727
 5839TIP3   OH239007   6.767   2.728   0.413 -0.3705  0.3449  0.7025
 5839TIP3    H139008   6.740   2.771   0.494 -2.3098  0.3202  0.1217
 5839TIP3    H239009   6.703   2.757   0.348  2.4194  2.2656 -1.4683
 5840TIP3   OH239010   1.508   4.097  15.939  0.2321 -0.5415 -0.2008
 5840TIP3    H139011   1.510   4.004  15.915  4.0928 -0.9028  0.8725
 5840TIP3    H239012   1.523   4.098  16.033  0.3626  1.1843 -0.2129
 5841TIP3   OH239013   6.527   1.346  14.543 -0.1542 -0.1684 -0.0232
 5841TIP3    H139014   6.463   1.358  14.473  0.7127 -1.5084 -1.1154
 5841TIP3    H239015   6.515   1.256  14.571  0.9929 -0.3344 -0.0143
 5842TIP3   OH239016   1.469   1.451   3.978 -0.3036  0.1237 -0.6105
 5842TIP3    H139017   1.463   1.535   4.023 -1.9810 -0.8040  1.0034
 5842TIP3    H239018   1.383   1.440   3.936 -0.6674 -1.4448  0.4816
 5843TIP3   OH239019   5.178   2.885  11.618  1.0131  0.6482 -0.1373
 5843TIP3    H139020   5.172   2.873  11.523  1.0582  0.7526 -0.1535
 5843TIP3    H239021   5.259   2.840  11.642 -0.8246 -2.7098  0.3968
 5844TIP3   OH239022   1.332   1.950  11.804 -0.3514  0.6906 -0.3215
 5844TIP3    H139023   1.380   2.033  11.808  0.9473 -0.0651  0.1862
 5844TIP3    H239024   1.378   1.899  11.737  0.0642 -0.3330  0.7063
 5845TIP3   OH239025   0.862   1.993   3.761 -0.1427  0.3182 -0.2887
 5845TIP3    H139026   0.780   1.991   3.712  0.0994 -2.8059 -0.7507
 5845TIP3    H239027   0.894   2.083   3.750 -3.9977  2.0589  0.8997
 5846TIP3   OH239028   2.048   0.999  12.543 -0.1515 -0.7281  0.2939
 5846TIP3    H139029   2.062   1.056  12.619  0.6496 -2.0767  1.2197
 5846TIP3    H239030   2.061   1.055  12.468  1.8807  0.0847  1.1673
 5847TIP3   OH239031   6.209   0.941  11.091  0.1124 -0.0217  0.4525
 5847TIP3    H139032   6.244   0.969  11.175 -0.2639  1.1296  0.2501
 5847TIP3    H239033   6.273   0.878  11.058  0.8695  0.4140  1.0572
 5848TIP3   OH239034   1.704   3.204   4.957  0.5180 -0.0026  0.8357
 5848TIP3    H139035   1.637   3.188   5.023 -0.7187 -1.2119 -0.6394
 5848TIP3    H239036   1.719   3.298   4.960 -0.2019  0.0945  2.1633
 5849TIP3   OH239037   2.323   0.952  12.074  0.1557 -0.7648  0.1031
 5849TIP3    H139038   2.231   0.955  12.048 -0.5655 -1.0625  2.3886
 5849TIP3    H239039   2.366   0.900  12.005 -1.1537  0.2387 -1.5393
 5850TIP3   OH239040   5.349   5.530  13.944  0.2812 -0.5440  0.2792
 5850TIP3    H139041   5.272   5.486  13.908  0.9131 -0.5697 -1.1282
 5850TIP3    H239042   5.313   5.598  14.000 -0.7858 -0.4122 -0.5218
 5851TIP3   OH239043   5.652   0.037  16.569 -0.3047  0.2279 -0.1588
 5851TIP3    H139044   5.605   0.118  16.549  1.1355  0.6303 -2.2000
 5851TIP3    H239045   5.636  -0.020  16.494 -0.8308 -1.2209  0.9871
 5852TIP3   OH239046   6.053   5.384   2.128 -0.2395 -0.0486  1.1142
 5852TIP3    H139047   5.984   5.380   2.195 -1.4037 -0.9039 -0.0746
 5852TIP3    H239048   6.023   5.325   2.059  2.1099 -1.1211  0.9043
 5853TIP3   OH239049   1.231   4.130   2.695 -0.9748  0.4058  0.4702
 5853TIP3    H139050   1.315   4.119   2.739 -0.2501 -0.9450 -1.1496
 5853TIP3    H239051   1.191   4.206   2.738  0.8884  0.8340  1.5442
 5854TIP3   OH239052   1.142   6.017   6.736  0.2987 -0.0488  0.3507
 5854TIP3    H139053   1.072   6.071   6.772  0.9491  0.8371  0.3021
 5854TIP3    H239054   1.216   6.076   6.725  0.5042 -0.5516 -1.3244
 5855TIP3   OH239055   0.346   3.933  16.391  0.6866  0.1890 -0.1679
 5855TIP3    H139056   0.310   3.846  16.410 -0.3285  0.7070  0.4117
 5855TIP3    H239057   0.441   3.920  16.387  0.4641 -1.7907 -4.6374
 5856TIP3   OH239058   5.228   5.400  10.786  0.3163  0.3625 -0.3413
 5856TIP3    H139059   5.169   5.476  10.781 -0.0304  0.1412  0.2496
 5856TIP3    H239060   5.314   5.438  10.799  0.4101  0.7149 -1.8551
 5857TIP3   OH239061   3.444   4.629  16.775 -0.0122 -0.2271  0.0313
 5857TIP3    H139062   3.539   4.632  16.782  0.0094  1.2532 -0.5110
 5857TIP3    H239063   3.427   4.561  16.710  0.6672 -0.6034  0.2431
 5858TIP3   OH239064   3.771   2.702  11.541  0.1275 -0.0973 -0.3262
 5858TIP3    H139065   3.691   2.733  11.582 -0.3233 -0.5515 -0.8502
 5858TIP3    H239066   3.765   2.730  11.450  0.3880 -0.4476 -0.4584
 5859TIP3   OH239067   1.728   3.467  14.713 -0.0639 -0.2064  0.6011
 5859TIP3    H139068   1.641   3.428  14.725 -0.5635  0.3603 -0.9781
 5859TIP3    H239069   1.771   3.454  14.797 -1.3550 -1.3015  1.1357
 5860TIP3   OH239070   3.344   4.043   4.965  0.6771  0.6309 -0.6350
 5860TIP3    H139071   3.294   4.105   4.910 -1.4780 -0.2488  0.2081
 5860TIP3    H239072   3.430   4.040   4.925  0.2840  2.7351 -1.8299
 5861TIP3   OH239073   1.870   0.342  14.390  0.2346 -0.1833  0.5076
 5861TIP3    H139074   1.901   0.390  14.314 -0.6026 -0.8693 -0.2915
 5861TIP3    H239075   1.831   0.262  14.354 -1.6709  0.2292  1.4968
 5862TIP3   OH239076   0.301   5.564  13.560 -0.3554  0.4028 -0.4197
 5862TIP3    H139077   0.301   5.659  13.566  0.3265  0.3468  0.7156
 5862TIP3    H239078   0.229   5.536  13.617 -1.2580  0.2585 -1.5857
 5863TIP3   OH239079   1.054   0.514   1.529  0.2283 -0.2115  0.2991
 5863TIP3    H139080   1.042   0.472   1.615 -0.6916 -0.8203 -0.1084
 5863TIP3    H239081   1.080   0.604   1.549 -0.4588 -0.2081  1.2269
 5864TIP3   OH239082   1.073   3.802  14.634 -0.8194  0.1593  0.5203
 5864TIP3    H139083   0.992   3.810  14.684 -0.9279 -2.1456  0.8271
 5864TIP3    H239084   1.142   3.816  14.699 -0.9513  0.8395  0.5243
 5865TIP3   OH239085   4.923   2.117   2.337  0.4245  0.5192  0.4745
 5865TIP3    H139086   4.986   2.078   2.276  0.3103  1.2564 -0.1441
 5865TIP3    H239087   4.930   2.211   2.320  2.0535  0.9941  3.2148
 5866TIP3   OH239088   5.788   0.313  13.167 -0.0955 -0.4616 -0.1173
 5866TIP3    H139089   5.704   0.276  13.140  0.1659 -1.2371  0.0895
 5866TIP3    H239090   5.836   0.238  13.202  0.7764 -0.0708 -0.4596
 5867TIP3   OH239091   5.539   1.407  11.762 -0.5191 -0.1984  0.5601
 5867TIP3    H139092   5.605   1.339  11.777  0.9272  1.3827  1.7111
 5867TIP3    H239093   5.579   1.466  11.698 -0.3724  1.2908  1.9670
 5868TIP3   OH239094   0.712   0.961   2.499  0.4995 -0.2714 -0.5311
 5868TIP3    H139095   0.779   1.025   2.521 -0.1998  0.5966 -0.8787
 5868TIP3    H239096   0.761   0.884   2.469  1.3508  0.0351  0.0497
 5869TIP3   OH239097   1.853   0.321  16.759  0.0299 -0.3874  0.3450
 5869TIP3    H139098   1.832   0.261  16.688  0.1541  0.7211 -0.6430
 5869TIP3    H239099   1.790   0.299  16.828 -1.6060  0.0200 -0.9637
 5870TIP3   OH239100   6.360   2.241  10.515  0.2742 -0.1346 -0.1453
 5870TIP3    H139101   6.304   2.288  10.454  0.8709  0.5669 -0.1771
 5870TIP3    H239102   6.369   2.301  10.590  0.4324 -0.5210  0.1503
 5871TIP3   OH239103   5.263   2.136  16.575  0.2319 -0.3085 -0.2137
 5871TIP3    H139104   5.313   2.087  16.508 -0.1368 -2.0808  0.7463
 5871TIP3    H239105   5.330   2.170  16.634  0.6924  2.5973 -2.2202
 5872TIP3   OH239106   4.896   1.284   5.808  0.7063 -0.1054 -0.1602
 5872TIP3    H139107   4.880   1.230   5.730  0.6998 -0.1684 -0.1159
 5872TIP3    H239108   4.826   1.259   5.869  0.4098  0.3142 -0.3266
 5873TIP3   OH239109   5.006   5.652  12.202  0.7084 -0.1487  0.4337
 5873TIP3    H139110   4.998   5.559  12.219 -3.5901 -0.0093  0.1598
 5873TIP3    H239111   5.086   5.678  12.247  1.8253 -3.8216  0.8707
 5874TIP3   OH239112   4.983   3.535   1.506 -0.0025 -0.0422 -0.0668
 5874TIP3    H139113   5.067   3.554   1.548 -0.0613  1.6565 -0.6590
 5874TIP3    H239114   4.940   3.474   1.566  2.0715 -1.8536 -0.2806
 5875TIP3   OH239115   1.487   0.238   5.948  0.1995  0.3238  0.1350
 5875TIP3    H139116   1.481   0.147   5.975 -1.9227  0.0172 -1.0761
 5875TIP3    H239117   1.541   0.236   5.869 -0.6879 -0.0665 -0.4780
 5876TIP3   OH239118   5.135   6.550   2.677 -0.1068  0.1125  0.0774
 5876TIP3    H139119   5.190   6.587   2.608 -0.6007 -1.6180 -1.3233
 5876TIP3    H239120   5.193   6.490   2.724 -0.3499 -0.5036 -0.3858
 5877TIP3   OH239121   0.177   3.609  15.842  0.3309  0.4539  0.6316
 5877TIP3    H139122   0.222   3.692  15.855 -0.0789  0.7895 -0.0204
 5877TIP3    H239123   0.173   3.599  15.746 -2.2938  1.1806  0.5812
 5878TIP3   OH239124   2.407   0.020   4.959  0.1608 -0.4771  0.1294
 5878TIP3    H139125   2.416   0.038   4.865  0.7515  3.4128  0.7638
 5878TIP3    H239126   2.328  -0.033   4.966 -1.8298  1.8711 -2.3735
 5879TIP3   OH239127   6.682   5.938  16.326  0.4032  0.4376  0.0604
 5879TIP3    H139128   6.664   5.845  16.322  2.3375 -0.2252  3.4314
 5879TIP3    H239129   6.611   5.975  16.378 -0.3658  0.9193 -1.2770
 5880TIP3   OH239130   1.997   4.171  11.200 -0.2255  0.3889 -0.0343
 5880TIP3    H139131   2.087   4.177  11.233 -0.5799 -0.7679  1.2250
 5880TIP3    H239132   1.997   4.225  11.121  1.6403  0.1985 -0.2099
 5881TIP3   OH239133   3.441   3.719  16.931  0.0518  0.3960 -0.2490
 5881TIP3    H139134   3.490   3.799  16.949 -0.8975  0.8997  0.1847
 5881TIP3    H239135   3.447   3.708  16.836  2.8116 -0.7830 -0.0282
 5882TIP3   OH239136   2.328   6.513   4.118 -0.4413 -0.1301 -0.0847
 5882TIP3    H139137   2.417   6.545   4.105 -0.6542  0.3941 -0.2646
 5882TIP3    H239138   2.334   6.419   4.104 -0.3867  0.1906 -2.7286
 5883TIP3   OH239139   2.662   4.911   4.112  0.0436  0.5247  0.0543
 5883TIP3    H139140   2.591   4.847   4.107  0.9828 -0.4528 -1.9521
 5883TIP3    H239141   2.618   4.996   4.111 -1.2028 -0.0220  2.1622
 5884TIP3   OH239142   1.840   2.349  14.059 -0.3414 -0.2133 -0.3073
 5884TIP3    H139143   1.808   2.416  14.120  0.0279 -0.2367 -0.0836
 5884TIP3    H239144   1.777   2.278  14.066  0.1374 -0.5691  0.6868
 5885TIP3   OH239145   1.397   2.266   4.737  0.7410  0.3508  0.1942
 5885TIP3    H139146   1.345   2.311   4.671  1.4651  0.7164 -0.1358
 5885TIP3    H239147   1.482   2.310   4.735  0.5297  0.9023  1.9356
 5886TIP3   OH239148   6.722   2.251  16.894  0.1106  1.0886  0.1498
 5886TIP3    H139149   6.797   2.233  16.951  0.4890  0.3409 -0.5616
 5886TIP3    H239150   6.761   2.274  16.810 -0.4673  0.7531 -0.2151
 5887TIP3   OH239151   3.818   6.648  16.838 -0.6682 -0.3179  0.2173
 5887TIP3    H139152   3.779   6.631  16.924  1.6975  0.7589  1.6245
 5887TIP3    H239153   3.910   6.664  16.857 -0.1908  0.6407 -2.4844
 5888TIP3   OH239154   0.044   5.141  15.545  0.1773 -0.1618  0.1928
 5888TIP3    H139155   0.131   5.103  15.539  0.7612  1.3453 -1.7536
 5888TIP3    H239156   0.052   5.208  15.613  1.3010  1.6704 -1.6316
 5889TIP3   OH239157   0.636   6.104   1.829  0.1850 -0.3794 -0.0100
 5889TIP3    H139158   0.561   6.147   1.870  0.1423  0.4956 -0.9648
 5889TIP3    H239159   0.676   6.052   1.899 -0.4969  0.2410  0.8516
 5890TIP3   OH239160   3.761   3.340  16.223  0.1613  0.4775  0.0958
 5890TIP3    H139161   3.732   3.386  16.302  1.9553  1.4842  0.2424
 5890TIP3    H239162   3.813   3.405  16.176  1.2004 -0.8513 -0.6590
 5891TIP3   OH239163   5.725   5.985   0.230 -0.0611  0.3859 -0.4234
 5891TIP3    H139164   5.783   5.990   0.154 -0.5654  3.2412 -0.7244
 5891TIP3    H239165   5.745   6.064   0.281 -2.9016  0.9510 -0.0202
 5892TIP3   OH239166   2.927   1.291   1.046  0.7145 -0.1814  0.0051
 5892TIP3    H139167   2.918   1.384   1.028 -1.4696  0.1200  2.1678
 5892TIP3    H239168   3.020   1.279   1.067  1.1345  1.3636 -0.8719
 5893TIP3   OH239169   1.612   1.756   1.984  0.2347  0.2179 -0.1136
 5893TIP3    H139170   1.588   1.691   1.918 -0.0833  0.1569  0.0610
 5893TIP3    H239171   1.661   1.707   2.050  0.6528  0.3001 -0.3561
 5894TIP3   OH239172   4.606   0.078   5.049  0.0216 -0.0670  0.1625
 5894TIP3    H139173   4.573   0.153   4.999  2.0256  0.8627  0.1315
 5894TIP3    H239174   4.651   0.024   4.983  0.0309 -0.4305  0.4649
 5895TIP3   OH239175   5.898   1.537  13.176  0.0301  0.6909 -0.2215
 5895TIP3    H139176   5.813   1.573  13.199 -0.6329 -0.3680 -0.9224
 5895TIP3    H239177   5.886   1.442  13.180  1.8706  0.4781  2.0980
 5896TIP3   OH239178   1.267   0.399  11.170 -0.6130  0.1214 -0.2910
 5896TIP3    H139179   1.272   0.416  11.076 -1.0665 -0.8503 -0.5039
 5896TIP3    H239180   1.339   0.338  11.188  0.3331  1.3445  0.2652
 5897TIP3   OH239181   2.148   5.787   3.243  0.1871  0.7145  0.4593
 5897TIP3    H139182   2.075   5.745   3.288  0.6471  0.5638  1.0781
 5897TIP3    H239183   2.169   5.727   3.171  1.7666 -0.9112  2.1688
 5898TIP3   OH239184   1.349   2.610  16.896  0.5611 -0.1796 -0.3679
 5898TIP3    H139185   1.296   2.657  16.961  0.7376  1.7767 -1.5578
 5898TIP3    H239186   1.318   2.520  16.901 -0.7998  0.3190  1.0524
 5899TIP3   OH239187   0.239   5.321  16.984 -0.3110  0.4776 -0.0668
 5899TIP3    H139188   0.226   5.265  16.908 -0.1598  0.2067  0.1038
 5899TIP3    H239189   0.307   5.383  16.958  0.9013 -0.6162  0.3712
 5900TIP3   OH239190   1.176   5.622  16.294 -0.4475 -0.3155 -0.1386
 5900TIP3    H139191   1.191   5.628  16.199  1.1134 -0.3406  0.0659
 5900TIP3    H239192   1.173   5.713  16.323  0.9377 -0.2789 -0.0027
 5901TIP3   OH239193   3.408   6.777  14.668  0.6233 -0.2219 -0.4405
 5901TIP3    H139194   3.341   6.809  14.728  0.4112  0.1270 -0.8544
 5901TIP3    H239195   3.360   6.744  14.592  0.9274  1.7277 -1.5731
 5902TIP3   OH239196   4.362   6.812   2.249 -0.8304  0.1782  0.5914
 5902TIP3    H139197   4.298   6.882   2.263  0.3345  1.7547 -1.3760
 5902TIP3    H239198   4.352   6.789   2.156  0.9827  0.0494  0.3847
 5903TIP3   OH239199   2.262   3.344  16.338 -0.2238  0.4122  0.0169
 5903TIP3    H139200   2.357   3.350  16.344 -0.2882  0.4265  1.1693
 5903TIP3    H239201   2.235   3.427  16.298  0.1608  0.9021  0.7576
 5904TIP3   OH239202   6.243   4.661  14.344  0.1186 -0.6473 -0.7424
 5904TIP3    H139203   6.187   4.630  14.415  0.9569  1.2394  0.8320
 5904TIP3    H239204   6.188   4.722  14.295  0.1749 -0.3722 -0.4614
 5905TIP3   OH239205   5.723   0.712  13.999  0.2700  0.5882 -0.4091
 5905TIP3    H139206   5.694   0.753  14.081 -0.9667 -1.0198  0.0020
 5905TIP3    H239207   5.787   0.773  13.964  0.9060  1.2960  1.7950
 5906TIP3   OH239208   0.197   4.761   3.973 -0.4611  0.7959 -0.2073
 5906TIP3    H139209   0.102   4.770   3.969 -0.5523 -0.1708 -0.3427
 5906TIP3    H239210   0.213   4.701   4.045  0.0089  0.5115 -0.5395
 5907TIP3   OH239211   2.855   1.667  14.553  0.4299 -0.4370 -0.1293
 5907TIP3    H139212   2.764   1.697  14.562  0.6538  0.1273  0.2744
 5907TIP3    H239213   2.905   1.747  14.533  0.8083 -0.7794 -0.5911
 5908TIP3   OH239214   4.248   2.544  15.675  0.0195  0.4518  0.4519
 5908TIP3    H139215   4.252   2.449  15.688  1.5542  0.5825  1.2578
 5908TIP3    H239216   4.165   2.570  15.713  1.4737 -0.0624  4.4977
 5909TIP3   OH239217   2.943   0.359  14.899 -0.4100 -0.1849  0.0409
 5909TIP3    H139218   2.928   0.289  14.963 -1.1923 -0.3351 -0.2985
 5909TIP3    H239219   2.875   0.347  14.833  1.0755 -0.7507 -1.4622
 5910TIP3   OH239220   6.153   0.706  16.572  0.0947  0.3617 -0.4462
 5910TIP3    H139221   6.211   0.758  16.626 -0.9196  1.4053 -0.3277
 5910TIP3    H239222   6.103   0.770  16.521 -0.1541 -0.5419 -1.3870
 5911TIP3   OH239223   0.658   2.329  14.346 -0.2386  0.3536  1.2379
 5911TIP3    H139224   0.664   2.391  14.418 -1.8011  2.1342 -0.0604
 5911TIP3    H239225   0.564   2.316  14.333  0.0347 -1.1804  0.5341
 5912TIP3   OH239226   2.172   5.462   2.205  0.3804 -0.7665  0.1951
 5912TIP3    H139227   2.157   5.424   2.118 -1.9150 -1.1581  0.6925
 5912TIP3    H239228   2.090   5.506   2.226  1.0426 -0.3264  1.9936
 5913TIP3   OH239229   1.993   4.460   5.421 -0.0159 -0.0692 -0.0737
 5913TIP3    H139230   1.981   4.535   5.479  0.3634  1.0327 -1.3535
 5913TIP3    H239231   2.060   4.406   5.463 -1.9517 -0.9618  2.0453
 5914TIP3   OH239232   0.978   3.911  16.225  0.4944 -0.2812  0.1419
 5914TIP3    H139233   0.924   3.863  16.288 -0.9041 -0.9604 -1.4757
 5914TIP3    H239234   1.064   3.867  16.229  0.6323  0.0884  1.9516
 5915TIP3   OH239235   2.816   5.164   3.361 -0.1480  0.0588 -0.2604
 5915TIP3    H139236   2.784   5.231   3.421  1.3335  2.3905 -1.9294
 5915TIP3    H239237   2.742   5.147   3.302 -0.2908  0.8032 -0.2992
 5916TIP3   OH239238   4.759   0.525  13.050  0.0067 -0.4883  0.2767
 5916TIP3    H139239   4.702   0.487  13.117  0.9410  1.1017  2.0936
 5916TIP3    H239240   4.705   0.592  13.008 -0.1143 -0.4306  0.5234
 5917TIP3   OH239241   1.875   5.509   3.009  0.0247  0.1342 -0.0922
 5917TIP3    H139242   1.913   5.484   3.093  1.6445  0.4900 -0.6740
 5917TIP3    H239243   1.913   5.447   2.947 -0.5282  0.3758 -0.6793
 5918TIP3   OH239244   3.354   2.147   2.459 -0.4159 -0.5119  0.3536
 5918TIP3    H139245   3.286   2.193   2.508  0.3317  0.8710  0.1442
 5918TIP3    H239246   3.340   2.173   2.368 -1.7414 -2.9949 -0.2288
 5919TIP3   OH239247   5.632   2.409   5.610 -0.4189  0.4787  0.2794
 5919TIP3    H139248   5.573   2.484   5.612 -0.4467  0.4478  1.3493
 5919TIP3    H239249   5.709   2.438   5.660  0.1441  0.2516 -0.4413
 5920TIP3   OH239250   1.725   4.142  10.701  0.1501 -0.4631  0.2101
 5920TIP3    H139251   1.643   4.190  10.715 -0.9247 -1.1611 -2.9054
 5920TIP3    H239252   1.779   4.203  10.650  1.6085 -0.0582  2.1361
 5921TIP3   OH239253   6.451   1.785  13.937 -0.2625  0.5556 -0.2012
 5921TIP3    H139254   6.504   1.838  13.878 -0.7687 -1.0258 -2.2051
 5921TIP3    H239255   6.365   1.781  13.894 -0.5595 -0.8868  0.4764
 5922TIP3   OH239256   3.733   1.368  14.090  0.2384 -0.0481  0.1578
 5922TIP3    H139257   3.790   1.439  14.061 -1.1266  1.4531  0.9802
 5922TIP3    H239258   3.675   1.351  14.016 -0.9662  1.3698  0.7300
 5923TIP3   OH239259   4.571   2.351  12.541  0.0481  0.2955  0.1167
 5923TIP3    H139260   4.595   2.360  12.449  2.2481  1.2926  0.7401
 5923TIP3    H239261   4.643   2.391  12.589 -0.2526 -1.6476  2.3563
 5924TIP3   OH239262   3.870   5.919  13.818  0.2207 -0.5189 -0.6491
 5924TIP3    H139263   3.774   5.917  13.818  0.0774  0.4077  2.4948
 5924TIP3    H239264   3.892   6.011  13.836  1.8140 -0.4491 -2.5416
 5925TIP3   OH239265   1.116   0.295   4.739 -0.4180  0.3950  0.1766
 5925TIP3    H139266   1.038   0.263   4.784 -0.9101  1.6855  0.2964
 5925TIP3    H239267   1.130   0.233   4.667 -1.3768 -0.0282  0.3416
 5926TIP3   OH239268   1.884   5.259  13.862 -0.1970  0.2160  0.3509
 5926TIP3    H139269   1.849   5.178  13.825 -0.9031  0.8813 -0.5011
 5926TIP3    H239270   1.886   5.244  13.956 -3.2893  0.2661  0.5234
 5927TIP3   OH239271   5.082   4.180   2.130  0.0568 -0.6016 -0.1483
 5927TIP3    H139272   5.091   4.142   2.217 -1.9914 -1.2531 -0.1591
 5927TIP3    H239273   5.061   4.106   2.073  1.2904 -0.1731 -1.2074
 5928TIP3   OH239274   0.634   2.970   4.224 -0.6264 -0.0057  0.1301
 5928TIP3    H139275   0.711   2.914   4.233 -2.2668 -2.6703 -1.1880
 5928TIP3    H239276   0.580   2.950   4.301 -1.5232 -0.8212 -0.6763
 5929TIP3   OH239277   1.531   5.919  12.735 -0.1480 -0.0412 -0.2344
 5929TIP3    H139278   1.578   5.851  12.685 -1.1294 -1.4592  0.6840
 5929TIP3    H239279   1.496   5.978  12.669  0.7968 -0.3759 -1.0643
 5930TIP3   OH239280   0.126   0.800   4.584  0.0628 -0.4960  0.0990
 5930TIP3    H139281   0.075   0.769   4.658 -1.1774  1.1767 -0.0003
 5930TIP3    H239282   0.114   0.895   4.584  1.8649 -0.2122 -0.9207
 5931TIP3   OH239283   2.039   3.227  16.503  0.6861  0.1495 -0.5188
 5931TIP3    H139284   2.065   3.190  16.588  0.9846  2.7617  0.6373
 5931TIP3    H239285   2.121   3.246  16.459  0.6269  1.4510 -0.1104
 5932TIP3   OH239286   0.584   4.173   6.498  0.3403 -0.4118  0.0417
 5932TIP3    H139287   0.498   4.190   6.460  0.5113 -0.4579 -0.3706
 5932TIP3    H239288   0.575   4.198   6.590 -0.2842 -0.9902  0.1409
 5933TIP3   OH239289   6.554   1.636  13.097  0.4779 -0.0098 -0.6608
 5933TIP3    H139290   6.589   1.593  13.020  2.3083  0.6535 -0.2388
 5933TIP3    H239291   6.545   1.728  13.071  0.1412  0.0366 -0.3934
 5934TIP3   OH239292   2.202   2.781   2.875 -0.0767 -0.4958  0.0786
 5934TIP3    H139293   2.181   2.742   2.959  1.4651 -0.4193  0.5360
 5934TIP3    H239294   2.210   2.707   2.815 -0.8082 -0.5781  0.0743
 5935TIP3   OH239295   1.267   1.309   1.162  0.0004  0.5748  0.0512
 5935TIP3    H139296   1.222   1.280   1.241 -1.2880  0.9203 -0.5350
 5935TIP3    H239297   1.203   1.362   1.115  0.4355 -0.3179 -1.6439
 5936TIP3   OH239298   6.432   2.337  10.764  0.3681  0.5663  0.6893
 5936TIP3    H139299   6.394   2.418  10.730  1.5370  0.7034 -0.3512
 5936TIP3    H239300   6.514   2.365  10.806  0.5243 -0.0121  0.7725
 5937TIP3   OH239301   3.212   4.623   2.878  0.5874 -0.3366  0.3538
 5937TIP3    H139302   3.184   4.544   2.924  0.9250 -2.2178 -2.4673
 5937TIP3    H239303   3.137   4.683   2.884  0.6760 -0.3747  3.3680
 5938TIP3   OH239304   1.931   1.130  16.880  0.2477  0.1998  0.1770
 5938TIP3    H139305   1.970   1.122  16.792 -0.8053 -1.7451 -0.1563
 5938TIP3    H239306   1.993   1.185  16.928  1.8035 -0.2226 -1.2363
 5939TIP3   OH239307   1.036   2.490   2.251 -0.3845 -0.2047  0.3026
 5939TIP3    H139308   1.066   2.442   2.174  0.1150  0.7687 -0.1239
 5939TIP3    H239309   1.009   2.576   2.218  1.7270  1.0043  1.4090
 5940TIP3   OH239310   5.314   6.175   2.112  0.5155 -0.5836  0.8651
 5940TIP3    H139311   5.230   6.210   2.084  0.9434  3.0245  3.3230
 5940TIP3    H239312   5.367   6.173   2.033 -1.1454 -0.6224 -0.2968
 5941TIP3   OH239313   1.676   2.085   3.779  0.3725 -0.0588 -0.0724
 5941TIP3    H139314   1.694   2.090   3.873  0.9490  0.3287 -0.2035
 5941TIP3    H239315   1.592   2.039   3.774 -0.3645  1.1447  0.7025
 5942TIP3   OH239316   5.471   1.211  15.311  0.3921 -0.6954  0.2280
 5942TIP3    H139317   5.495   1.228  15.402  0.7547 -0.8464  0.1622
 5942TIP3    H239318   5.498   1.121  15.296  0.9211 -0.4682 -0.2197
 5943TIP3   OH239319   4.269   4.875  13.309 -0.0064  0.2313  0.2832
 5943TIP3    H139320   4.259   4.878  13.214 -0.4661  1.6789  0.3580
 5943TIP3    H239321   4.188   4.914  13.343  0.0699 -0.4501  1.2777
 5944TIP3   OH239322   5.460   0.495  13.053  0.3177 -0.0437  0.2289
 5944TIP3    H139323   5.403   0.487  13.129  0.6975 -1.8464  0.3681
 5944TIP3    H239324   5.484   0.588  13.050 -1.5868  0.5108  0.8865
 5945TIP3   OH239325   5.598   1.845   1.894 -0.2312  0.0730 -0.2873
 5945TIP3    H139326   5.676   1.822   1.946  0.0675  1.4013 -0.1227
 5945TIP3    H239327   5.606   1.791   1.815  2.2735  2.0174 -1.5013
 5946TIP3   OH239328   2.758   0.646   3.029  0.7310 -0.7202 -0.4874
 5946TIP3    H139329   2.770   0.701   2.951 -1.7447 -0.7321 -0.9656
 5946TIP3    H239330   2.817   0.571   3.015  0.7989 -0.4109 -2.0425
 5947TIP3   OH239331   5.820   3.525   5.276  0.3741 -0.4530  0.4392
 5947TIP3    H139332   5.891   3.491   5.331  2.5922  0.1429 -1.8717
 5947TIP3    H239333   5.814   3.461   5.205  2.0950  1.9380 -2.0216
 5948TIP3   OH239334   0.838   3.152   1.385 -0.2793  0.3520  0.1394
 5948TIP3    H139335   0.931   3.160   1.364 -0.7041  0.1121 -2.1253
 5948TIP3    H239336   0.823   3.058   1.395 -0.1740  0.4347  1.1879
 5949TIP3   OH239337   1.535   1.337   5.775  0.3564  0.3121 -0.3836
 5949TIP3    H139338   1.569   1.294   5.696  1.0660 -1.0958  0.6478
 5949TIP3    H239339   1.599   1.405   5.795  0.3203  0.4882 -0.8606
 5950TIP3   OH239340   3.292   2.501  15.541  0.2664 -0.2533  0.6776
 5950TIP3    H139341   3.216   2.444  15.546  0.9122 -1.1902  0.0085
 5950TIP3    H239342   3.356   2.452  15.489  0.3653  1.5862 -1.0829
 5951TIP3   OH239343   0.041   1.118  13.139 -0.7499  0.4554 -0.1755
 5951TIP3    H139344  -0.048   1.136  13.168  0.0453  1.3562  1.8805
 5951TIP3    H239345   0.095   1.183  13.185  0.8073  1.0829 -2.6822
 5952TIP3   OH239346   4.130   3.312  12.230 -0.2725 -0.1042 -0.3753
 5952TIP3    H139347   4.218   3.345  12.216 -0.8819  1.6983 -0.1951
 5952TIP3    H239348   4.095   3.365  12.302 -1.3647 -1.0488 -0.1800
 5953TIP3   OH239349   2.483   5.405  11.866 -0.3985  0.5633  0.3167
 5953TIP3    H139350   2.494   5.470  11.935 -1.5067  1.6823 -0.5140
 5953TIP3    H239351   2.392   5.414  11.839 -0.5374 -1.2644  0.0777
 5954TIP3   OH239352   2.711   1.440  11.519 -0.6145 -0.5012  0.0020
 5954TIP3    H139353   2.670   1.527  11.526  2.2047  0.9335 -0.0577
 5954TIP3    H239354   2.688   1.396  11.601 -0.2865  1.1661  1.0357
 5955TIP3   OH239355   4.315   6.115   0.617  0.4465  0.0729  0.1352
 5955TIP3    H139356   4.322   6.026   0.582  2.0991  0.3834 -0.4025
 5955TIP3    H239357   4.335   6.171   0.542  2.7790  0.7906  1.2044
 5956TIP3   OH239358   1.020   0.428   3.790 -0.0509  0.0154  0.3350
 5956TIP3    H139359   1.087   0.441   3.857  0.2923  0.8281 -0.1545
 5956TIP3    H239360   0.956   0.497   3.806 -0.1526 -0.0135  0.0570
 5957TIP3   OH239361   5.076   3.153  13.697 -0.2216  0.2425 -0.2961
 5957TIP3    H139362   5.058   3.215  13.767  1.0847  0.3241 -0.0198
 5957TIP3    H239363   5.157   3.183  13.657  2.2797 -2.9277  1.8469
 5958TIP3   OH239364   3.645   1.203   4.969 -0.1350  0.1074  0.1058
 5958TIP3    H139365   3.726   1.169   5.007  0.5671  1.0232 -0.5152
 5958TIP3    H239366   3.671   1.285   4.926 -1.8319  1.7507  1.9736
 5959TIP3   OH239367   6.293   6.760   4.373 -0.0838 -0.1565  0.5856
 5959TIP3    H139368   6.226   6.814   4.332  1.2096 -0.0642 -1.5303
 5959TIP3    H239369   6.294   6.679   4.321  0.0918 -0.9862  1.8364
 5960TIP3   OH239370   3.538   6.651  12.716 -1.0801 -0.0835  0.4381
 5960TIP3    H139371   3.502   6.605  12.640  1.2618 -1.7652  0.2392
 5960TIP3    H239372   3.586   6.725  12.678 -0.7158 -0.3639  0.3481
 5961TIP3   OH239373   0.581   4.796   1.437  0.0317  0.1368 -0.2459
 5961TIP3    H139374   0.588   4.701   1.448 -1.1522  0.1726  1.1003
 5961TIP3    H239375   0.544   4.808   1.349 -0.5273 -0.6899 -0.1321
 5962TIP3   OH239376   1.470   2.683  15.450  0.4304 -0.1229  0.3042
 5962TIP3    H139377   1.425   2.612  15.496  1.7129 -0.9519  0.3363
 5962TIP3    H239378   1.473   2.654  15.358 -1.9607  1.4414 -0.3721
 5963TIP3   OH239379   2.918   1.986   3.665  0.4922 -0.1589 -0.2543
 5963TIP3    H139380   2.896   1.894   3.675  0.3795 -0.1999 -0.8243
 5963TIP3    H239381   3.011   1.986   3.641  0.3471 -0.1628 -0.8330
 5964TIP3   OH239382   4.082   2.297  14.590 -0.6488  0.0660 -0.2346
 5964TIP3    H139383   4.087   2.258  14.677 -1.6579  0.4550  0.0081
 5964TIP3    H239384   4.173   2.313  14.566 -0.2725 -1.3469  0.1446
 5965TIP3   OH239385   2.614   6.403   5.305 -0.1096  0.0395  0.0988
 5965TIP3    H139386   2.556   6.328   5.291  0.5054 -0.7019  1.3047
 5965TIP3    H239387   2.557   6.479   5.296 -1.3604 -0.6676  1.4900
 5966TIP3   OH239388   5.800   0.702   2.787  0.3236  0.4457  0.0144
 5966TIP3    H139389   5.760   0.680   2.872  0.0231 -0.9574 -0.4559
 5966TIP3    H239390   5.732   0.681   2.723  0.6962  1.0954 -0.6057
 5967TIP3   OH239391   2.152   4.162   3.188  0.0934 -0.4563  0.6200
 5967TIP3    H139392   2.067   4.151   3.146  0.1881  0.5808  0.1272
 5967TIP3    H239393   2.131   4.192   3.277 -0.0629  0.7370  0.2033
 5968TIP3   OH239394   2.015   3.157   3.347 -0.6749  0.8955 -0.4357
 5968TIP3    H139395   1.998   3.197   3.432 -1.5099 -0.7173  0.2100
 5968TIP3    H239396   1.930   3.155   3.304 -0.3351  1.3055 -1.1520
 5969TIP3   OH239397   0.275   0.892  12.466  0.2881 -0.0669  0.1104
 5969TIP3    H139398   0.305   0.926  12.382  1.6089 -0.2626  0.4858
 5969TIP3    H239399   0.250   0.969  12.516  0.9076  0.1617  0.0661
 5970TIP3   OH239400   5.176   1.102  14.940 -0.1232  0.0298 -0.3794
 5970TIP3    H139401   5.082   1.107  14.953  0.0870  0.0866  1.4188
 5970TIP3    H239402   5.214   1.136  15.022  1.4776  1.6447 -1.7198
 5971TIP3   OH239403   2.248   6.340  16.414  0.0666  0.1538 -1.1808
 5971TIP3    H139404   2.263   6.350  16.508  1.5258 -2.4216 -1.0436
 5971TIP3    H239405   2.154   6.321  16.406 -0.2025  1.0868 -0.3483
 5972TIP3   OH239406   1.781   4.669  14.744  0.2008 -0.2212 -0.0147
 5972TIP3    H139407   1.827   4.753  14.754  0.8967 -0.4781 -0.9336
 5972TIP3    H239408   1.758   4.665  14.651 -1.8941 -0.0169  0.4246
 5973TIP3   OH239409   0.414   3.952  12.717  0.8422  0.1120 -0.1619
 5973TIP3    H139410   0.491   3.916  12.762  1.7904 -0.9461 -2.4883
 5973TIP3    H239411   0.393   4.031  12.766  3.1901  0.2332  0.7759
 5974TIP3   OH239412   0.896   6.367   2.620  0.1316  0.1316 -0.1861
 5974TIP3    H139413   0.869   6.276   2.611 -1.2897  0.5065  0.0512
 5974TIP3    H239414   0.942   6.370   2.705  0.5388 -0.4245 -0.3765
 5975TIP3   OH239415   6.556   0.563  11.215  0.2013 -0.3998 -0.2057
 5975TIP3    H139416   6.545   0.521  11.130 -3.1054 -2.1580  0.9144
 5975TIP3    H239417   6.550   0.492  11.279 -0.8401  1.1832  1.5893
 5976TIP3   OH239418   5.555   3.024  12.698  0.8338  0.0608  0.0771
 5976TIP3    H139419   5.528   3.109  12.734  0.3768  0.7134 -1.7000
 5976TIP3    H239420   5.579   2.972  12.774 -1.9388  0.6814  1.4744
 5977TIP3   OH239421   0.169   6.629  13.158 -0.6125  0.0260 -0.5106
 5977TIP3    H139422   0.255   6.592  13.137 -0.8088 -1.3787  0.9466
 5977TIP3    H239423   0.183   6.723  13.165  0.5950 -0.0877 -1.1945
 5978TIP3   OH239424   4.088   3.081   4.222  0.4050 -0.0750 -0.7229
 5978TIP3    H139425   4.039   3.128   4.289 -1.5257 -0.5842 -1.7062
 5978TIP3    H239426   4.089   3.141   4.147  2.5758  0.5089 -0.2934
 5979TIP3   OH239427   0.019   1.786   1.986 -0.2579  0.4328 -0.3118
 5979TIP3    H139428   0.002   1.869   2.032  1.3613  1.0024 -0.6836
 5979TIP3    H239429   0.045   1.726   2.055  0.3216  0.7605 -0.2323
 5980TIP3   OH239430   6.554   2.532   0.599  0.2520  0.8447 -0.3170
 5980TIP3    H139431   6.588   2.458   0.549 -1.1800  0.9122 -1.4550
 5980TIP3    H239432   6.585   2.609   0.552 -1.7346  0.9060 -1.6318
 5981TIP3   OH239433   6.054   3.188  13.975 -0.1364  0.7431 -0.1994
 5981TIP3    H139434   6.082   3.271  14.013 -3.2890  1.4150  0.9775
 5981TIP3    H239435   5.962   3.203  13.950 -0.2601 -1.8504 -1.6629
 5982TIP3   OH239436   3.913   1.764   1.523  0.0288 -0.1830 -0.0330
 5982TIP3    H139437   3.877   1.698   1.581 -1.7060  0.1056 -0.7118
 5982TIP3    H239438   3.997   1.728   1.494 -0.1867 -1.3836  0.7901
 5983TIP3   OH239439   5.983   6.305  15.825 -0.4793  0.4044  0.3746
 5983TIP3    H139440   6.004   6.295  15.918 -2.0698 -0.3603  0.6780
 5983TIP3    H239441   5.948   6.394  15.818  1.7426  1.3416  0.0303
 5984TIP3   OH239442   2.787   4.255   1.500 -0.3280  0.5291  0.1956
 5984TIP3    H139443   2.847   4.272   1.427  0.0384  1.9835  0.8064
 5984TIP3    H239444   2.813   4.169   1.532  0.7725  0.6987 -0.1918
 5985TIP3   OH239445   2.749   0.146   2.354 -0.2348  0.8640  0.1472
 5985TIP3    H139446   2.699   0.197   2.290 -1.1049  0.4974  0.5232
 5985TIP3    H239447   2.683   0.108   2.412  0.4701  0.2319  0.5558
 5986TIP3   OH239448   2.910   1.315   3.857 -0.3120  0.1659  0.0920
 5986TIP3    H139449   2.845   1.346   3.920  0.3919  2.8141 -0.3770
 5986TIP3    H239450   2.995   1.333   3.898  0.1439  0.3251 -0.8787
 5987TIP3   OH239451   0.480   3.252  17.118 -0.2629  0.3714  0.1185
 5987TIP3    H139452   0.435   3.336  17.112  1.0384  1.0109 -1.0411
 5987TIP3    H239453   0.409   3.187  17.120 -1.2813  1.4642  1.0130
 5988TIP3   OH239454   4.523   5.779  12.403  0.0536 -0.3780 -0.7268
 5988TIP3    H139455   4.496   5.829  12.325  2.0718 -1.2868 -2.0944
 5988TIP3    H239456   4.546   5.847  12.467 -1.0595  0.3979 -1.1097
 5989TIP3   OH239457   6.673   5.658   5.118  0.1733 -0.3267  0.0296
 5989TIP3    H139458   6.588   5.624   5.146  0.1107 -0.3627 -0.1998
 5989TIP3    H239459   6.705   5.594   5.055  0.0360  0.0546 -0.4370
 5990TIP3   OH239460   6.829   3.475  16.736  0.7556 -0.1175 -0.4786
 5990TIP3    H139461   6.783   3.421  16.800  1.0255  0.3588  0.1196
 5990TIP3    H239462   6.770   3.549  16.720  0.1283 -0.8544 -1.7252
 5991TIP3   OH239463   5.765   5.218  13.159 -0.1811  0.4839  0.4996
 5991TIP3    H139464   5.686   5.268  13.138 -1.7483 -1.3486  1.7634
 5991TIP3    H239465   5.786   5.244  13.249  1.5869  2.0243 -0.2729
 5992TIP3   OH239466   4.193   3.733   5.763 -0.5337 -0.5184  0.0227
 5992TIP3    H139467   4.227   3.807   5.712 -0.0829  1.0496  2.4042
 5992TIP3    H239468   4.105   3.762   5.790 -0.6706 -1.2071  0.3182
 5993TIP3   OH239469   6.283   3.427   3.154 -0.1813  0.3107  0.3909
 5993TIP3    H139470   6.310   3.481   3.229  3.2274 -1.9384  1.0432
 5993TIP3    H239471   6.220   3.365   3.191  0.7344 -0.1566  1.2297
 5994TIP3   OH239472   2.747   0.959  11.544 -0.1009  0.4082 -0.2266
 5994TIP3    H139473   2.709   1.046  11.560  0.3620  0.3547  1.3085
 5994TIP3    H239474   2.838   0.968  11.570  0.3157 -0.1635 -1.4419
 5995TIP3   OH239475   0.698   4.691  16.164 -0.4351  0.2323  0.0053
 5995TIP3    H139476   0.610   4.724  16.183 -1.0614 -0.1607 -1.9712
 5995TIP3    H239477   0.754   4.731  16.231 -2.0592  0.7226  1.1195
 5996TIP3   OH239478   5.815   6.331  12.995  0.3213 -0.2648 -0.2282
 5996TIP3    H139479   5.799   6.244  12.957  1.7361 -1.4394  1.6665
 5996TIP3    H239480   5.800   6.318  13.089  0.4778  1.5888  0.0827
 5997TIP3   OH239481   0.950   0.901  13.760 -0.2840 -0.0124 -0.7367
 5997TIP3    H139482   0.956   0.830  13.696 -1.1405  0.7643 -1.7145
 5997TIP3    H239483   1.034   0.947  13.753  0.8156 -1.6584  0.8466
 5998TIP3   OH239484   4.642   6.783  16.055 -0.0424  0.1031 -0.2076
 5998TIP3    H139485   4.594   6.770  16.137 -1.1927  0.3793 -0.8194
 5998TIP3    H239486   4.665   6.876  16.055 -1.6119  0.5293 -0.9926
 5999TIP3   OH239487   4.216   2.315   2.309  0.1977 -0.0977  0.0149
 5999TIP3    H139488   4.255   2.359   2.384  0.3304  0.1787 -0.2169
 5999TIP3    H239489   4.259   2.353   2.232 -1.7650  1.5398 -0.3596
 6000TIP3   OH239490   3.659   2.357  12.154 -0.4425 -0.1872 -0.0723
 6000TIP3    H139491   3.730   2.333  12.214  0.5888 -0.0057 -1.1826
 6000TIP3    H239492   3.596   2.404  12.209  0.6414  0.2884  0.8002
 6001TIP3   OH239493   4.805   4.841   5.866  0.1550 -0.1060 -0.4595
 6001TIP3    H139494   4.768   4.916   5.821  0.3113  1.8269  2.3836
 6001TIP3    H239495   4.733   4.806   5.919  1.0022  0.5061  1.1766
 6002TIP3   OH239496   4.949   2.797   0.796  0.1519 -0.0452  0.1290
 6002TIP3    H139497   5.037   2.801   0.833  0.5259  1.0793 -0.8043
 6002TIP3    H239498   4.893   2.832   0.865 -0.0126 -3.2018  1.7791
 6003TIP3   OH239499   6.396   6.052  13.613  0.4553  0.3376 -0.3050
 6003TIP3    H139500   6.331   6.004  13.563 -1.6955  4.1142 -1.5125
 6003TIP3    H239501   6.467   6.068  13.551 -0.3796  1.5722 -0.9675
 6004TIP3   OH239502   3.943   2.929  11.646  0.2012  0.1489 -0.2365
 6004TIP3    H139503   3.869   2.939  11.705 -0.3008 -0.0666 -0.8226
 6004TIP3    H239504   3.930   2.843  11.605 -0.3380  0.9636 -1.8588
 6005TIP3   OH239505   6.569   0.373  13.129  0.0900  0.0769  0.4530
 6005TIP3    H139506   6.487   0.402  13.089  0.1288  1.0785  1.0872
 6005TIP3    H239507   6.637   0.398  13.065 -0.1150 -1.1787 -0.2919
 6006TIP3   OH239508   3.409   4.383  12.793  0.6462  0.2667  0.4818
 6006TIP3    H139509   3.326   4.365  12.837  0.4293 -2.2198 -0.7829
 6006TIP3    H239510   3.385   4.438  12.718 -0.2931 -2.1567 -1.1093
 6007TIP3   OH239511   4.047   2.084   4.928 -0.1029  0.2081  0.5370
 6007TIP3    H139512   3.961   2.118   4.955 -0.9880 -1.4956 -0.0021
 6007TIP3    H239513   4.081   2.042   5.007 -1.3869 -2.1942 -0.0894
 6008TIP3   OH239514   6.229   3.959   2.557  0.3517  0.0718  0.1305
 6008TIP3    H139515   6.246   3.956   2.651  0.0816  1.7152  0.2574
 6008TIP3    H239516   6.204   3.869   2.535  2.0761 -0.7444  1.2715
 6009TIP3   OH239517   5.297   0.076   1.997 -0.4804 -0.5630 -0.3307
 6009TIP3    H139518   5.388   0.047   1.997 -0.1026  0.4726  1.1479
 6009TIP3    H239519   5.257   0.026   2.068 -0.4921  0.5445  0.4597
 6010TIP3   OH239520   1.738   0.529   0.488  0.1220 -0.4041  0.0549
 6010TIP3    H139521   1.642   0.529   0.494  0.1340  0.4668  0.3981
 6010TIP3    H239522   1.762   0.437   0.497 -0.6226 -0.5109  1.1291
 6011TIP3   OH239523   2.737   6.256   4.003 -0.5457  0.2782 -0.6495
 6011TIP3    H139524   2.791   6.262   3.924 -0.9137  1.4060 -0.8276
 6011TIP3    H239525   2.789   6.203   4.064  0.1186  0.1305 -1.3390
 6012TIP3   OH239526   1.191   3.521  15.358 -0.2295  0.5832 -0.2874
 6012TIP3    H139527   1.124   3.468  15.400 -1.3022  2.9193  1.1255
 6012TIP3    H239528   1.229   3.573  15.429  0.6857  1.7979 -1.6085
 6013TIP3   OH239529   1.289   3.181  13.374  0.2677 -0.3823 -0.2334
 6013TIP3    H139530   1.321   3.251  13.430  1.5678 -1.7520  0.8215
 6013TIP3    H239531   1.208   3.152  13.415 -0.8276  1.1124 -1.2365
 6014TIP3   OH239532   0.758   2.341  15.801  0.3466 -0.2343 -0.4719
 6014TIP3    H139533   0.795   2.253  15.795 -0.2168 -0.5699  0.6693
 6014TIP3    H239534   0.833   2.398  15.821  0.7319 -0.4259 -1.3469
 6015TIP3   OH239535   0.545   0.254   5.453  0.2572  0.3478  0.0922
 6015TIP3    H139536   0.501   0.218   5.375  1.9218 -0.1256 -0.6733
 6015TIP3    H239537   0.633   0.275   5.423  1.5919 -1.6055  2.2757
 6016TIP3   OH239538   4.673   1.026   0.936  0.0666 -0.2823  0.0140
 6016TIP3    H139539   4.709   1.108   0.969 -0.8815  0.3497 -0.4754
 6016TIP3    H239540   4.601   1.006   0.997 -1.3691  0.6267 -1.3137
 6017TIP3   OH239541   3.720   0.441   0.585  0.5017 -0.0347 -0.1478
 6017TIP3    H139542   3.744   0.533   0.596  0.4642 -0.1089  0.6377
 6017TIP3    H239543   3.756   0.397   0.662  1.1467 -0.8116 -0.8764
 6018TIP3   OH239544   2.476   2.169   6.003 -0.9095 -0.1410  0.3446
 6018TIP3    H139545   2.525   2.161   6.085  1.0963  1.0044 -0.6648
 6018TIP3    H239546   2.411   2.236   6.021 -1.6550 -1.1430  1.4996
 6019TIP3   OH239547   4.133   2.500  15.229  0.1615 -0.4357 -0.5362
 6019TIP3    H139548   4.218   2.520  15.268  0.3164 -0.8069 -0.6712
 6019TIP3    H239549   4.073   2.565  15.264  0.6945  0.4064 -1.1611
 6020TIP3   OH239550   1.456   4.872   4.427 -0.2613 -0.0731 -0.1702
 6020TIP3    H139551   1.469   4.958   4.389 -1.2422  0.4750  0.6741
 6020TIP3    H239552   1.525   4.863   4.492 -0.7331  0.4856  0.4142
 6021TIP3   OH239553   2.628   2.656  16.437  0.0136 -0.3708 -0.1949
 6021TIP3    H139554   2.538   2.622  16.438 -0.3428  0.5617  0.7450
 6021TIP3    H239555   2.654   2.650  16.345 -1.1748 -0.2356 -0.5578
 6022TIP3   OH239556   1.415   0.549   3.180 -0.2842  0.2328  0.6646
 6022TIP3    H139557   1.507   0.523   3.182 -0.1255  0.3504 -2.1292
 6022TIP3    H239558   1.417   0.644   3.193 -0.0813  0.1782  1.0793
 6023TIP3   OH239559   5.502   0.638  16.389 -0.2496  0.3606 -0.7062
 6023TIP3    H139560   5.548   0.618  16.307 -1.8876 -1.3846 -1.2512
 6023TIP3    H239561   5.415   0.666  16.362  0.0745  2.6436  0.3650
 6024TIP3   OH239562   1.063   0.028   4.772 -0.3276  0.4615 -0.1405
 6024TIP3    H139563   1.050   0.024   4.678 -1.1756 -1.7589  0.0149
 6024TIP3    H239564   1.122  -0.046   4.791  0.2889  1.2228  1.0073
 6025TIP3   OH239565   0.859   6.129   0.460 -0.9025  0.0860  0.6411
 6025TIP3    H139566   0.916   6.194   0.502  0.0565  1.1735 -2.1225
 6025TIP3    H239567   0.774   6.172   0.455 -0.6556  0.5467  0.2295
 6026TIP3   OH239568   6.624   0.291   0.233 -0.0901 -0.6787  0.0635
 6026TIP3    H139569   6.634   0.285   0.138 -1.5119 -2.5765 -0.0391
 6026TIP3    H239570   6.641   0.383   0.253 -1.5646  0.2203 -2.2801
 6027TIP3   OH239571   2.334   2.175  14.611 -0.6687  0.0676 -0.2277
 6027TIP3    H139572   2.392   2.210  14.679 -1.5352  1.5209 -0.2036
 6027TIP3    H239573   2.330   2.081  14.630  0.9457  0.0774  0.3111
 6028TIP3   OH239574   6.310   4.222   1.805 -0.6136  0.2026 -0.8862
 6028TIP3    H139575   6.296   4.182   1.891  0.1802 -0.2375 -0.9469
 6028TIP3    H239576   6.258   4.168   1.745 -0.4183 -0.0726 -0.8119
 6029TIP3   OH239577   2.727   4.132   0.383 -0.1361 -0.6333 -0.1948
 6029TIP3    H139578   2.649   4.111   0.332 -0.6880 -0.7160  0.6489
 6029TIP3    H239579   2.792   4.160   0.319 -1.3686  0.9782 -0.7900
 6030TIP3   OH239580   0.529   2.665   1.114  0.6131  0.0372  0.0854
 6030TIP3    H139581   0.505   2.602   1.182 -0.0150  0.0996 -0.0714
 6030TIP3    H239582   0.452   2.671   1.058  1.2877 -0.3852 -0.9299
 6031TIP3   OH239583   3.348   6.256  10.579 -0.1871 -0.6085  0.3539
 6031TIP3    H139584   3.338   6.170  10.538  0.7323 -1.1502  1.2002
 6031TIP3    H239585   3.420   6.297  10.531 -0.5573 -0.3416  0.0174
 6032TIP3   OH239586   5.691   2.383  11.148 -0.2410  0.1571  0.0634
 6032TIP3    H139587   5.620   2.320  11.156 -0.6595  0.5034 -0.8469
 6032TIP3    H239588   5.745   2.350  11.076 -0.1015  0.4911  0.0119
 6033TIP3   OH239589   0.207   2.112   2.059  0.3021  0.0063 -0.0747
 6033TIP3    H139590   0.230   2.019   2.065  0.4169 -0.0113 -0.6715
 6033TIP3    H239591   0.111   2.112   2.064  0.3617  0.1506  3.2139
 6034TIP3   OH239592   1.762   5.390   2.694 -0.4572 -0.2670 -0.3868
 6034TIP3    H139593   1.718   5.475   2.698 -1.8684 -1.0158  1.3706
 6034TIP3    H239594   1.849   5.406   2.730  0.0501  0.8067 -1.9631
 6035TIP3   OH239595   0.688   4.512  13.719  0.2892  0.4769 -0.2028
 6035TIP3    H139596   0.744   4.589  13.733  0.8693 -0.1826  1.3380
 6035TIP3    H239597   0.737   4.440  13.756 -1.2619 -0.2642  0.4900
 6036TIP3   OH239598   2.116   6.760   4.602  0.2949 -0.2023  0.1171
 6036TIP3    H139599   2.068   6.841   4.583 -0.1948 -0.2720  0.9739
 6036TIP3    H239600   2.090   6.700   4.532  1.3725  0.6449 -1.0512
 6037TIP3   OH239601   5.413   0.818  16.072  0.1620  0.3476  0.1543
 6037TIP3    H139602   5.423   0.907  16.104  0.8533 -0.1148  1.2844
 6037TIP3    H239603   5.444   0.821  15.982 -0.7854  1.4518 -0.1610
 6038TIP3   OH239604   2.881   4.516  12.860 -0.7987 -0.2565  0.4361
 6038TIP3    H139605   2.805   4.502  12.804 -0.2928 -2.3757  0.2010
 6038TIP3    H239606   2.873   4.608  12.888 -1.9269  0.3973 -1.7647
 6039TIP3   OH239607   1.191   3.200  10.750  0.3722  0.0220 -0.3413
 6039TIP3    H139608   1.164   3.255  10.676  1.9617 -0.1531 -1.0840
 6039TIP3    H239609   1.128   3.221  10.819 -0.9426  0.4462 -1.6208
 6040TIP3   OH239610   6.009   5.835  14.396 -0.4946 -0.4544 -0.4116
 6040TIP3    H139611   6.035   5.744  14.413 -0.6515 -0.2981  0.7447
 6040TIP3    H239612   5.914   5.834  14.400 -0.5711 -0.4513 -1.6394
 6041TIP3   OH239613   0.440   2.429  11.858 -0.1132  0.4392  0.3531
 6041TIP3    H139614   0.498   2.360  11.824 -1.3449 -1.1284  1.2942
 6041TIP3    H239615   0.410   2.475  11.780  0.8792  0.0407 -0.2894
 6042TIP3   OH239616   5.605   2.092   2.483 -0.3138 -0.0412  0.0648
 6042TIP3    H139617   5.652   2.042   2.549 -0.8441 -0.1687  0.3440
 6042TIP3    H239618   5.636   2.056   2.399  0.2609  0.0380  0.2398
 6043TIP3   OH239619   1.665   5.392   5.212 -0.5755 -0.0523 -0.3688
 6043TIP3    H139620   1.580   5.367   5.176 -0.6006  0.6915 -0.8327
 6043TIP3    H239621   1.690   5.317   5.267 -1.4766 -0.3244 -0.3071
 6044TIP3   OH239622   5.763   2.257   5.408 -0.2129  0.6721 -0.7402
 6044TIP3    H139623   5.703   2.294   5.472 -1.9739 -2.9818  0.0169
 6044TIP3    H239624   5.847   2.300   5.425 -0.8668  0.7408  3.2425
 6045TIP3   OH239625   3.035   0.991  12.192  0.0839  0.4627 -0.0199
 6045TIP3    H139626   2.954   0.997  12.242  0.0462 -2.0135  0.2991
 6045TIP3    H239627   3.068   0.903  12.209  1.9800  0.8185 -1.4957
 6046TIP3   OH239628   4.602   4.342   2.693  0.1722  0.2701 -0.3181
 6046TIP3    H139629   4.654   4.315   2.768  1.2233  1.0195 -0.7533
 6046TIP3    H239630   4.512   4.321   2.718  0.7017 -1.6061  0.2113
 6047TIP3   OH239631   5.970   0.667  15.377 -0.1023  0.2124  0.3480
 6047TIP3    H139632   5.895   0.609  15.389 -0.0127  0.0456  0.0972
 6047TIP3    H239633   6.012   0.637  15.297  1.3683 -0.9254  1.4996
 6048TIP3   OH239634   0.255   0.913  10.514  0.5909 -0.2426  0.0227
 6048TIP3    H139635   0.252   0.819  10.533 -0.1138  0.1581  2.1887
 6048TIP3    H239636   0.163   0.940  10.509  0.7856  0.2990 -0.8808
 6049TIP3   OH239637   5.304   0.209   3.142  0.0541  0.5191  0.4679
 6049TIP3    H139638   5.262   0.155   3.208  0.8682  1.7759  2.0934
 6049TIP3    H239639   5.379   0.156   3.112  0.5420  0.5030  1.6554
 6050TIP3   OH239640   2.705   1.639   5.252  0.0675 -0.4935  0.1810
 6050TIP3    H139641   2.735   1.552   5.229  0.2786 -0.5295  0.5708
 6050TIP3    H239642   2.748   1.697   5.189 -0.2650 -0.6894 -0.2310
 6051TIP3   OH239643   1.440   3.046   2.981  0.3872 -0.0759 -0.0839
 6051TIP3    H139644   1.472   3.056   3.071  0.0435  1.3136 -0.0901
 6051TIP3    H239645   1.356   3.093   2.980 -0.6515 -1.8516 -0.6139
 6052TIP3   OH239646   5.084   6.486  15.657  0.1849  0.3645 -0.3864
 6052TIP3    H139647   4.994   6.513  15.643  0.2604  1.3538  0.8846
 6052TIP3    H239648   5.136   6.555  15.616  0.3784  0.1554 -0.4987
 6053TIP3   OH239649   4.405   4.471  17.129 -0.4597  0.9403 -0.3993
 6053TIP3    H139650   4.407   4.561  17.095  0.6513  1.8247  1.8210
 6053TIP3    H239651   4.315   4.442  17.115 -0.5990  2.0143 -2.0343
 6054TIP3   OH239652   6.075   0.349   0.097  0.0840 -0.8149  0.2366
 6054TIP3    H139653   6.027   0.368   0.016  1.0319  2.0700  0.2629
 6054TIP3    H239654   6.007   0.340   0.164 -0.5627  1.3081 -0.0829
 6055TIP3   OH239655   1.282   1.952  12.182  0.1525 -0.2590 -0.3016
 6055TIP3    H139656   1.233   2.025  12.144 -2.2538 -1.5846  0.0080
 6055TIP3    H239657   1.274   1.881  12.118 -0.4694 -1.2571  0.8227
 6056TIP3   OH239658   2.113   3.339  15.303 -0.2327 -0.3511  0.3301
 6056TIP3    H139659   2.091   3.354  15.395 -1.5413 -0.0547 -0.0098
 6056TIP3    H239660   2.028   3.331  15.259  0.3740 -0.9698 -0.7798
 6057TIP3   OH239661   4.782   0.416   4.397  0.6017 -0.5078  0.1612
 6057TIP3    H139662   4.701   0.465   4.381  0.3081 -1.1796 -0.4937
 6057TIP3    H239663   4.770   0.377   4.483  0.1200 -0.7975 -0.0330
 6058TIP3   OH239664   5.526   5.429  16.162 -0.3048  0.4517 -0.1615
 6058TIP3    H139665   5.519   5.479  16.243  0.2820  0.3006 -0.0134
 6058TIP3    H239666   5.620   5.424  16.144 -0.4297  0.5766 -0.9082
 6059TIP3   OH239667   4.837   4.855   0.491  0.2289  0.2411 -0.0472
 6059TIP3    H139668   4.879   4.878   0.408 -1.0851 -1.1702 -1.1633
 6059TIP3    H239669   4.751   4.821   0.465 -0.8564  1.2354  2.0148
 6060TIP3   OH239670   1.716   0.763  14.153  0.1393 -0.4115 -0.2195
 6060TIP3    H139671   1.658   0.689  14.133  0.1232 -0.2245 -0.8809
 6060TIP3    H239672   1.783   0.726  14.211  0.1134 -0.9323 -0.5201
 6061TIP3   OH239673   0.140   3.267   3.733  0.3772 -0.4601  0.2459
 6061TIP3    H139674   0.107   3.177   3.736 -1.1308  0.0261 -0.6445
 6061TIP3    H239675   0.122   3.295   3.643 -0.2653  1.1090  0.8342
 6062TIP3   OH239676   0.174   4.938   4.322 -0.2941  0.4094  0.1980
 6062TIP3    H139677   0.167   4.860   4.266  0.0165  0.6052 -0.1203
 6062TIP3    H239678   0.115   4.921   4.395  1.3408 -1.0744  1.2441
 6063TIP3   OH239679   0.673   0.316   3.585  0.1314 -0.0745  0.4623
 6063TIP3    H139680   0.727   0.302   3.507  1.2936 -1.4475  1.4462
 6063TIP3    H239681   0.590   0.274   3.564 -0.7294  2.2373 -1.1509
 6064TIP3   OH239682   6.719   4.113  15.616  0.5098  0.5730 -0.0055
 6064TIP3    H139683   6.745   4.056  15.689  0.5954  1.5185  0.7182
 6064TIP3    H239684   6.624   4.106  15.612  0.3492  1.7399  1.2490
 6065TIP3   OH239685   1.996   1.856  15.547  0.0581  0.1080  0.6037
 6065TIP3    H139686   1.948   1.827  15.469  0.1654 -0.5427  0.7774
 6065TIP3    H239687   2.019   1.776  15.593 -2.4222  0.5199  2.8109
 6066TIP3   OH239688   0.497   2.754  11.717  0.1792  0.2828  0.4445
 6066TIP3    H139689   0.573   2.734  11.772  0.8422  1.4878 -0.0158
 6066TIP3    H239690   0.482   2.674  11.667  2.1611  0.5484 -0.6389
 6067TIP3   OH239691   4.274   2.065  12.587  0.6676 -0.7490  0.1826
 6067TIP3    H139692   4.223   2.081  12.666  0.7461  0.6011 -0.0037
 6067TIP3    H239693   4.235   1.988  12.548 -1.2787  0.2512  0.0262
 6068TIP3   OH239694   1.037   6.699  13.219 -0.3582 -0.2014 -0.1572
 6068TIP3    H139695   1.041   6.728  13.310  0.8907 -1.0736  0.0947
 6068TIP3    H239696   1.124   6.719  13.184 -0.9616  0.5112 -1.2957
 6069TIP3   OH239697   2.561   5.796   5.447 -0.4963  0.1193  0.3570
 6069TIP3    H139698   2.568   5.826   5.538 -2.0706  1.3339  0.1131
 6069TIP3    H239699   2.496   5.726   5.449 -1.1204  0.6791  0.0681
 6070TIP3   OH239700   5.459   3.074  13.875 -0.2605 -0.2987  0.3967
 6070TIP3    H139701   5.508   3.113  13.803  2.3145 -2.4513  0.8511
 6070TIP3    H239702   5.398   3.013  13.832  1.1802 -1.4844 -0.0371
 6071TIP3   OH239703   1.289   5.470   0.102 -0.5447 -0.2981  0.1930
 6071TIP3    H139704   1.306   5.563   0.084 -0.5243 -0.1749  0.8249
 6071TIP3    H239705   1.359   5.444   0.162 -0.2959 -0.8413 -0.3248
 6072TIP3   OH239706   2.313   4.178  13.680 -0.1500  0.0067 -0.3178
 6072TIP3    H139707   2.393   4.231  13.685 -0.3603  0.2989 -0.0413
 6072TIP3    H239708   2.244   4.236  13.712 -0.7210  0.2635 -1.9220
 6073TIP3   OH239709   2.324   6.725  13.021 -0.3337  0.1277  0.7688
 6073TIP3    H139710   2.240   6.766  13.005  0.3984  2.6152  2.5802
 6073TIP3    H239711   2.380   6.755  12.950 -0.6472 -0.5006  0.2521
 6074TIP3   OH239712   0.631   4.129  14.771 -0.3789 -0.5451 -0.9517
 6074TIP3    H139713   0.545   4.136  14.730  0.0154 -0.6866 -1.8285
 6074TIP3    H239714   0.612   4.115  14.864 -1.2800  3.5068 -0.3560
 6075TIP3   OH239715   4.642   3.315  16.833  0.4762 -0.0281 -0.4217
 6075TIP3    H139716   4.607   3.394  16.875  0.9537  0.4579 -0.9301
 6075TIP3    H239717   4.737   3.330  16.830  0.7127 -1.1619  0.5780
 6076TIP3   OH239718   5.343   1.990   5.311 -0.1321 -0.1217  0.0121
 6076TIP3    H139719   5.435   2.006   5.329  0.0039 -0.5109 -0.3271
 6076TIP3    H239720   5.341   1.960   5.220 -0.7406  1.2918 -0.4757
 6077TIP3   OH239721   1.571   5.500   1.417 -0.0148 -0.7451  0.3067
 6077TIP3    H139722   1.656   5.542   1.403 -0.5598  0.6043  0.8719
 6077TIP3    H239723   1.560   5.500   1.512 -0.6090 -1.0096  0.2437
 6078TIP3   OH239724   5.407   5.364  11.060 -0.3365  0.0470 -0.1665
 6078TIP3    H139725   5.462   5.427  11.106 -0.1418 -1.1148  1.2702
 6078TIP3    H239726   5.468   5.314  11.006 -0.4594  0.9020 -1.1222
 6079TIP3   OH239727   3.259   1.214   4.551  0.2655  0.0530 -0.3909
 6079TIP3    H139728   3.256   1.142   4.488 -3.6756 -0.3109 -0.0260
 6079TIP3    H239729   3.272   1.172   4.636 -0.0300 -0.0522 -0.3952
 6080TIP3   OH239730   4.945   0.788   4.754 -0.4875  0.3824 -0.0036
 6080TIP3    H139731   4.981   0.716   4.807  1.9454  0.7798 -0.9875
 6080TIP3    H239732   4.978   0.867   4.797 -2.1488  0.9179  0.3682
 6081TIP3   OH239733   3.700   3.815  12.111  0.2637  1.0314 -0.5601
 6081TIP3    H139734   3.703   3.781  12.200 -2.0513 -1.2996 -1.2403
 6081TIP3    H239735   3.756   3.756  12.061 -0.7903  0.4622 -1.1095
 6082TIP3   OH239736   3.206   3.929   5.172  0.4841 -0.3872 -0.0308
 6082TIP3    H139737   3.240   3.987   5.103  1.5523  0.8425  1.4358
 6082TIP3    H239738   3.118   3.906   5.144  0.1742  1.6626 -0.8847
 6083TIP3   OH239739   4.549   5.330  13.490  0.2477  0.3425  0.2645
 6083TIP3    H139740   4.456   5.349  13.499  0.2164 -0.5034  2.4349
 6083TIP3    H239741   4.557   5.288  13.404 -1.7065 -1.1980  0.7543
 6084TIP3   OH239742   6.775   3.665   2.498 -0.2313  0.0408 -0.3407
 6084TIP3    H139743   6.807   3.672   2.588  0.9570 -0.6329 -0.6986
 6084TIP3    H239744   6.830   3.598   2.458 -0.9598  0.1098 -1.4838
 6085TIP3   OH239745   4.595   3.158   0.296 -0.5526  0.2518  0.1350
 6085TIP3    H139746   4.612   3.142   0.389  0.9539  3.0163  0.4406
 6085TIP3    H239747   4.510   3.202   0.294 -0.7238 -0.0763  0.1700
 6086TIP3   OH239748   1.614   2.199   5.097  0.1839 -0.2740  0.8238
 6086TIP3    H139749   1.689   2.233   5.047 -0.0932  1.9087  1.7929
 6086TIP3    H239750   1.546   2.266   5.087 -1.1766 -1.5681  1.0999
 6087TIP3   OH239751   4.369   3.365   1.324 -0.1238 -0.4291 -0.1940
 6087TIP3    H139752   4.310   3.338   1.254 -0.7633 -0.4749  0.3398
 6087TIP3    H239753   4.390   3.284   1.370 -0.2238 -0.3245  0.0421
 6088TIP3   OH239754   0.347   0.633   4.925  0.4512 -0.1298  0.3794
 6088TIP3    H139755   0.293   0.571   4.876  2.4801 -0.4737 -1.5979
 6088TIP3    H239756   0.403   0.579   4.980  0.8468  0.0354  0.1467
 6089TIP3   OH239757   2.741   2.119  12.188 -0.4624  0.2713  0.5052
 6089TIP3    H139758   2.809   2.065  12.229  1.4084  1.4332 -0.9000
 6089TIP3    H239759   2.660   2.071  12.203  0.8552 -1.9541  0.9611
 6090TIP3   OH239760   5.740   6.733  11.320 -0.1079  0.0096  0.2823
 6090TIP3    H139761   5.720   6.735  11.226 -0.9024 -0.9735  0.4059
 6090TIP3    H239762   5.835   6.732  11.325 -0.0583  0.2292 -0.5044
 6091TIP3   OH239763   5.405   4.990   1.578 -0.0161 -0.3756  0.7038
 6091TIP3    H139764   5.500   4.983   1.580  0.2940  1.8108 -1.2702
 6091TIP3    H239765   5.382   4.977   1.486 -1.2161  2.2257  0.5370
 6092TIP3   OH239766   1.782   3.487  13.415 -0.4562 -0.7301  0.0647
 6092TIP3    H139767   1.765   3.581  13.420 -1.0415 -0.8606  0.7311
 6092TIP3    H239768   1.863   3.479  13.365 -0.1969  0.1484  0.3414
 6093TIP3   OH239769   2.703   4.383   1.124 -0.5237 -0.4411  0.2802
 6093TIP3    H139770   2.733   4.423   1.205  0.1230  0.0652 -0.2012
 6093TIP3    H239771   2.783   4.365   1.075 -0.9065 -0.7835 -0.2237
 6094TIP3   OH239772   4.223   6.184  12.819 -0.2389  0.0256  0.2200
 6094TIP3    H139773   4.252   6.211  12.732  0.2817  0.3775  0.5016
 6094TIP3    H239774   4.153   6.245  12.842  0.7043  0.9529  0.7123
 6095TIP3   OH239775   0.275   5.246   2.030 -0.2379  0.4325 -0.5021
 6095TIP3    H139776   0.322   5.215   1.953  3.2200  0.0343  1.5667
 6095TIP3    H239777   0.344   5.272   2.091 -2.7805  4.4418  1.0718
 6096TIP3   OH239778   1.195   6.575  11.085 -0.0353 -0.0450 -0.0463
 6096TIP3    H139779   1.263   6.612  11.029 -0.5395  0.0260 -0.6253
 6096TIP3    H239780   1.134   6.534  11.024  0.7144 -2.2477  0.5719
 6097TIP3   OH239781   5.666   1.335  13.000 -0.2726 -0.4773 -0.3997
 6097TIP3    H139782   5.653   1.240  13.000  1.0414 -0.6980 -1.4889
 6097TIP3    H239783   5.592   1.370  13.050 -1.2889 -2.0028 -0.7680
 6098TIP3   OH239784   6.207   2.307  16.704  0.3930  0.0418 -0.5090
 6098TIP3    H139785   6.168   2.352  16.629 -0.0299 -0.4220 -0.5710
 6098TIP3    H239786   6.234   2.222  16.670  1.1472  0.2149 -0.3778
 6099TIP3   OH239787   2.316   4.994   2.417  0.0608 -0.1160  0.1376
 6099TIP3    H139788   2.237   5.010   2.468  1.1622  0.9389  1.5939
 6099TIP3    H239789   2.294   4.920   2.360 -2.0420  0.3514  0.2874
 6100TIP3   OH239790   5.919   1.431   0.382 -0.1522  0.2904 -0.2597
 6100TIP3    H139791   5.906   1.513   0.429  2.7369  0.7779 -0.0863
 6100TIP3    H239792   5.832   1.394   0.371 -1.2745  2.0443  2.0751
 6101TIP3   OH239793   2.366   4.507  16.036 -0.5448 -1.0167  0.2021
 6101TIP3    H139794   2.366   4.431  15.978  0.4295  0.6285 -2.1326
 6101TIP3    H239795   2.303   4.568  15.996 -0.8510 -0.3262  1.6603
 6102TIP3   OH239796   4.599   0.339   3.662 -0.0371  0.1057 -0.5021
 6102TIP3    H139797   4.666   0.394   3.704  1.1488 -1.4637 -0.2431
 6102TIP3    H239798   4.568   0.282   3.732 -1.5700  0.6899 -0.6658
 6103TIP3   OH239799   3.728   5.899   1.286  0.5529  0.1934 -0.0744
 6103TIP3    H139800   3.796   5.942   1.234  1.3520 -1.7061 -0.6826
 6103TIP3    H239801   3.663   5.870   1.221 -0.3504  1.1131  0.4000
 6104TIP3   OH239802   4.384   6.570   0.984  0.6926 -0.3429  0.2384
 6104TIP3    H139803   4.290   6.554   0.979  0.6735 -0.4132  0.7925
 6104TIP3    H239804   4.393   6.644   1.044  0.7209  2.2265 -2.6621
 6105TIP3   OH239805   6.201   4.503  17.041  0.0029 -0.1452  0.7635
 6105TIP3    H139806   6.130   4.548  17.086 -1.7168 -1.6146 -0.3765
 6105TIP3    H239807   6.191   4.528  16.949  1.4247  0.1834  0.6709
 6106TIP3   OH239808   3.796   5.071   1.523  0.3985  0.2239 -0.6926
 6106TIP3    H139809   3.768   5.125   1.597  1.5174 -0.2190  0.0869
 6106TIP3    H239810   3.814   5.133   1.453 -0.1377  0.7008 -0.4087
 6107TIP3   OH239811   1.227   4.813   1.299 -0.8260  0.0867  0.2923
 6107TIP3    H139812   1.156   4.764   1.259 -0.6806  0.8109 -0.9015
 6107TIP3    H239813   1.307   4.774   1.264 -0.6370 -0.2467  1.0586
 6108TIP3   OH239814   4.872   3.619   5.234 -0.3882 -0.3003  0.7429
 6108TIP3    H139815   4.915   3.603   5.151 -0.0895 -0.0996  0.8586
 6108TIP3    H239816   4.792   3.567   5.230 -0.8344  0.4171 -0.0444
 6109TIP3   OH239817   6.278   1.517   3.797  0.4686 -0.1183  0.4737
 6109TIP3    H139818   6.283   1.508   3.702 -0.8634 -0.6139  0.4258
 6109TIP3    H239819   6.350   1.463   3.830  1.2189  0.4209 -0.2542
 6110TIP3   OH239820   6.650   0.717  11.892 -0.3065 -0.5913  0.5322
 6110TIP3    H139821   6.722   0.689  11.835  1.4221 -1.5424  3.0369
 6110TIP3    H239822   6.605   0.636  11.916 -1.6292 -0.0985 -0.2020
 6111TIP3   OH239823   6.454   4.140  15.683  0.0931 -0.5914  0.4322
 6111TIP3    H139824   6.441   4.227  15.721 -1.4920 -0.8992  0.6609
 6111TIP3    H239825   6.370   4.119  15.642  0.7597 -1.6162 -0.4703
 6112TIP3   OH239826   1.565   2.847   2.843 -0.0327  0.1837  0.2316
 6112TIP3    H139827   1.545   2.853   2.749  0.3668 -2.0409 -0.0568
 6112TIP3    H239828   1.515   2.918   2.883 -1.3547  0.2922 -1.5061
 6113TIP3   OH239829   2.763   1.974   1.987 -0.3361  0.8824 -0.1670
 6113TIP3    H139830   2.714   2.029   2.048 -2.2097  0.1150 -0.9207
 6113TIP3    H239831   2.698   1.945   1.923  0.5572 -2.1647  0.1417
 6114TIP3   OH239832   5.120   4.729  12.210 -0.0239 -0.6767  0.5985
 6114TIP3    H139833   5.063   4.719  12.287  0.2078 -0.2535  0.8291
 6114TIP3    H239834   5.060   4.752  12.139  0.0043  1.5107  1.2078
 6115TIP3   OH239835   4.746   6.715   1.070 -0.0667 -0.5254 -0.1501
 6115TIP3    H139836   4.837   6.703   1.098  0.0693  1.0805  0.1996
 6115TIP3    H239837   4.728   6.640   1.013  1.2696 -1.1999  0.2792
 6116TIP3   OH239838   2.103   1.417   1.122 -0.3478 -0.6396  0.4778
 6116TIP3    H139839   2.028   1.375   1.079 -1.4981  1.3762  0.3730
 6116TIP3    H239840   2.166   1.431   1.051 -0.8410 -0.3218  0.0938
 6117TIP3   OH239841   6.661   6.238   3.802  0.4935 -0.4507  0.3066
 6117TIP3    H139842   6.662   6.149   3.769  0.2935 -1.1446  2.0311
 6117TIP3    H239843   6.588   6.240   3.864 -1.2530  1.6976 -1.6180
 6118TIP3   OH239844   3.457   5.804  11.083 -0.2968 -0.4999 -0.0969
 6118TIP3    H139845   3.464   5.766  10.996 -0.5102 -0.8793  0.0479
 6118TIP3    H239846   3.375   5.769  11.118 -0.7344  0.4532 -0.1303
 6119TIP3   OH239847   2.208   5.579   2.941  0.1158  0.4385 -0.0095
 6119TIP3    H139848   2.301   5.599   2.936  0.0116  0.6590 -1.3972
 6119TIP3    H239849   2.165   5.652   2.896 -0.6575 -0.1727 -0.2845
 6120TIP3   OH239850   2.192   6.299   4.399 -0.4940 -0.6198  0.0593
 6120TIP3    H139851   2.231   6.252   4.325  1.1524  0.3147  0.2756
 6120TIP3    H239852   2.248   6.276   4.473 -3.3492 -3.2913  1.6158
 6121TIP3   OH239853   3.278   6.831   4.004 -0.1195 -0.2028  0.3431
 6121TIP3    H139854   3.353   6.802   3.952 -0.5223 -0.5685 -0.0482
 6121TIP3    H239855   3.313   6.899   4.061  0.6514 -0.8454  0.6542
 6122TIP3   OH239856   0.439   0.229   1.222 -0.8630  0.3512  0.2197
 6122TIP3    H139857   0.447   0.220   1.317 -1.6969 -1.3984  0.1592
 6122TIP3    H239858   0.345   0.226   1.206 -0.8841  2.7637 -0.5218
 6123TIP3   OH239859   4.807   1.865  11.193 -0.0787  0.4519  0.8876
 6123TIP3    H139860   4.839   1.940  11.243  0.8354  0.2465  0.6170
 6123TIP3    H239861   4.878   1.844  11.132 -0.4933 -0.3776  0.6785
 6124TIP3   OH239862   2.051   1.662   3.565  0.4883 -0.5477 -0.3045
 6124TIP3    H139863   2.084   1.682   3.653  0.7560 -0.2011 -0.4779
 6124TIP3    H239864   2.112   1.708   3.506  0.2531 -0.6955 -0.6651
 6125TIP3   OH239865   1.285   3.441   3.550 -0.1504  0.3420 -0.0988
 6125TIP3    H139866   1.235   3.427   3.630 -2.2012  0.5250 -1.2633
 6125TIP3    H239867   1.305   3.535   3.549 -0.1010  0.3341  0.1959
 6126TIP3   OH239868   1.559   5.330   3.024 -0.1682 -0.4481  0.2726
 6126TIP3    H139869   1.464   5.319   3.026 -0.2309 -0.7340 -1.8174
 6126TIP3    H239870   1.585   5.329   3.116 -2.0632 -1.3728  0.8572
 6127TIP3   OH239871   2.955   3.514   4.480  0.3043 -0.6431  0.2350
 6127TIP3    H139872   3.024   3.468   4.432  1.8060  0.0021  1.6525
 6127TIP3    H239873   3.002   3.559   4.551 -1.5427  0.1759  0.9956
 6128TIP3   OH239874   0.516   3.059  14.640 -0.6040  0.0993  0.3338
 6128TIP3    H139875   0.584   3.126  14.635 -0.3756 -0.1941 -1.1615
 6128TIP3    H239876   0.562   2.980  14.668 -0.2132 -0.1834 -1.0044
 6129TIP3   OH239877   2.468   3.533   2.439 -0.1271  0.2166  0.0087
 6129TIP3    H139878   2.495   3.461   2.496  0.6313 -0.2497 -0.9189
 6129TIP3    H239879   2.518   3.609   2.470 -1.2351  0.4802  1.2558
 6130TIP3   OH239880   6.403   5.552  15.713  0.2508 -0.0382  0.8115
 6130TIP3    H139881   6.345   5.487  15.753  0.0247 -1.9325 -2.3057
 6130TIP3    H239882   6.359   5.635  15.728 -0.3842 -0.7381  3.3352
 6131TIP3   OH239883   2.494   6.535  13.161 -0.1404 -0.1897 -0.4109
 6131TIP3    H139884   2.516   6.468  13.096  1.2444  0.7177 -0.9417
 6131TIP3    H239885   2.430   6.591  13.117 -1.1263 -1.0014 -0.0474
 6132TIP3   OH239886   3.284   0.560  13.046 -0.0576 -0.9488  0.0258
 6132TIP3    H139887   3.375   0.535  13.061  0.8123  2.3150  0.9660
 6132TIP3    H239888   3.269   0.632  13.107 -3.0928 -0.9505 -0.5896
 6133TIP3   OH239889   4.229   4.485   3.818  0.1741 -0.3900 -0.1398
 6133TIP3    H139890   4.183   4.514   3.896  0.9835 -0.2470  0.2898
 6133TIP3    H239891   4.319   4.472   3.846  0.1810 -1.7393 -0.7118
 6134TIP3   OH239892   1.139   1.450  13.378  0.1691 -0.0290  0.3045
 6134TIP3    H139893   1.134   1.384  13.309  1.3114 -0.6556  0.7947
 6134TIP3    H239894   1.183   1.525  13.337  0.7858 -0.3744  0.3257
 6135TIP3   OH239895   4.401   0.685   1.107 -0.0324 -0.2066  0.1961
 6135TIP3    H139896   4.311   0.720   1.108 -0.0524 -0.0997 -1.6594
 6135TIP3    H239897   4.390   0.592   1.087  0.3120  0.0984 -1.5197
 6136TIP3   OH239898   3.191   4.886  11.773 -0.0577 -0.4439  0.0779
 6136TIP3    H139899   3.099   4.874  11.799 -0.8788  2.6275 -1.0130
 6136TIP3    H239900   3.228   4.941  11.841  0.4183 -0.1009 -0.4519
 6137TIP3   OH239901   0.150   2.677  13.518  0.3459  0.1785 -0.1127
 6137TIP3    H139902   0.112   2.625  13.448  0.0970  1.0494 -0.6451
 6137TIP3    H239903   0.241   2.693  13.490 -0.5334  3.0478 -1.8031
 6138TIP3   OH239904   3.302   1.417   2.401 -0.7103 -0.4205  0.5557
 6138TIP3    H139905   3.275   1.351   2.338  0.2264  0.8836 -1.2928
 6138TIP3    H239906   3.228   1.425   2.461 -1.5150 -1.8961 -0.1928
 6139TIP3   OH239907   2.146   2.962   6.108 -0.3317  0.4408 -0.0205
 6139TIP3    H139908   2.051   2.977   6.106 -0.3916  0.6382  1.8997
 6139TIP3    H239909   2.159   2.881   6.058 -1.5515  0.2835 -0.1107
 6140TIP3   OH239910   0.343   3.108  12.891 -0.3341 -0.4664 -0.4080
 6140TIP3    H139911   0.306   3.126  12.804 -2.1375 -0.7426  0.2629
 6140TIP3    H239912   0.435   3.135  12.884 -0.6581  0.3190 -2.1396
 6141TIP3   OH239913   1.716   0.110   1.246  0.3321  0.3160  0.0666
 6141TIP3    H139914   1.646   0.142   1.303 -0.9740 -1.6731 -0.3327
 6141TIP3    H239915   1.719   0.016   1.261  2.7782  0.2983 -0.1357
 6142TIP3   OH239916   1.066   6.215  12.707  0.3523  0.3354  0.2297
 6142TIP3    H139917   1.125   6.200  12.780 -0.9189  0.3254  1.2855
 6142TIP3    H239918   0.990   6.158  12.724  0.0888  0.2086 -1.1762
 6143TIP3   OH239919   3.357   6.422   5.113 -0.6245  0.3496 -0.1993
 6143TIP3    H139920   3.275   6.469   5.102 -1.3612 -1.0583 -1.1225
 6143TIP3    H239921   3.375   6.426   5.207 -1.4785  1.1056 -0.0574
 6144TIP3   OH239922   2.579   0.947  11.897 -0.1524 -0.0517  0.1218
 6144TIP3    H139923   2.523   1.023  11.882 -2.0696 -0.8861  2.3199
 6144TIP3    H239924   2.519   0.872  11.896  1.8819 -1.8614 -3.5190
 6145TIP3   OH239925   6.392   3.027   3.396 -0.0247  0.0578 -0.0312
 6145TIP3    H139926   6.441   3.002   3.318  0.8536  1.6654 -0.0172
 6145TIP3    H239927   6.432   3.109   3.425 -1.3086  0.2668  1.2496
 6146TIP3   OH239928   6.138   4.237  14.948  0.0597 -0.4101 -0.0022
 6146TIP3    H139929   6.105   4.286  15.023 -0.0641 -1.2409  0.5006
 6146TIP3    H239930   6.152   4.303  14.880  1.0702  0.4974  1.0452
 6147TIP3   OH239931   2.564   0.762   4.248 -0.2469  0.5936 -0.7703
 6147TIP3    H139932   2.485   0.732   4.204  0.0582 -0.6653 -0.5153
 6147TIP3    H239933   2.569   0.856   4.229 -2.3613  0.9227  0.1004
 6148TIP3   OH239934   5.684   6.628   5.470 -0.3247 -0.2964  0.0123
 6148TIP3    H139935   5.654   6.537   5.473 -0.3611 -0.5181 -3.1937
 6148TIP3    H239936   5.722   6.637   5.383 -0.0296  2.7071  0.3537
 6149TIP3   OH239937   6.439   2.191   4.760 -0.4104  0.7984  0.3744
 6149TIP3    H139938   6.379   2.211   4.689  0.5677  0.1488 -0.6704
 6149TIP3    H239939   6.508   2.257   4.755  1.6089 -1.2488 -1.6619
 6150TIP3   OH239940   2.763   1.227  13.351 -0.1135 -0.8970 -0.0519
 6150TIP3    H139941   2.687   1.286  13.355 -1.5566 -2.6398 -0.1659
 6150TIP3    H239942   2.779   1.215  13.257 -0.2798 -1.2238 -0.0401
 6151TIP3   OH239943   2.328   2.767   2.514  0.4976  0.2466  0.0461
 6151TIP3    H139944   2.393   2.829   2.549 -0.6941  0.1484  2.6573
 6151TIP3    H239945   2.353   2.683   2.551 -0.7715  0.1134  0.6493
 6152TIP3   OH239946   0.534   6.564  12.121 -0.2192  0.4891 -0.3719
 6152TIP3    H139947   0.579   6.581  12.038 -0.2237  2.3687 -0.0153
 6152TIP3    H239948   0.601   6.576  12.188 -0.6867  0.9662  0.0179
 6153TIP3   OH239949   5.994   2.079   3.176 -0.3758  0.1390 -0.1640
 6153TIP3    H139950   6.050   2.080   3.098  1.0784  1.4842  0.8144
 6153TIP3    H239951   5.922   2.020   3.154  0.3879 -0.1036 -2.2279
 6154TIP3   OH239952   4.651   4.977   3.580  0.3339  0.1842 -0.1952
 6154TIP3    H139953   4.600   5.032   3.639 -0.4848 -0.6450 -0.1088
 6154TIP3    H239954   4.723   4.945   3.634  0.1745  0.2590  0.0638
 6155TIP3   OH239955   5.670   2.085  10.558 -0.3007 -0.2221  0.5629
 6155TIP3    H139956   5.617   2.164  10.567  0.6081  0.3260  1.3049
 6155TIP3    H239957   5.739   2.109  10.497 -1.7502 -1.4191 -1.6538
 6156TIP3   OH239958   2.330   1.915  12.728 -0.7474  0.2317  0.2488
 6156TIP3    H139959   2.351   2.001  12.693  1.4326 -0.4955 -0.3773
 6156TIP3    H239960   2.349   1.921  12.821  0.7878  0.0831 -0.0239
 6157TIP3   OH239961   0.615   3.310   6.571  0.1793  0.3511 -0.2076
 6157TIP3    H139962   0.658   3.287   6.489 -2.0560 -1.9266 -0.8987
 6157TIP3    H239963   0.526   3.274   6.561 -0.5920  1.2480  2.6647
 6158TIP3   OH239964   6.653   2.389  12.837 -0.1921 -0.4931  0.0385
 6158TIP3    H139965   6.596   2.343  12.776 -0.0008  2.1125 -2.3042
 6158TIP3    H239966   6.728   2.417  12.784 -0.0920  2.0387  1.3616
 6159TIP3   OH239967   6.281   1.644  12.821 -0.0673 -0.3783  0.1863
 6159TIP3    H139968   6.242   1.611  12.902 -1.8027 -0.0425 -0.4779
 6159TIP3    H239969   6.325   1.568  12.783  0.5105 -0.6081  1.2818
 6160TIP3   OH239970   1.114   1.595   5.168  0.1021 -0.4337  0.0044
 6160TIP3    H139971   1.106   1.531   5.239 -2.4946 -0.5923 -0.3525
 6160TIP3    H239972   1.119   1.680   5.212 -0.7567 -0.5814  0.3987
 6161TIP3   OH239973   2.565   6.150  11.734 -0.6852  0.2600  0.1650
 6161TIP3    H139974   2.628   6.094  11.687  0.5136  0.7868  1.1163
 6161TIP3    H239975   2.508   6.088  11.779  1.4912 -0.2994  2.3647
 6162TIP3   OH239976   1.078   2.655   0.524  0.3120  0.2002  0.0351
 6162TIP3    H139977   1.161   2.703   0.531 -0.0198  0.6348  1.2946
 6162TIP3    H239978   1.095   2.571   0.568  0.6591 -0.5740 -1.4851
 6163TIP3   OH239979   2.623   2.058  15.974 -0.2130 -0.6258 -0.3290
 6163TIP3    H139980   2.600   1.988  15.913  0.5460 -0.1633 -1.1591
 6163TIP3    H239981   2.673   2.013  16.043  0.7425 -0.8418 -1.1328
 6164TIP3   OH239982   0.274   3.641  16.776 -0.1769  0.0191 -0.4430
 6164TIP3    H139983   0.212   3.576  16.809 -1.6352  1.3815 -0.3821
 6164TIP3    H239984   0.240   3.665  16.691  0.1857  0.9284 -0.3371
 6165TIP3   OH239985   2.270   1.419  15.192  0.1104  0.3204 -0.1640
 6165TIP3    H139986   2.250   1.358  15.122  1.1209 -1.7571  1.2633
 6165TIP3    H239987   2.185   1.454  15.219 -0.8744 -2.5649  0.7805
 6166TIP3   OH239988   1.419   3.963  14.064 -0.5123  0.2203 -0.5511
 6166TIP3    H139989   1.409   4.008  13.981  0.1803 -0.0031 -0.7660
 6166TIP3    H239990   1.435   3.872  14.040  1.1104  0.3953 -0.2428
 6167TIP3   OH239991   4.334   5.881   4.049 -0.3074  0.0960  0.7142
 6167TIP3    H139992   4.407   5.871   3.989 -1.2390  0.6271 -0.5544
 6167TIP3    H239993   4.312   5.792   4.076  1.0926 -0.0429  1.5158
 6168TIP3   OH239994   6.708   0.011   3.761 -0.1669  0.3269  0.6841
 6168TIP3    H139995   6.702  -0.069   3.812 -1.1288 -1.2492 -1.7213
 6168TIP3    H239996   6.656  -0.007   3.682 -0.6039  3.3951  0.1336
 6169TIP3   OH239997   3.547   4.639  13.762  0.1364  0.5049  0.3779
 6169TIP3    H139998   3.472   4.593  13.726  0.5774 -0.0026  0.0980
 6169TIP3    H239999   3.598   4.667  13.686 -0.2913  1.7699  0.5228
 6170TIP3   OH240000   5.019   5.067   2.803  0.2003 -0.3346 -0.3865
 6170TIP3    H140001   4.924   5.065   2.791 -0.1723  0.0938  1.9682
 6170TIP3    H240002   5.051   5.124   2.733 -0.8745 -2.7244 -3.0166
 6171TIP3   OH240003   1.055   3.330  17.115 -0.1273 -0.4064  0.4000
 6171TIP3    H140004   1.019   3.242  17.129 -2.5369  0.6772  1.7592
 6171TIP3    H240005   1.040   3.375  17.198 -0.9156  1.8926 -0.8931
 6172TIP3   OH240006   5.250   0.121  15.413 -0.2516  0.0122  0.1532
 6172TIP3    H140007   5.339   0.135  15.445  0.3385  0.5383 -1.6061
 6172TIP3    H240008   5.231   0.198  15.359 -1.3196 -0.6421 -0.4512
 6173TIP3   OH240009   1.430   1.474  14.603  0.0936 -0.1190  0.8352
 6173TIP3    H140010   1.525   1.464  14.592 -0.1461 -2.1590  0.1946
 6173TIP3    H240011   1.420   1.521  14.686  1.6490 -1.1304  1.6343
 6174TIP3   OH240012   2.098   4.079   2.602 -0.4129  0.4146  0.3345
 6174TIP3    H140013   2.015   4.046   2.639  0.1995 -1.0748  0.4605
 6174TIP3    H240014   2.165   4.023   2.641  0.6408  1.4855  0.0831
 6175TIP3   OH240015   6.671   0.484  14.884  0.7946  0.2496 -0.0638
 6175TIP3    H140016   6.748   0.428  14.887  0.6216 -0.0584 -0.9563
 6175TIP3    H240017   6.616   0.453  14.956  1.2025  0.0219  0.1516
 6176TIP3   OH240018   0.477   5.325   0.237 -0.2936 -0.1211 -0.0472
 6176TIP3    H140019   0.506   5.244   0.194 -0.0392 -0.5601  0.9137
 6176TIP3    H240020   0.512   5.395   0.182  0.6242 -0.6654 -0.1827
 6177TIP3   OH240021   0.913   2.859  11.755  0.6031 -0.1564 -0.6469
 6177TIP3    H140022   0.868   2.891  11.676  1.5916 -0.3277 -1.2915
 6177TIP3    H240023   0.848   2.869  11.824  0.0355  0.9106 -1.2961
 6178TIP3   OH240024   4.889   5.198   4.418  0.4661  0.8755  0.4968
 6178TIP3    H140025   4.950   5.258   4.460 -0.7781  3.1549 -0.7583
 6178TIP3    H240026   4.944   5.141   4.365  1.8308 -0.3499  3.0279
 6179TIP3   OH240027   6.118   1.522  11.751  0.1345 -0.3278  0.2853
 6179TIP3    H140028   6.201   1.478  11.769  1.7897  1.7473 -1.6188
 6179TIP3    H240029   6.142   1.615  11.743 -1.9804  0.1091 -2.3199
 6180TIP3   OH240030   5.635   6.119   1.048  0.0794 -0.5214 -0.1968
 6180TIP3    H140031   5.574   6.115   1.122 -2.7493  0.2611 -2.3065
 6180TIP3    H240032   5.675   6.206   1.055  2.2459 -1.5802  2.0311
 6181TIP3   OH240033   5.563   1.814  14.374  0.4689 -0.2284 -0.2415
 6181TIP3    H140034   5.523   1.797  14.459 -0.3489  0.1182 -0.5443
 6181TIP3    H240035   5.551   1.908  14.360 -1.9280 -0.6729 -1.9309
 6182TIP3   OH240036   1.557   1.015  11.949 -0.4573  0.6669 -0.1091
 6182TIP3    H140037   1.574   1.094  11.897  0.5430  0.4236 -0.1821
 6182TIP3    H240038   1.502   0.961  11.892  1.0791  0.1625 -1.1938
 6183TIP3   OH240039   1.805   5.669  11.446 -0.3139 -0.4227 -0.3477
 6183TIP3    H140040   1.752   5.593  11.470  1.9479 -1.2398  2.7362
 6183TIP3    H240041   1.873   5.633  11.388  0.8555 -0.8948  1.2451
 6184TIP3   OH240042   4.022   5.752   6.099 -0.4211  0.3593  0.0213
 6184TIP3    H140043   3.966   5.817   6.056 -0.1729  1.0557  0.7274
 6184TIP3    H240044   3.961   5.684   6.129 -0.5905 -0.1977 -1.4762
 6185TIP3   OH240045   6.136   2.376  16.142  0.1699 -0.0201 -0.0110
 6185TIP3    H140046   6.169   2.356  16.054 -0.3061  2.1027 -0.7345
 6185TIP3    H240047   6.042   2.389  16.130  0.0196 -0.1849  0.9105
 6186TIP3   OH240048   1.591   6.306   2.306 -0.2356  0.6500 -0.0276
 6186TIP3    H140049   1.521   6.327   2.244 -0.6738 -1.1564 -0.2152
 6186TIP3    H240050   1.667   6.286   2.250 -0.9636 -2.2120 -0.1738
 6187TIP3   OH240051   3.091   0.897  12.727  0.0688  0.2312  0.7636
 6187TIP3    H140052   3.152   0.930  12.661  2.1505  0.9461  2.8943
 6187TIP3    H240053   3.120   0.808  12.746  0.9242  0.7834  2.2256
 6188TIP3   OH240054   3.705   4.807   3.091  0.3210 -0.4396  0.0690
 6188TIP3    H140055   3.779   4.842   3.041  0.7200 -0.1626  0.8502
 6188TIP3    H240056   3.736   4.801   3.181 -1.2475  1.7398  0.8597
 6189TIP3   OH240057   5.545   5.615   5.891 -0.1433  0.2299 -0.1458
 6189TIP3    H140058   5.554   5.520   5.889 -2.0557 -0.0712  1.6295
 6189TIP3    H240059   5.501   5.637   5.809  1.8518 -0.1494 -1.3772
 6190TIP3   OH240060   6.435   5.859   1.740 -0.4709  0.2363 -0.0235
 6190TIP3    H140061   6.409   5.788   1.800  1.7256 -1.2409 -0.6678
 6190TIP3    H240062   6.498   5.817   1.680 -0.0263  2.4679 -1.2146
 6191TIP3   OH240063   6.139   5.495   2.950  0.1815 -0.4260 -0.0688
 6191TIP3    H140064   6.133   5.404   2.979 -0.4016 -0.4560 -0.2672
 6191TIP3    H240065   6.130   5.546   3.030 -0.1573 -0.5335 -0.0340
 6192TIP3   OH240066   1.629   3.979  15.521  0.0813  0.5129 -0.6787
 6192TIP3    H140067   1.538   4.004  15.539  0.5748  0.5920  2.0268
 6192TIP3    H240068   1.630   3.884  15.533  0.4234  0.5468 -0.4537
 6193TIP3   OH240069   5.372   6.231  12.920 -0.0857  0.1857 -0.0751
 6193TIP3    H140070   5.460   6.236  12.956  0.3899  1.2277 -1.3353
 6193TIP3    H240071   5.367   6.302  12.856 -1.9031  0.2641  0.0941
 6194TIP3   OH240072   1.181   4.570  16.177 -0.4227 -0.3090  0.0329
 6194TIP3    H140073   1.262   4.618  16.193  0.1644 -1.5623  1.0731
 6194TIP3    H240074   1.165   4.523  16.259 -1.7111 -0.7880 -0.4727
 6195TIP3   OH240075   4.033   2.421  14.176  0.0008  0.0842  0.0445
 6195TIP3    H140076   3.992   2.365  14.242  1.2457 -0.9423 -0.0109
 6195TIP3    H240077   4.066   2.496  14.225 -0.5636  0.1522  0.3219
 6196TIP3   OH240078   3.361   4.477  13.608  0.4347  0.5670 -0.5517
 6196TIP3    H140079   3.435   4.507  13.555 -0.0140  1.6500 -0.5980
 6196TIP3    H240080   3.322   4.407  13.556  0.5495  0.9961 -1.2372
 6197TIP3   OH240081   1.768   3.126  16.675 -0.3948 -0.5925  0.1571
 6197TIP3    H140082   1.840   3.181  16.645 -0.7688 -0.7482 -1.1270
 6197TIP3    H240083   1.776   3.125  16.770  1.1567 -0.4361  0.0555
 6198TIP3   OH240084   4.819   3.090  15.418  0.4833 -0.2723 -0.0222
 6198TIP3    H140085   4.867   3.145  15.480  2.6049 -1.1424 -0.7837
 6198TIP3    H240086   4.874   3.012  15.408 -0.2334 -0.5565 -2.3249
 6199TIP3   OH240087   3.321   6.052  11.138 -0.1847 -0.3870  0.3220
 6199TIP3    H140088   3.376   6.025  11.212 -0.1675 -1.4139 -0.0505
 6199TIP3    H240089   3.346   5.993  11.067 -1.1306 -0.2655 -0.1177
 6200TIP3   OH240090   3.244   0.273  12.956  0.2562  0.3670  0.2670
 6200TIP3    H140091   3.322   0.320  12.928 -0.1549  0.4720 -0.7273
 6200TIP3    H240092   3.272   0.181  12.960  0.9415  0.6117  1.7968
 6201TIP3   OH240093   0.284   0.598   3.038  0.0188  0.1069  0.3612
 6201TIP3    H140094   0.258   0.576   3.127  1.0573  1.5217  1.0540
 6201TIP3    H240095   0.283   0.514   2.991  1.4045 -1.0081  2.2074
 6202TIP3   OH240096   3.128   4.260  16.671 -0.3218  0.5444  0.5093
 6202TIP3    H140097   3.212   4.226  16.640  0.5362  1.4809  1.6897
 6202TIP3    H240098   3.149   4.346  16.707 -2.1516  1.6853 -0.9701
 6203TIP3   OH240099   6.473   0.510  13.778  0.0657 -0.3893 -0.2675
 6203TIP3    H140100   6.407   0.519  13.710  0.0083 -2.0723 -0.4708
 6203TIP3    H240101   6.548   0.470  13.734 -0.1880 -2.0684  0.7409
 6204TIP3   OH240102   5.944   4.191  15.688 -0.4685  0.4123  0.0292
 6204TIP3    H140103   5.919   4.250  15.759  0.2217  1.6390 -0.7142
 6204TIP3    H240104   5.862   4.171  15.643 -1.0559 -1.1009  1.6673
 6205TIP3   OH240105   3.664   4.152  16.245  0.0363  0.2530 -0.2640
 6205TIP3    H140106   3.718   4.189  16.175 -1.0708  1.0315 -0.7414
 6205TIP3    H240107   3.625   4.073  16.205 -2.1993  1.7778 -1.3007
 6206TIP3   OH240108   4.763   2.594   3.564  0.0626  0.3416  0.0644
 6206TIP3    H140109   4.757   2.683   3.597 -1.0258  0.9008 -1.5089
 6206TIP3    H240110   4.820   2.548   3.626 -1.3945  1.4385  2.3373
 6207TIP3   OH240111   1.359   0.880   4.048  0.2540 -0.0867  0.0262
 6207TIP3    H140112   1.437   0.846   4.091  0.0199  0.2172  0.6963
 6207TIP3    H240113   1.348   0.824   3.971 -0.8490 -2.4207  1.7446
 6208TIP3   OH240114   6.428   3.942  16.404 -0.2717 -0.0251  1.0789
 6208TIP3    H140115   6.381   3.903  16.477 -3.4269  1.2442 -0.0978
 6208TIP3    H240116   6.373   3.924  16.327  0.1921  3.0603 -0.1332
 6209TIP3   OH240117   2.563   5.064   1.969 -0.4076 -0.3116  0.0349
 6209TIP3    H140118   2.468   5.060   1.976 -0.4466  0.0152 -0.2999
 6209TIP3    H240119   2.584   5.011   1.892 -0.4933  1.3572 -1.1617
 6210TIP3   OH240120   3.011   6.074   0.508 -0.5279 -0.1744 -0.5609
 6210TIP3    H140121   2.948   6.060   0.578 -0.7656  0.4374 -0.6425
 6210TIP3    H240122   3.052   5.988   0.493  1.1547  0.1097  1.8535
 6211TIP3   OH240123   1.299   3.750  13.585 -0.4926  0.1051  0.6802
 6211TIP3    H140124   1.294   3.844  13.603 -1.4610  0.0804  0.6121
 6211TIP3    H240125   1.219   3.730  13.536 -0.1785 -0.7116  0.4683
 6212TIP3   OH240126   6.840   6.571  12.117 -0.1224  0.5851 -0.3602
 6212TIP3    H140127   6.754   6.600  12.145 -0.2030 -0.5252  0.6053
 6212TIP3    H240128   6.901   6.632  12.158 -0.3432  0.0449  0.7884
 6213TIP3   OH240129   1.555   0.295   4.759  0.0069 -0.0374  0.3372
 6213TIP3    H140130   1.495   0.358   4.719  0.7743  0.8704  0.5729
 6213TIP3    H240131   1.521   0.209   4.733 -0.9356  0.4752 -0.1721
 6214TIP3   OH240132   3.173   0.717   0.960 -0.8157  0.0244  0.1742
 6214TIP3    H140133   3.205   0.723   0.870 -1.3541 -1.7779 -0.1871
 6214TIP3    H240134   3.095   0.661   0.955  0.5371 -2.2553  2.0141
 6215TIP3   OH240135   1.526   4.217  15.048  0.2300  0.3792  0.9620
 6215TIP3    H140136   1.466   4.290  15.036  0.6117  0.7433  1.2506
 6215TIP3    H240137   1.542   4.213  15.142 -0.6401 -0.7720  1.0935
 6216TIP3   OH240138   5.767   6.128  12.713  0.1513 -0.1922  0.0875
 6216TIP3    H140139   5.732   6.216  12.699 -0.0660 -0.1342  0.9302
 6216TIP3    H240140   5.690   6.071  12.713  0.4318 -0.6698 -2.3170
 6217TIP3   OH240141   3.887   5.578   0.450 -0.1946  0.1144  0.0552
 6217TIP3    H140142   3.800   5.600   0.417  0.3488  1.3420 -0.6586
 6217TIP3    H240143   3.880   5.586   0.545 -0.9713 -0.2642  0.0347
 6218TIP3   OH240144   1.013   1.626  12.534 -0.4330 -0.1576  0.7494
 6218TIP3    H140145   1.042   1.637  12.444 -1.7178  2.0138  0.5334
 6218TIP3    H240146   0.923   1.593  12.526 -0.1848 -1.0219  1.2948
 6219TIP3   OH240147   1.480   0.297   2.567  0.4332  0.6683 -0.2941
 6219TIP3    H140148   1.544   0.264   2.504  0.6282  1.4674 -0.5199
 6219TIP3    H240149   1.431   0.219   2.595  1.5236  0.0474 -0.0851
 6220TIP3   OH240150   6.065   3.139  16.142 -0.3147 -0.1147 -0.0080
 6220TIP3    H140151   6.150   3.176  16.115 -1.0426  0.3416 -1.8910
 6220TIP3    H240152   6.057   3.059  16.090 -1.7617  0.7542 -1.2184
 6221TIP3   OH240153   6.589   4.442  14.837  0.7039  0.2607 -0.6745
 6221TIP3    H140154   6.608   4.348  14.842  2.2035  0.6055  1.0385
 6221TIP3    H240155   6.671   4.485  14.859  0.1253  2.0159 -1.6980
 6222TIP3   OH240156   5.762   3.932   6.674 -0.2744 -0.3850  0.2105
 6222TIP3    H140157   5.812   4.003   6.634 -0.4102  0.0468  0.7910
 6222TIP3    H240158   5.670   3.959   6.666 -0.3016 -0.2872  0.8265
 6223TIP3   OH240159   6.349   1.402  14.825 -0.6085  0.1677 -0.0958
 6223TIP3    H140160   6.260   1.367  14.837 -0.9037  0.1326 -2.0186
 6223TIP3    H240161   6.370   1.382  14.734  2.3052 -1.8570  0.8691
 6224TIP3   OH240162   0.058   2.812   2.690  0.2521  0.0081  0.3507
 6224TIP3    H140163  -0.028   2.852   2.707  0.2484 -0.0928  0.5824
 6224TIP3    H240164   0.116   2.853   2.754  0.3214 -0.1050  0.3595
 6225TIP3   OH240165   2.032   5.279  15.705 -0.2264 -0.6813  0.3592
 6225TIP3    H140166   2.100   5.277  15.773 -0.1444 -0.2335  0.2950
 6225TIP3    H240167   2.073   5.238  15.629  0.6714  1.3387 -0.3028
 6226TIP3   OH240168   0.898   3.275   5.207 -0.1849 -0.3700  0.0985
 6226TIP3    H140169   0.877   3.358   5.251 -2.1392 -1.0656  0.5927
 6226TIP3    H240170   0.879   3.292   5.114  0.7313  0.1141 -0.0117
 6227TIP3   OH240171   2.041   6.060  13.379  0.1929 -0.1924 -0.0847
 6227TIP3    H140172   2.009   6.019  13.299  0.0976  1.5569 -1.0031
 6227TIP3    H240173   2.011   6.151  13.373 -1.2493 -0.3766  2.7647
 6228TIP3   OH240174   6.392   2.650   5.663  0.0143  0.2096  0.0839
 6228TIP3    H140175   6.374   2.558   5.683  2.1205 -0.1886  0.3505
 6228TIP3    H240176   6.464   2.648   5.600  1.2469  1.6621  1.3572
 6229TIP3   OH240177   0.145   1.141   2.515  0.1997 -0.0559 -0.1688
 6229TIP3    H140178   0.220   1.090   2.486  0.6698  0.1567  0.6329
 6229TIP3    H240179   0.177   1.189   2.592 -0.8384 -0.2050  0.3762
 6230TIP3   OH240180   3.650   0.171  12.297 -0.0399  0.2757  0.0937
 6230TIP3    H140181   3.557   0.191  12.311  0.2894  1.9368  0.0400
 6230TIP3    H240182   3.649   0.112  12.222 -0.9279  2.6609 -1.9183
 6231TIP3   OH240183   3.476   1.102   4.010  0.0472 -0.1709 -0.1848
 6231TIP3    H140184   3.449   1.068   4.095 -0.5961  0.4841 -0.1194
 6231TIP3    H240185   3.410   1.167   3.988  0.2925 -0.2302 -1.1214
 6232TIP3   OH240186   3.726   4.516   5.622 -0.0214 -0.0704  0.0899
 6232TIP3    H140187   3.801   4.562   5.661 -0.7692  0.8586  0.4754
 6232TIP3    H240188   3.737   4.425   5.649 -0.1607  0.4301  1.9425
 6233TIP3   OH240189   5.191   0.569   4.054 -0.4669  0.0647 -0.4484
 6233TIP3    H140190   5.113   0.613   4.089 -0.1974 -1.4410  2.2298
 6233TIP3    H240191   5.158   0.487   4.017 -0.1497 -0.8070  1.1361
 6234TIP3   OH240192   5.134   6.220  13.890 -0.0788  0.2656  0.4127
 6234TIP3    H140193   5.220   6.198  13.926  0.8692  0.8241 -1.3676
 6234TIP3    H240194   5.085   6.138  13.894  0.5927 -0.1042  1.3049
 6235TIP3   OH240195   2.687   0.972  14.042  0.0896 -0.1466 -0.1892
 6235TIP3    H140196   2.595   0.995  14.030  1.1159  3.7831 -2.3102
 6235TIP3    H240197   2.715   0.939  13.956  0.7054 -1.2896  0.4231
 6236TIP3   OH240198   2.136   1.245  15.438 -0.5240 -0.5197  0.2786
 6236TIP3    H140199   2.142   1.237  15.533  0.8311 -0.1760  0.2422
 6236TIP3    H240200   2.095   1.330  15.423  0.1022 -0.1698  0.5476
 6237TIP3   OH240201   2.697   5.800   1.913  0.6673  0.5619  0.2749
 6237TIP3    H140202   2.727   5.804   2.004 -0.4820  0.3165  0.6765
 6237TIP3    H240203   2.622   5.859   1.909  1.9350  2.1585 -1.0361
 6238TIP3   OH240204   5.125   0.070   5.180 -0.3257 -0.3838 -0.3444
 6238TIP3    H140205   5.054   0.133   5.192  1.1268  1.1196  0.7699
 6238TIP3    H240206   5.100  -0.004   5.234 -0.4880  0.6368  1.0299
 6239TIP3   OH240207   1.002   0.136  14.905  0.1066 -1.1027  0.5845
 6239TIP3    H140208   0.945   0.081  14.959 -0.8612  0.0093  0.7219
 6239TIP3    H240209   1.012   0.217  14.954 -3.1370  1.1309 -1.9930
 6240TIP3   OH240210   3.823   5.860  12.424 -0.5436 -0.2778  0.3603
 6240TIP3    H140211   3.811   5.782  12.480 -0.1855 -0.6146 -0.0180
 6240TIP3    H240212   3.790   5.834  12.339  1.9700 -0.9862 -0.5080
 6241TIP3   OH240213   5.054   4.764  13.851  0.1355  0.2717 -0.4388
 6241TIP3    H140214   5.100   4.848  13.854  0.0651  0.2874  0.4386
 6241TIP3    H240215   5.111   4.708  13.798  1.2010  0.2998  0.6129
 6242TIP3   OH240216   1.702   6.045  17.161  0.1173 -0.1201  0.0444
 6242TIP3    H140217   1.646   6.093  17.221  0.5865  0.0029  0.3891
 6242TIP3    H240218   1.647   5.975  17.127 -0.4306  0.3774 -0.0999
 6243TIP3   OH240219   6.759   2.798   0.031 -0.4392 -0.7033  0.0032
 6243TIP3    H140220   6.767   2.705   0.054  0.3831 -0.6862 -0.2103
 6243TIP3    H240221   6.684   2.829   0.083 -0.9060 -1.5473 -0.1459
 6244TIP3   OH240222   1.954   3.798  14.833  0.1270  0.2836  0.2926
 6244TIP3    H140223   1.976   3.796  14.740  0.4494  0.6320  0.3588
 6244TIP3    H240224   1.955   3.891  14.856  0.9037  0.1512  0.8348
 6245TIP3   OH240225   1.197   2.952  13.567 -0.6816 -0.9412  0.2919
 6245TIP3    H140226   1.290   2.942  13.587 -0.5707 -0.8884 -0.2023
 6245TIP3    H240227   1.153   2.903  13.637 -0.3542  0.4360  1.5064
 6246TIP3   OH240228   0.921   2.385   0.516  0.4934  0.1977  0.3979
 6246TIP3    H140229   0.927   2.316   0.582  0.5247  0.3867  0.5935
 6246TIP3    H240230   0.863   2.451   0.555 -0.6624 -0.3449 -0.3380
 6247TIP3   OH240231   5.619   4.317   0.352 -0.2150 -0.3005 -0.1763
 6247TIP3    H140232   5.702   4.312   0.399 -0.0437  1.1756 -0.2918
 6247TIP3    H240233   5.553   4.295   0.417  0.1037  0.6209  0.4707
 6248TIP3   OH240234   4.750   3.069   2.135  0.2823  0.2249 -0.1900
 6248TIP3    H140235   4.833   3.052   2.090  0.5358 -0.6895  0.5816
 6248TIP3    H240236   4.747   3.003   2.204 -0.7787  0.6802  0.2133
 6249TIP3   OH240237   3.945   4.166  14.004 -0.2722 -0.0923  1.1334
 6249TIP3    H140238   3.916   4.098  13.943  1.4904 -0.1747  0.3194
 6249TIP3    H240239   4.005   4.121  14.064 -0.1712  0.4659  1.4646
 6250TIP3   OH240240   1.293   0.651  14.643  0.0081 -0.0064  0.5881
 6250TIP3    H140241   1.249   0.637  14.560 -0.5322 -1.6257  1.0959
 6250TIP3    H240242   1.386   0.651  14.622 -0.1588  1.5717 -0.2490
 6251TIP3   OH240243   5.599   1.592  10.486 -0.6068 -0.2912  0.4216
 6251TIP3    H140244   5.689   1.624  10.481 -1.0939  1.0342 -0.3816
 6251TIP3    H240245   5.571   1.614  10.575 -0.7680  1.1721  0.0458
 6252TIP3   OH240246   2.179   5.536  12.741 -0.0213 -0.0747  0.3237
 6252TIP3    H140247   2.095   5.493  12.728 -0.5209  0.7463  0.7843
 6252TIP3    H240248   2.228   5.518  12.660 -0.4789 -0.8925  0.2221
 6253TIP3   OH240249   1.623   2.660   0.627  0.6895  0.2615  0.1421
 6253TIP3    H140250   1.595   2.746   0.660  1.2896  0.6510 -0.3350
 6253TIP3    H240251   1.703   2.678   0.579 -0.0218 -0.3246 -1.3348
 6254TIP3   OH240252   1.557   4.612   4.985 -0.4258  0.4274  0.4359
 6254TIP3    H140253   1.531   4.531   4.943 -0.8712  1.0972 -0.6166
 6254TIP3    H240254   1.489   4.675   4.961  0.1193  1.2107  0.8917
 6255TIP3   OH240255   5.973   3.025  14.507  0.2089  0.1375 -0.8201
 6255TIP3    H140256   6.034   2.954  14.485 -0.1033 -0.0181 -1.1856
 6255TIP3    H240257   5.900   2.981  14.550  0.8165  0.4357  0.5958
 6256TIP3   OH240258   4.317   5.183  12.132  0.2389  0.3223 -0.4573
 6256TIP3    H140259   4.278   5.215  12.213  0.0142  0.5110 -0.6353
 6256TIP3    H240260   4.407   5.159  12.155  0.8721  2.3895 -0.5929
 6257TIP3   OH240261   0.996   0.492  16.828  0.3526 -0.1453 -0.2232
 6257TIP3    H140262   1.066   0.436  16.862 -0.2468  0.5180  2.3715
 6257TIP3    H240263   1.033   0.532  16.750  2.0667 -1.4406 -0.1358
 6258TIP3   OH240264   3.022   0.439  11.352 -0.2465  0.5056 -0.1499
 6258TIP3    H140265   2.981   0.382  11.287  0.3758  1.4594 -1.4411
 6258TIP3    H240266   2.949   0.482  11.397 -0.7861 -2.3331  1.9062
 6259TIP3   OH240267   6.147   6.325  16.890 -0.4720 -0.2014  0.3735
 6259TIP3    H140268   6.183   6.298  16.806 -3.1599 -1.5927 -0.4587
 6259TIP3    H240269   6.093   6.402  16.868 -1.0879 -0.5014  0.8013
 6260TIP3   OH240270   6.451   3.671   2.798  0.4724  0.0366  0.2357
 6260TIP3    H140271   6.537   3.714   2.790  0.5320 -0.3605 -1.9900
 6260TIP3    H240272   6.470   3.578   2.788 -0.0723 -0.1856  1.2254
 6261TIP3   OH240273   2.704   6.367   4.652  0.0844  0.5109 -0.0415
 6261TIP3    H140274   2.783   6.325   4.617  0.5740  2.5198 -1.5308
 6261TIP3    H240275   2.727   6.460   4.659 -1.5154  0.8426  1.4021
 6262TIP3   OH240276   0.282   1.354  10.537  0.0243  0.0520 -0.1470
 6262TIP3    H140277   0.190   1.363  10.510  0.0928  0.5812 -0.2255
 6262TIP3    H240278   0.307   1.442  10.565  0.3145 -0.2372  0.5112
 6263TIP3   OH240279   6.546   3.105  15.838 -0.1772 -0.7645  0.1420
 6263TIP3    H140280   6.528   3.189  15.796 -0.9012 -1.7807 -1.6823
 6263TIP3    H240281   6.460   3.065  15.849  0.1904 -1.4171  0.7118
 6264TIP3   OH240282   4.340   6.279  13.840  0.3026  0.2816 -0.2569
 6264TIP3    H140283   4.365   6.241  13.756  0.2260  0.8487 -0.5383
 6264TIP3    H240284   4.357   6.372  13.831  0.6438  0.3005  0.4886
 6265TIP3   OH240285   2.486   6.703   1.818  0.5882  0.2664 -0.9573
 6265TIP3    H140286   2.536   6.622   1.832 -1.3146 -0.6241  1.4216
 6265TIP3    H240287   2.516   6.760   1.889  0.4628  0.9018 -1.4155
 6266TIP3   OH240288   2.293   3.064  11.427  0.5619  0.7122  0.1684
 6266TIP3    H140289   2.349   3.126  11.474 -0.5027  1.3175  0.6703
 6266TIP3    H240290   2.211   3.111  11.413  0.3052 -0.0259 -0.9001
 6267TIP3   OH240291   0.455   1.766  10.309  0.4932 -0.2249 -0.3963
 6267TIP3    H140292   0.461   1.861  10.296 -2.6730  0.3453  1.2297
 6267TIP3    H240293   0.543   1.740  10.339  1.0721  2.4499  0.4971
 6268TIP3   OH240294   4.968   3.820   3.054  0.0045 -0.2041  0.3970
 6268TIP3    H140295   4.925   3.889   3.104  0.0213  1.1452 -1.3473
 6268TIP3    H240296   5.030   3.866   2.998 -0.4088 -1.5696 -1.2719
 6269TIP3   OH240297   0.272   4.024   4.815  0.2514 -0.0644 -0.0350
 6269TIP3    H140298   0.334   3.990   4.879  1.4087  1.6181 -0.2001
 6269TIP3    H240299   0.327   4.060   4.745 -0.9578 -0.1800 -1.0780
 6270TIP3   OH240300   2.050   3.203  13.304  0.5772 -0.0421  0.4175
 6270TIP3    H140301   1.957   3.181  13.306  0.7369 -0.7529  0.1519
 6270TIP3    H240302   2.091   3.141  13.365  0.7073  1.1540  1.6258
 6271TIP3   OH240303   2.311   3.065   6.292 -0.2847  0.0617  0.2608
 6271TIP3    H140304   2.238   3.031   6.240 -1.5232  2.2996  0.3997
 6271TIP3    H240305   2.269   3.118   6.360  1.4646  0.9846  0.6927
 6272TIP3   OH240306   4.212   4.061  15.673  0.2638  0.0778  1.4979
 6272TIP3    H140307   4.274   4.004  15.629 -1.3115 -2.1800  2.0354
 6272TIP3    H240308   4.158   4.097  15.602  0.9984  0.5995  1.1911
 6273TIP3   OH240309   0.584   3.541   1.524  0.0720 -0.2360  0.3702
 6273TIP3    H140310   0.662   3.486   1.531 -0.4263 -1.2107 -1.3122
 6273TIP3    H240311   0.598   3.593   1.445 -0.4713  0.4365  0.7066
 6274TIP3   OH240312   5.201   6.355   5.490 -0.2585  0.2916  0.2398
 6274TIP3    H140313   5.261   6.298   5.442 -0.8132  0.1808 -0.3381
 6274TIP3    H240314   5.118   6.307   5.492  0.5074 -1.2756  4.2370
 6275TIP3   OH240315   6.662   2.742  11.753 -0.1375  0.2788  0.4743
 6275TIP3    H140316   6.586   2.704  11.798  0.7041  0.0163  1.7421
 6275TIP3    H240317   6.628   2.774  11.670 -1.2677 -1.5597  0.1695
 6276TIP3   OH240318   6.827   4.739  16.444 -0.4816 -0.5298 -0.0646
 6276TIP3    H140319   6.831   4.676  16.516  1.6852 -0.4935 -0.0805
 6276TIP3    H240320   6.741   4.726  16.405 -0.4529 -2.8313  0.5014
 6277TIP3   OH240321   3.719   3.381   2.432 -0.2769 -0.4016 -0.0895
 6277TIP3    H140322   3.787   3.445   2.412  0.6202 -0.9400  1.1384
 6277TIP3    H240323   3.667   3.376   2.351  0.7519  0.4762 -0.8399
 6278TIP3   OH240324   6.238   1.248   3.394  0.4519 -0.3709  0.0279
 6278TIP3    H140325   6.313   1.272   3.340  1.3117 -2.5308  0.1406
 6278TIP3    H240326   6.163   1.250   3.334  0.9418 -0.1561 -0.5892
 6279TIP3   OH240327   4.608   5.280   2.119 -0.0378 -0.7727  0.2970
 6279TIP3    H140328   4.698   5.296   2.149 -0.6227  0.5152  1.4989
 6279TIP3    H240329   4.590   5.352   2.059 -0.6171 -0.3705  0.9317
 6280TIP3   OH240330   2.061   1.001  12.042 -0.5102  0.5743  0.1672
 6280TIP3    H140331   1.980   1.041  12.075 -1.8444  0.0869 -2.2432
 6280TIP3    H240332   2.031   0.936  11.978  1.7898  2.4201 -3.0510
 6281TIP3   OH240333   3.368   2.382   6.462 -0.0451  0.4809 -0.3667
 6281TIP3    H140334   3.402   2.464   6.499  1.0137 -0.3260  0.5063
 6281TIP3    H240335   3.444   2.325   6.456 -0.5384 -0.0605 -2.1087
 6282TIP3   OH240336   2.928   0.740  10.741  0.2434  0.5932 -0.4564
 6282TIP3    H140337   2.987   0.725  10.667  0.3170  0.9275 -0.4684
 6282TIP3    H240338   2.945   0.831  10.767  0.3303  0.4273  0.0706
 6283TIP3   OH240339   4.790   6.261  15.656 -0.2740  0.6679  1.2720
 6283TIP3    H140340   4.839   6.224  15.729  1.7568  1.4532  0.3938
 6283TIP3    H240341   4.813   6.354  15.656 -1.5538  1.0089  0.6305
 6284TIP3   OH240342   3.440   5.532  11.757 -0.2076  0.5099  0.4461
 6284TIP3    H140343   3.419   5.600  11.693 -1.2765  1.5729  1.8372
 6284TIP3    H240344   3.438   5.450  11.707 -1.1852  1.2795 -0.8391
 6285TIP3   OH240345   1.779   4.569   3.782 -0.1619 -0.0293 -0.0542
 6285TIP3    H140346   1.775   4.518   3.863 -0.9907 -0.0821 -0.1174
 6285TIP3    H240347   1.687   4.588   3.761  0.0966  0.8942 -0.4097
 6286TIP3   OH240348   1.869   4.802  15.370 -0.2313 -0.0227  0.2690
 6286TIP3    H140349   1.790   4.748  15.375  0.3212 -1.0371 -1.0868
 6286TIP3    H240350   1.899   4.810  15.460 -1.3988 -0.3552  0.7039
 6287TIP3   OH240351   1.068   6.074  10.965 -0.1707 -0.1499 -0.0083
 6287TIP3    H140352   1.024   6.093  10.882  0.2587  0.2939 -0.1333
 6287TIP3    H240353   1.157   6.105  10.954 -0.3155  0.6591  0.8976
 6288TIP3   OH240354   2.560   6.567  13.803 -0.1090  0.5281 -0.5580
 6288TIP3    H140355   2.473   6.529  13.792 -0.0099 -0.0662  0.5811
 6288TIP3    H240356   2.593   6.577  13.713 -1.9634  2.3264 -1.1423
 6289TIP3   OH240357   0.739   3.139  15.301  0.0204 -0.2357  0.5382
 6289TIP3    H140358   0.673   3.206  15.283 -1.5307 -1.0298  2.8024
 6289TIP3    H240359   0.731   3.078  15.227  2.0152  2.3094 -1.9835
 6290TIP3   OH240360   4.962   4.036   3.854 -0.1295  0.6015  0.1309
 6290TIP3    H140361   4.964   3.961   3.913 -1.0050  0.3941 -0.0818
 6290TIP3    H240362   4.882   4.024   3.803  0.8668  0.5073 -1.4615
 6291TIP3   OH240363   0.776   3.714   4.388  0.0345 -0.1656  0.1620
 6291TIP3    H140364   0.794   3.788   4.329 -1.3961  0.2342  0.1823
 6291TIP3    H240365   0.742   3.646   4.330 -1.3117  0.2050  0.4832
 6292TIP3   OH240366   6.454   4.824  15.107 -0.1429 -0.0270 -1.0784
 6292TIP3    H140367   6.470   4.856  15.018  1.8723  0.2094 -0.6766
 6292TIP3    H240368   6.541   4.824  15.149 -0.5096 -2.9825 -0.0533
 6293TIP3   OH240369   2.715   3.204  11.669 -0.8016  0.3216  0.2569
 6293TIP3    H140370   2.796   3.252  11.649 -0.2784 -0.2324  0.9655
 6293TIP3    H240371   2.740   3.112  11.665 -1.4099  0.1430  0.4476
 6294TIP3   OH240372   3.938   2.724   2.720  0.1217  0.5097 -0.3607
 6294TIP3    H140373   3.963   2.659   2.655 -0.3936 -1.1220  1.0000
 6294TIP3    H240374   3.858   2.690   2.759  0.9067  0.9294  1.7777
 6295TIP3   OH240375   5.779   4.102  13.701 -0.0522 -0.0389 -0.4281
 6295TIP3    H140376   5.740   4.179  13.660 -0.3707  1.1772  1.9807
 6295TIP3    H240377   5.744   4.028  13.651 -1.6913  1.2573 -1.2886
 6296TIP3   OH240378   0.796   1.237  12.646  0.3156  0.6434  0.2018
 6296TIP3    H140379   0.809   1.332  12.641  1.1799  0.5065 -0.4975
 6296TIP3    H240380   0.849   1.203  12.574 -0.7656 -0.3075 -0.1634
 6297TIP3   OH240381   4.344   4.577   4.430  0.5953  0.0270  0.3362
 6297TIP3    H140382   4.306   4.507   4.377  0.2532  0.8383 -0.5048
 6297TIP3    H240383   4.417   4.535   4.476  0.1982 -0.9530  0.0883
 6298TIP3   OH240384   0.788   0.117   5.597  0.0826 -0.2389 -0.5562
 6298TIP3    H140385   0.839   0.064   5.658  0.6651  1.0677  0.1353
 6298TIP3    H240386   0.728   0.167   5.652  1.6867  2.1446 -0.8202
 6299TIP3   OH240387   5.152   0.941  12.490 -0.2463  0.2564  0.1066
 6299TIP3    H140388   5.167   0.881  12.564  1.5206  2.6935  1.9217
 6299TIP3    H240389   5.094   1.008  12.526 -0.9780  0.4427 -1.3815
 6300TIP3   OH240390   4.359   6.426  15.974  0.2505 -0.2289  0.1376
 6300TIP3    H140391   4.291   6.481  15.935  0.8749 -0.0909 -0.7706
 6300TIP3    H240392   4.314   6.344  15.995 -0.5164  0.3513  0.8408
 6301TIP3   OH240393   2.580   2.889  12.474  0.3329  0.2944 -0.3878
 6301TIP3    H140394   2.567   2.889  12.379 -1.1529  0.0680 -0.2058
 6301TIP3    H240395   2.572   2.981  12.499  1.6278  0.4773 -0.5698
 6302TIP3   OH240396   5.525   3.686  11.696  0.2095  0.6818 -0.2962
 6302TIP3    H140397   5.533   3.614  11.758 -1.5229  0.5193 -0.2092
 6302TIP3    H240398   5.437   3.722  11.712 -0.0089  1.0737 -2.1719
 6303TIP3   OH240399   6.372   5.831   5.048  0.5999  0.4092 -0.1064
 6303TIP3    H140400   6.456   5.857   5.011  0.7646  1.3360  0.8786
 6303TIP3    H240401   6.328   5.785   4.977  1.6247  0.5744 -0.8754
 6304TIP3   OH240402   4.532   6.383   3.993  0.2237 -0.0443 -0.4028
 6304TIP3    H140403   4.599   6.328   3.950 -0.3396 -0.5404 -0.6659
 6304TIP3    H240404   4.453   6.329   3.992 -0.1385  0.4690  0.0679
 6305TIP3   OH240405   2.067   0.005  17.022 -0.1397  0.2134  0.0226
 6305TIP3    H140406   2.128   0.051  16.965  0.3946  1.9238  1.8663
 6305TIP3    H240407   2.116  -0.011  17.103 -1.7835  0.7619  1.1916
 6306TIP3   OH240408   3.916   6.291  10.505 -0.0831  0.3740  0.2971
 6306TIP3    H140409   3.875   6.243  10.433  1.7450  0.7430 -1.0578
 6306TIP3    H240410   3.865   6.267  10.582 -1.4255 -0.9077 -0.9362
 6307TIP3   OH240411   6.799   4.272  13.568  0.3563  0.3293  0.3969
 6307TIP3    H140412   6.846   4.319  13.499 -1.0342  0.3459 -0.5896
 6307TIP3    H240413   6.777   4.340  13.632  0.3608  0.5962  0.1208
 6308TIP3   OH240414   5.936   0.312  11.722 -0.5477  0.6777  0.5104
 6308TIP3    H140415   5.979   0.382  11.771 -2.5686  1.6922  0.9505
 6308TIP3    H240416   5.859   0.290  11.774  0.0725 -1.9940  0.4255
 6309TIP3   OH240417   4.882   3.343  14.451  0.1800  0.0065 -0.3752
 6309TIP3    H140418   4.828   3.368  14.376 -1.0542  1.3566  0.8717
 6309TIP3    H240419   4.879   3.420  14.508  0.9489 -1.0266  1.1195
 6310TIP3   OH240420   6.111   4.217   1.224 -0.5942  0.5347 -0.5842
 6310TIP3    H140421   6.149   4.140   1.181  2.1010  0.9611  0.8291
 6310TIP3    H240422   6.115   4.196   1.317 -1.2443  1.7826 -0.2671
 6311TIP3   OH240423   5.352   3.387   6.336  0.0424  0.0739 -0.2632
 6311TIP3    H140424   5.263   3.352   6.335 -0.6187  1.6641 -0.3852
 6311TIP3    H240425   5.400   3.330   6.396 -1.3511 -0.1371  0.6843
 6312TIP3   OH240426   2.064   4.213   4.894  0.2702 -0.3451 -0.2119
 6312TIP3    H140427   2.124   4.283   4.868  1.2320 -0.1455  2.2505
 6312TIP3    H240428   2.017   4.249   4.969  1.3204 -2.5328  1.6132
 6313TIP3   OH240429   5.595   3.909   1.171  0.2985 -0.1568  0.2676
 6313TIP3    H140430   5.660   3.945   1.110 -0.1841 -0.5049 -0.4529
 6313TIP3    H240431   5.511   3.932   1.133 -0.0135 -1.1852  0.3068
 6314TIP3   OH240432   1.459   3.391   6.472 -0.0815  0.5242  0.8047
 6314TIP3    H140433   1.541   3.420   6.512  0.7404 -0.2630 -0.2466
 6314TIP3    H240434   1.454   3.298   6.490 -0.9260  0.6199  1.1300
 6315TIP3   OH240435   1.994   0.464   6.475 -0.6612  0.6873 -0.4673
 6315TIP3    H140436   2.053   0.449   6.401 -0.4386  0.9272 -0.3348
 6315TIP3    H240437   2.048   0.452   6.552 -0.5178  2.0367 -0.3510
 6316TIP3   OH240438   5.486   2.660  16.171  0.2812 -0.6119 -0.0384
 6316TIP3    H140439   5.459   2.573  16.202  0.6101 -1.0660 -0.9691
 6316TIP3    H240440   5.485   2.715  16.249  0.3803 -1.5320  0.6301
 6317TIP3   OH240441   1.156   2.192   0.716 -0.3097 -0.0392 -0.3273
 6317TIP3    H140442   1.149   2.101   0.686 -0.3448 -0.5315  1.1109
 6317TIP3    H240443   1.202   2.186   0.799  0.9110  1.4100 -0.8611
 6318TIP3   OH240444   5.154   2.454   5.596  0.0084 -0.5619 -0.1105
 6318TIP3    H140445   5.129   2.362   5.606  1.4346 -0.7451  3.3279
 6318TIP3    H240446   5.090   2.502   5.649  0.2442  0.2567 -0.5469
 6319TIP3   OH240447   4.282   3.822   2.760  0.3535  0.1265 -0.4447
 6319TIP3    H140448   4.248   3.732   2.759 -0.7319  0.5262 -0.7575
 6319TIP3    H240449   4.224   3.869   2.819 -1.1836  1.3674 -2.7928
 6320TIP3   OH240450   6.564   3.581   0.848 -0.3717 -0.2602 -0.1354
 6320TIP3    H140451   6.574   3.600   0.941 -1.4641 -1.0405  0.1548
 6320TIP3    H240452   6.526   3.661   0.811  2.1857  0.9323 -0.3819
 6321TIP3   OH240453   6.715   3.302   0.372 -0.3434  0.1545  0.1668
 6321TIP3    H140454   6.623   3.309   0.349 -0.8545 -1.3930  1.5277
 6321TIP3    H240455   6.730   3.374   0.433 -0.7425  0.2071  0.2074
 6322TIP3   OH240456   0.495   2.997  12.281 -0.1757 -1.0310  0.0912
 6322TIP3    H140457   0.445   2.921  12.252  2.5935 -2.6439 -0.8821
 6322TIP3    H240458   0.574   2.960  12.319  0.3331  1.3638  1.5647
 6323TIP3   OH240459   2.319   6.483  15.637  0.3160  0.1752  0.2240
 6323TIP3    H140460   2.302   6.572  15.606 -0.6468  0.3788  1.2823
 6323TIP3    H240461   2.234   6.451  15.667  1.2017  0.1567  3.0145
 6324TIP3   OH240462   1.805   1.906   2.218  0.0430 -0.8374  0.8704
 6324TIP3    H140463   1.824   1.993   2.184  0.1035 -0.2301  2.3909
 6324TIP3    H240464   1.830   1.846   2.147  1.8185  0.2636  0.5105
 6325TIP3   OH240465   1.628   1.353  12.112  0.3110 -0.1199 -0.3730
 6325TIP3    H140466   1.613   1.421  12.176 -0.0250 -0.9365  0.4413
 6325TIP3    H240467   1.640   1.399  12.029  0.3743  0.9238  0.2100
 6326TIP3   OH240468   1.123   3.093   0.242  0.5633  0.0053  0.1741
 6326TIP3    H140469   1.089   3.047   0.165 -1.1014 -1.0844  1.4902
 6326TIP3    H240470   1.049   3.098   0.302  1.3761  2.2727  1.1034
 6327TIP3   OH240471   0.925   3.596  15.230  0.0634  0.2313 -0.1111
 6327TIP3    H140472   1.010   3.616  15.270  0.5791 -0.0908 -1.0088
 6327TIP3    H240473   0.872   3.562  15.302  0.4615  1.0960  0.6046
 6328TIP3   OH240474   3.280   4.754   4.113  0.6342 -0.0334 -0.5558
 6328TIP3    H140475   3.330   4.835   4.119 -0.1267  0.5471 -1.6711
 6328TIP3    H240476   3.241   4.756   4.026 -0.0388 -1.2254 -0.3069
 6329TIP3   OH240477   0.557   3.532   5.468  0.0862  0.5610  0.4213
 6329TIP3    H140478   0.491   3.598   5.491 -0.8184 -0.0672 -0.3208
 6329TIP3    H240479   0.513   3.474   5.406  1.4823  0.3660 -0.4150
 6330TIP3   OH240480   0.666   2.856   5.405  0.2765 -0.3743 -0.1709
 6330TIP3    H140481   0.658   2.815   5.320  0.0909  0.6397 -0.6546
 6330TIP3    H240482   0.648   2.948   5.390 -0.1018 -0.2267  1.0261
 6331TIP3   OH240483   4.537   4.480  11.829 -0.4170 -0.0305  0.5984
 6331TIP3    H140484   4.460   4.429  11.805 -0.1929 -0.6581  1.1922
 6331TIP3    H240485   4.555   4.456  11.920 -0.7485  1.6530  1.1527
 6332TIP3   OH240486   5.682   1.905   6.301 -0.3995 -0.0999  0.1641
 6332TIP3    H140487   5.590   1.899   6.276  0.0819 -0.3113 -1.7764
 6332TIP3    H240488   5.695   1.832   6.361 -1.3442 -0.5172 -0.1108
 6333TIP3   OH240489   3.997   0.308   3.944 -0.3637  0.2564  0.0922
 6333TIP3    H140490   3.983   0.242   3.876  0.6525 -0.0119  0.1239
 6333TIP3    H240491   4.024   0.258   4.021 -2.0164  0.5133  0.8864
 6334TIP3   OH240492   0.579   4.274  10.915 -0.1995  0.2390  0.2476
 6334TIP3    H140493   0.654   4.230  10.875  0.9801  2.2961  0.0038
 6334TIP3    H240494   0.516   4.283  10.844  0.9482  1.8540 -0.6360
 6335TIP3   OH240495   2.143   0.524  14.347  0.1054  0.4220  0.7059
 6335TIP3    H140496   2.193   0.444  14.364  0.2448  0.6220  1.2664
 6335TIP3    H240497   2.192   0.593  14.392 -0.9408  0.5448  1.7026
 6336TIP3   OH240498   5.632   6.523   4.905 -0.6615  0.1288  0.3026
 6336TIP3    H140499   5.705   6.478   4.947  0.0359 -0.2787 -1.2558
 6336TIP3    H240500   5.663   6.542   4.817 -1.4890  2.3559  0.4256
 6337TIP3   OH240501   6.077   2.543  13.177  0.0718 -0.1419  0.4404
 6337TIP3    H140502   6.131   2.520  13.102  0.3742 -0.8908  0.8827
 6337TIP3    H240503   6.040   2.629  13.154  0.6991 -0.0485 -0.2638
 6338TIP3   OH240504   3.304   0.378  10.477 -0.4050  0.0932 -0.2283
 6338TIP3    H140505   3.366   0.371  10.404  1.1148  2.0167  0.7779
 6338TIP3    H240506   3.344   0.329  10.549 -0.7209  0.2147  0.0346
 6339TIP3   OH240507   1.275   0.314  12.314 -0.2428 -0.1317 -0.5696
 6339TIP3    H140508   1.207   0.342  12.376 -0.0651 -0.3117 -0.2914
 6339TIP3    H240509   1.315   0.238  12.356 -0.3933 -0.5017 -1.0926
 6340TIP3   OH240510   1.431   4.001  14.892 -0.2968 -0.1045 -0.1909
 6340TIP3    H140511   1.518   3.961  14.897  0.3396  1.3183  0.7192
 6340TIP3    H240512   1.440   4.085  14.937 -1.4660  1.2768 -2.3441
 6341TIP3   OH240513   3.294   3.989   4.173  0.7927  0.2169 -0.0772
 6341TIP3    H140514   3.331   4.039   4.245  1.4623  0.5066 -0.6089
 6341TIP3    H240515   3.307   4.045   4.096  0.5752 -0.3114 -0.5054
 6342TIP3   OH240516   0.135   4.311   2.063  0.0650  0.1323  0.7635
 6342TIP3    H140517   0.190   4.385   2.090  0.4868  0.3289 -0.5599
 6342TIP3    H240518   0.046   4.345   2.064  0.3626  1.1263 -1.1607
 6343TIP3   OH240519   0.047   4.023   5.186 -0.3287  0.0432  0.0419
 6343TIP3    H140520  -0.016   3.974   5.240  0.1879 -0.6194  0.0628
 6343TIP3    H240521   0.089   3.955   5.133 -2.0087  0.8215 -2.4935
 6344TIP3   OH240522   5.208   0.673   0.293 -0.1536  0.8465 -0.3584
 6344TIP3    H140523   5.262   0.599   0.318  0.1175  1.4989  1.1587
 6344TIP3    H240524   5.128   0.634   0.257 -0.1926 -0.2109  0.7833
 6345TIP3   OH240525   2.201   6.019   5.477 -0.4490 -0.7614  0.3090
 6345TIP3    H140526   2.245   5.971   5.547 -1.0250 -1.0251  0.4999
 6345TIP3    H240527   2.145   6.081   5.522 -0.9845 -1.0776  0.0894
 6346TIP3   OH240528   4.981   5.958  12.063 -0.0756  0.1505  0.3184
 6346TIP3    H140529   4.886   5.957  12.053  0.0413 -0.9594 -0.9879
 6346TIP3    H240530   4.996   5.926  12.152 -0.9446  1.8561  1.1229
 6347TIP3   OH240531   5.000   2.496  13.149 -0.0990  0.4827 -0.5204
 6347TIP3    H140532   4.998   2.420  13.207  1.4916  1.0282  0.3185
 6347TIP3    H240533   4.938   2.474  13.079  2.4643 -3.0376 -2.0388
 6348TIP3   OH240534   5.893   0.585   6.163 -0.1481 -0.5817  0.1004
 6348TIP3    H140535   5.815   0.613   6.211 -0.4067 -0.8140 -0.1749
 6348TIP3    H240536   5.880   0.619   6.074  0.2557 -0.2807  0.1531
 6349TIP3   OH240537   1.750   4.355   3.978 -0.3588 -0.2030 -0.2818
 6349TIP3    H140538   1.658   4.338   3.999 -0.0993 -0.1632  1.0108
 6349TIP3    H240539   1.786   4.268   3.960 -0.5255 -0.2859 -0.2202
 6350TIP3   OH240540   4.619   5.914   0.398  0.2814  0.0823  0.1083
 6350TIP3    H140541   4.644   5.956   0.481 -1.0494 -0.0797  0.6105
 6350TIP3    H240542   4.526   5.897   0.407  0.0803  0.2107 -1.5130
 6351TIP3   OH240543   6.804   6.638   2.201 -0.2609  0.1417 -0.0743
 6351TIP3    H140544   6.767   6.566   2.150  1.4588 -1.2890  0.5748
 6351TIP3    H240545   6.897   6.617   2.208 -0.1518  1.1071  2.2995
 6352TIP3   OH240546   4.717   3.314  12.569  0.5426 -0.4397  0.5411
 6352TIP3    H140547   4.786   3.287  12.508 -0.1508 -2.2393  0.4976
 6352TIP3    H240548   4.696   3.403  12.542  1.2962 -0.6561 -0.8818
 6353TIP3   OH240549   5.628   3.110  16.661  0.4226 -0.6480  0.4058
 6353TIP3    H140550   5.654   3.123  16.752  0.2358 -0.9588  0.5071
 6353TIP3    H240551   5.584   3.025  16.661 -0.5129 -0.1787  0.2290
 6354TIP3   OH240552   4.531   1.019  11.225  0.4445 -0.2871 -0.8731
 6354TIP3    H140553   4.497   0.937  11.190 -1.9980 -0.2961  1.2067
 6354TIP3    H240554   4.487   1.087  11.174 -1.2145 -0.3214  0.4112
 6355TIP3   OH240555   5.676   3.730   4.896  0.0593 -0.7220  0.0586
 6355TIP3    H140556   5.719   3.745   4.981 -0.7849 -1.3779  0.6220
 6355TIP3    H240557   5.624   3.651   4.910 -0.5980 -0.4696 -0.8853
 6356TIP3   OH240558   3.442   4.041   6.652  0.2522 -0.1936  0.1385
 6356TIP3    H140559   3.360   4.087   6.669 -0.5186 -0.4480 -2.3986
 6356TIP3    H240560   3.418   3.948   6.654  1.0802 -0.4072  1.9202
 6357TIP3   OH240561   2.509   2.529   1.902 -0.0115  0.6291 -0.1813
 6357TIP3    H140562   2.560   2.595   1.949 -0.1321 -0.3436  1.3625
 6357TIP3    H240563   2.419   2.543   1.931 -0.3310  0.9660 -1.2764
 6358TIP3   OH240564   6.807   0.453  11.941  0.4423 -0.7575  0.1923
 6358TIP3    H140565   6.844   0.411  11.863  1.7515  1.0818 -0.2522
 6358TIP3    H240566   6.712   0.447  11.929  0.6147 -0.5098 -1.5555
 6359TIP3   OH240567   5.366   5.031   3.568  0.5116 -0.2817  0.1046
 6359TIP3    H140568   5.403   5.119   3.563 -1.2947  0.4586 -1.0903
 6359TIP3    H240569   5.430   4.981   3.620  2.1004  1.4296 -0.1124
 6360TIP3   OH240570   0.357   3.607  12.805 -0.0861 -0.1278  0.2182
 6360TIP3    H140571   0.282   3.549  12.810  0.7602 -1.3229 -0.6062
 6360TIP3    H240572   0.414   3.568  12.739  2.1354 -0.3024  2.1197
 6361TIP3   OH240573   1.482   5.529   5.743 -0.0113 -0.3570 -0.2362
 6361TIP3    H140574   1.481   5.490   5.656  1.9103 -0.8402 -0.0879
 6361TIP3    H240575   1.424   5.473   5.795 -2.0126  0.5427 -1.3969
 6362TIP3   OH240576   3.452   4.721  11.920 -0.1617  0.1329  0.4564
 6362TIP3    H140577   3.367   4.764  11.919 -0.7715 -0.9294  2.3748
 6362TIP3    H240578   3.515   4.792  11.908 -1.2801  0.8322 -2.0111
 6363TIP3   OH240579   3.133   1.278   5.579 -0.9793  0.1554 -0.1817
 6363TIP3    H140580   3.174   1.306   5.497 -0.1589 -0.0294  0.1526
 6363TIP3    H240581   3.171   1.192   5.596  0.3960  1.0438  1.4259
 6364TIP3   OH240582   1.353   1.727  15.103  0.0324  0.8031 -0.0821
 6364TIP3    H140583   1.386   1.664  15.167  1.5389  1.6006 -0.0256
 6364TIP3    H240584   1.261   1.702  15.090  0.3680 -0.8986  0.5233
 6365TIP3   OH240585   5.491   3.264  16.209  0.0869  0.1311 -0.1301
 6365TIP3    H140586   5.446   3.182  16.229 -0.0393 -0.0775 -1.2103
 6365TIP3    H240587   5.530   3.291  16.292 -2.4747  0.6381  0.9935
 6366TIP3   OH240588   6.176   3.836   1.330 -0.5025  0.4453  0.7301
 6366TIP3    H140589   6.185   3.861   1.422 -0.6834  1.3798  0.5035
 6366TIP3    H240590   6.093   3.788   1.327 -0.2463 -0.0275  1.1431
 6367TIP3   OH240591   6.429   5.324  14.569  0.2766  0.0757  0.1810
 6367TIP3    H140592   6.525   5.316  14.574  0.3788  0.5098 -0.7493
 6367TIP3    H240593   6.413   5.351  14.479 -0.6791  0.7026  0.5252
 6368TIP3   OH240594   2.759   4.611  16.625 -0.0107 -0.0342 -0.2061
 6368TIP3    H140595   2.832   4.550  16.633 -0.3867 -0.4545  0.0775
 6368TIP3    H240596   2.755   4.632  16.532 -0.2813 -0.9505 -0.4035
 6369TIP3   OH240597   5.113   5.128  10.423  0.0174 -1.1464  0.1272
 6369TIP3    H140598   5.058   5.051  10.441 -0.1069 -0.6565  1.9922
 6369TIP3    H240599   5.088   5.155  10.334 -0.9099 -2.4449 -0.0336
 6370TIP3   OH240600   3.634   1.330   5.644  0.4146 -0.1193 -0.3737
 6370TIP3    H140601   3.578   1.301   5.716  1.6779  0.3855  0.8539
 6370TIP3    H240602   3.637   1.425   5.652  2.1589 -0.1730  0.1963
 6371TIP3   OH240603   1.595   1.092  14.329 -0.0429  0.3877 -0.2145
 6371TIP3    H140604   1.604   1.182  14.298  0.3128  0.0585 -1.0951
 6371TIP3    H240605   1.501   1.075  14.326 -0.0673  0.5701 -0.5289
 6372TIP3   OH240606   4.435   5.536   2.399 -0.1031 -0.7567  0.1657
 6372TIP3    H140607   4.395   5.515   2.483 -1.2060  0.6364  0.0292
 6372TIP3    H240608   4.382   5.490   2.335  0.0615 -0.9352  0.1582
 6373TIP3   OH240609   4.637   2.425  10.259 -0.1430 -0.2780 -0.0344
 6373TIP3    H140610   4.579   2.430  10.183  1.5907 -0.5298 -1.4305
 6373TIP3    H240611   4.618   2.339  10.298  0.6762 -1.2626 -1.6938
 6374TIP3   OH240612   4.293   6.704   1.369  0.6948  0.0788 -0.4098
 6374TIP3    H140613   4.327   6.725   1.456  0.2131 -2.6222  0.5242
 6374TIP3    H240614   4.368   6.712   1.311  1.8653 -1.2385  0.8407
 6375TIP3   OH240615   0.140   2.763  10.085 -0.5686  0.1642  0.0928
 6375TIP3    H140616   0.064   2.709  10.107 -0.1900  0.1183  1.3262
 6375TIP3    H240617   0.105   2.851  10.075 -0.8255  0.0985  0.4030
 6376TIP3   OH240618   1.051   4.827   1.530  0.0432 -0.1328 -0.6743
 6376TIP3    H140619   1.044   4.732   1.539  3.7123 -0.3333  1.6770
 6376TIP3    H240620   1.111   4.839   1.457  1.7391  0.2144  0.7303
 6377TIP3   OH240621   3.441   3.447  15.798 -0.2847 -0.2519  0.4250
 6377TIP3    H140622   3.367   3.406  15.754  0.0597 -0.5871  0.1578
 6377TIP3    H240623   3.518   3.413  15.754  0.3183 -3.3270  3.4309
 6378TIP3   OH240624   3.779   2.382  13.862 -0.2161 -0.1611  0.2024
 6378TIP3    H140625   3.839   2.309  13.880  0.7491  0.7929  0.9911
 6378TIP3    H240626   3.747   2.408  13.949 -2.0663 -0.8668 -0.2334
 6379TIP3   OH240627   1.715   3.498  16.905 -0.1951  0.4476 -0.0872
 6379TIP3    H140628   1.652   3.438  16.946 -0.7142  0.7805 -0.3722
 6379TIP3    H240629   1.660   3.559  16.855  0.4361 -0.4021 -1.8989
 6380TIP3   OH240630   4.021   0.797   2.949  0.2685 -0.0667  0.5768
 6380TIP3    H140631   4.025   0.805   3.045  1.4596 -1.9027  0.7212
 6380TIP3    H240632   3.961   0.725   2.933 -0.1688  0.4333 -0.0981
 6381TIP3   OH240633   4.544   1.352   4.265 -0.4301 -0.3347 -0.1641
 6381TIP3    H140634   4.617   1.337   4.325 -1.1397  0.4678  0.9244
 6381TIP3    H240635   4.522   1.444   4.275 -0.9020 -0.3011 -1.2909
 6382TIP3   OH240636   6.588   5.319  12.748  0.8341 -0.4766  0.0470
 6382TIP3    H140637   6.506   5.311  12.796  1.0545  1.1876  0.7836
 6382TIP3    H240638   6.656   5.313  12.816  1.1273  2.7986  0.2329
 6383TIP3   OH240639   5.431   0.470   3.558 -0.2077 -0.0573 -0.2551
 6383TIP3    H140640   5.391   0.503   3.639 -1.5293 -0.5552 -0.6771
 6383TIP3    H240641   5.469   0.547   3.516 -3.0966  0.9825 -1.1502
 6384TIP3   OH240642   3.186   2.994   4.154 -0.1470  0.8037  0.0438
 6384TIP3    H140643   3.165   2.905   4.124 -1.1802  0.1066  2.5880
 6384TIP3    H240644   3.271   3.013   4.114 -0.3097 -0.9604 -1.2785
 6385TIP3   OH240645   0.732   5.218  14.799 -0.4370 -0.3030  0.1147
 6385TIP3    H140646   0.703   5.156  14.731 -0.1792  1.3378 -1.5797
 6385TIP3    H240647   0.820   5.244  14.771  1.3453 -2.3775  3.1637
 6386TIP3   OH240648   6.509   5.665   1.356 -0.3129  0.3103  0.3654
 6386TIP3    H140649   6.531   5.636   1.268  0.8909  0.1260  0.7108
 6386TIP3    H240650   6.554   5.748   1.367  0.9341 -0.4577  1.3666
 6387TIP3   OH240651   1.341   0.867  15.084  0.0266  0.5495 -0.6881
 6387TIP3    H140652   1.427   0.868  15.042  0.0501  2.6124 -0.6643
 6387TIP3    H240653   1.282   0.830  15.018  0.3709  2.1449 -1.9526
 6388TIP3   OH240654   0.938   1.894  15.456 -0.2816  0.2156  0.2991
 6388TIP3    H140655   0.972   1.851  15.534  1.3727  0.4422 -0.2446
 6388TIP3    H240656   0.937   1.987  15.478 -0.2238  0.2395  0.2015
 6389TIP3   OH240657   5.371   1.427  15.127  0.0555 -0.1858  0.0624
 6389TIP3    H140658   5.413   1.510  15.149  1.0554 -0.6353 -0.0775
 6389TIP3    H240659   5.420   1.362  15.178 -0.4253 -0.7389 -0.1781
 6390TIP3   OH240660   5.378   2.205  14.975 -0.4588 -1.0675 -0.2595
 6390TIP3    H140661   5.287   2.185  14.997 -0.5698 -0.1137  0.1988
 6390TIP3    H240662   5.393   2.162  14.891 -1.3846 -1.0981 -0.4139
 6391TIP3   OH240663   2.523   6.806   0.632 -0.3789 -0.1268 -0.0692
 6391TIP3    H140664   2.463   6.757   0.576 -0.3099 -0.6293  0.2920
 6391TIP3    H240665   2.513   6.767   0.718  0.7246 -0.4507 -0.0729
 6392TIP3   OH240666   6.650   5.491   3.648  0.1017  0.4597 -0.5923
 6392TIP3    H140667   6.595   5.438   3.591  0.5885 -1.3923  0.5810
 6392TIP3    H240668   6.730   5.507   3.597  0.3621 -0.8120 -0.6044
 6393TIP3   OH240669   6.734   3.134  12.057 -0.8060 -0.3126  0.6392
 6393TIP3    H140670   6.690   3.092  11.983 -0.8287  0.1053  0.4106
 6393TIP3    H240671   6.827   3.116  12.043 -0.8496 -0.6332  0.7632
 6394TIP3   OH240672   1.255   4.363  15.561  0.4756  0.5410  0.3160
 6394TIP3    H140673   1.162   4.350  15.543  0.8366  0.0757 -1.3677
 6394TIP3    H240674   1.267   4.328  15.650 -1.2869  2.3390  1.3304
 6395TIP3   OH240675   2.591   1.428  16.693  0.5619 -0.1111 -0.0369
 6395TIP3    H140676   2.676   1.438  16.651  1.5654  1.3394  2.1502
 6395TIP3    H240677   2.534   1.489  16.647  1.2503  0.4134 -0.2070
 6396TIP3   OH240678   4.615   4.015   4.106 -0.4782  0.4294  0.3287
 6396TIP3    H140679   4.705   4.033   4.134  0.0972 -0.3875 -0.9079
 6396TIP3    H240680   4.603   3.922   4.122 -0.4614  0.1442 -1.1131
 6397TIP3   OH240681   2.135   3.025   1.455 -0.1226 -0.1063  0.5585
 6397TIP3    H140682   2.106   3.083   1.384 -1.5050 -1.2854  0.1109
 6397TIP3    H240683   2.202   3.075   1.501  1.1876  0.5369 -1.8754
 6398TIP3   OH240684   5.223   2.426  10.693 -0.2063 -0.6436 -0.4280
 6398TIP3    H140685   5.170   2.352  10.724 -0.6643 -0.1666 -0.0460
 6398TIP3    H240686   5.169   2.467  10.626 -0.1551 -0.3777 -0.3055
 6399TIP3   OH240687   3.794   5.834   0.001 -0.0145 -0.1965 -0.3319
 6399TIP3    H140688   3.796   5.881  -0.082 -2.0252 -0.2533 -0.4631
 6399TIP3    H240689   3.874   5.863   0.047  1.2673 -0.3603 -2.3333
 6400TIP3   OH240690   2.742   3.926  16.390 -0.9230 -0.3076 -0.2153
 6400TIP3    H140691   2.711   3.921  16.481 -0.6962 -0.8793 -0.1645
 6400TIP3    H240692   2.832   3.894  16.394 -0.4929  0.8445 -0.4491
 6401TIP3   OH240693   1.795   1.025  12.357 -0.2441  0.6196  0.4218
 6401TIP3    H140694   1.829   1.062  12.275  0.8150  0.3918  0.7512
 6401TIP3    H240695   1.866   0.972  12.391 -1.2704 -0.6414  0.6622
 6402TIP3   OH240696   2.688   6.096   2.093 -0.1770  0.3171  0.5063
 6402TIP3    H140697   2.708   6.061   2.179  1.9583 -1.5842 -0.6611
 6402TIP3    H240698   2.602   6.059   2.071 -0.0174 -0.4745  1.1761
 6403TIP3   OH240699   5.511   4.017   3.389 -0.0971 -0.4147  0.0753
 6403TIP3    H140700   5.426   4.001   3.431  0.1457 -0.3825  0.5800
 6403TIP3    H240701   5.489   4.038   3.298 -0.7114  0.7351  0.4735
 6404TIP3   OH240702   4.335   1.418   4.825  0.2241 -0.2576  0.1100
 6404TIP3    H140703   4.425   1.418   4.857 -0.1308 -0.0462  1.1590
 6404TIP3    H240704   4.281   1.421   4.904 -0.6827  2.2137 -0.5021
 6405TIP3   OH240705   6.826   5.981   1.594  0.0506 -0.3164 -0.1836
 6405TIP3    H140706   6.852   5.890   1.578 -2.1764 -1.3726  1.5815
 6405TIP3    H240707   6.889   6.033   1.543  2.2783 -2.7497 -0.1679
 6406TIP3   OH240708   2.894   6.342  13.398  0.1146 -0.0284  0.0420
 6406TIP3    H140709   2.871   6.360  13.307  0.3713  1.0857  0.1745
 6406TIP3    H240710   2.932   6.255  13.398  2.1496  0.8072 -1.2893
 6407TIP3   OH240711   0.988   2.586  12.353 -0.0178 -0.0023  0.4456
 6407TIP3    H140712   0.970   2.527  12.426  1.4103 -0.2284  0.6320
 6407TIP3    H240713   1.033   2.661  12.393  0.5694 -0.0218 -0.1618
 6408TIP3   OH240714   0.862   5.523  12.172  0.0353  0.4905 -0.6514
 6408TIP3    H140715   0.854   5.428  12.165 -0.2289  0.5700 -1.4704
 6408TIP3    H240716   0.826   5.543  12.258 -1.8791  0.0539 -1.3006
 6409TIP3   OH240717   1.900   4.461   3.230  0.9751 -0.0338  0.1897
 6409TIP3    H140718   1.908   4.435   3.138  1.3780 -0.0362  0.2221
 6409TIP3    H240719   1.824   4.519   3.232  0.1706 -1.0659  0.0897
 6410TIP3   OH240720   2.230   4.462   0.214 -0.1069 -0.4617 -0.3806
 6410TIP3    H140721   2.275   4.504   0.140  0.0720  0.4345  0.2181
 6410TIP3    H240722   2.301   4.426   0.267 -0.1898 -0.4449 -0.2585
 6411TIP3   OH240723   0.785   3.275  14.868  0.3187 -0.6348  0.1449
 6411TIP3    H140724   0.780   3.257  14.774 -0.3123  0.7172 -0.1095
 6411TIP3    H240725   0.770   3.369  14.875  1.9593 -0.4270  1.4832
 6412TIP3   OH240726   1.716   6.603   0.658 -0.2592 -0.6432 -0.2041
 6412TIP3    H140727   1.758   6.658   0.723 -0.4413 -1.6541  0.7975
 6412TIP3    H240728   1.737   6.644   0.574  0.2828  0.4706  0.4617
 6413TIP3   OH240729   2.687   3.862   1.395 -0.7794 -0.3329 -0.6127
 6413TIP3    H140730   2.737   3.931   1.438 -0.8032  0.4187 -1.7663
 6413TIP3    H240731   2.614   3.845   1.454  0.5812 -1.1925  0.9325
 6414TIP3   OH240732   4.590   6.829  11.642  0.7298  0.1264 -0.5806
 6414TIP3    H140733   4.540   6.799  11.566  0.1164 -0.8999  0.1988
 6414TIP3    H240734   4.631   6.749  11.676  2.1466  0.8029 -0.6499
 6415TIP3   OH240735   5.345   0.496  14.123 -0.3795 -0.2000 -0.2420
 6415TIP3    H140736   5.347   0.582  14.080  0.9084 -0.2448 -0.2977
 6415TIP3    H240737   5.291   0.442  14.064  1.7436 -0.3980 -2.1780
 6416TIP3   OH240738   0.060   6.032  16.093 -0.1121 -0.2416  0.5109
 6416TIP3    H140739   0.079   5.951  16.142  0.6836 -0.5392 -0.2589
 6416TIP3    H240740  -0.032   6.049  16.111 -0.0223 -0.7316  1.5444
 6417TIP3   OH240741   0.619   2.416   5.217 -0.3145  0.1759  0.3145
 6417TIP3    H140742   0.673   2.470   5.274  0.8328 -0.4942 -0.1130
 6417TIP3    H240743   0.675   2.343   5.191 -1.6867 -1.0352  0.5532
 6418TIP3   OH240744   3.126   6.536   5.197 -0.2233 -0.2102 -0.0734
 6418TIP3    H140745   3.084   6.621   5.214  1.0007  0.3859  0.0898
 6418TIP3    H240746   3.151   6.504   5.284 -0.7859 -0.8037 -0.1258
 6419TIP3   OH240747   4.584   5.853   0.123  0.2442 -0.8106 -0.5009
 6419TIP3    H140748   4.584   5.875   0.216 -0.3636 -1.6736 -0.2839
 6419TIP3    H240749   4.506   5.896   0.088  0.4483 -0.5233 -0.6019
 6420TIP3   OH240750   5.766   0.231   0.755  0.0050  0.5837 -0.4531
 6420TIP3    H140751   5.785   0.255   0.664 -0.1303  1.6859 -0.2003
 6420TIP3    H240752   5.752   0.314   0.800 -0.4463  0.0247  0.4731
 6421TIP3   OH240753   3.102   2.957   0.804 -0.5086 -0.3046 -0.1875
 6421TIP3    H140754   3.062   3.003   0.878 -1.2033 -1.8254  0.4249
 6421TIP3    H240755   3.029   2.917   0.757 -0.0649  0.5539 -1.6762
 6422TIP3   OH240756   0.656   6.841  12.229  0.3204 -0.5914  0.4778
 6422TIP3    H140757   0.581   6.802  12.275  0.6900 -0.4316  1.2337
 6422TIP3    H240758   0.733   6.810  12.277  0.6725  0.2518  0.4918
 6423TIP3   OH240759   5.583   6.203   4.705  0.4479 -0.5935 -0.3974
 6423TIP3    H140760   5.497   6.227   4.671  0.2092 -0.7544  0.0772
 6423TIP3    H240761   5.573   6.210   4.800  0.7161 -1.4262 -0.3005
 6424TIP3   OH240762   2.359   3.062   5.059  0.4028  0.5501 -0.4364
 6424TIP3    H140763   2.426   3.118   5.100 -0.1232 -1.0477  2.9088
 6424TIP3    H240764   2.277   3.109   5.072  0.0793 -0.4461  1.6068
 6425TIP3   OH240765   5.440   6.536   5.763  0.3382 -0.4920  0.0985
 6425TIP3    H140766   5.393   6.454   5.774  1.1136 -1.0686 -0.7651
 6425TIP3    H240767   5.435   6.554   5.669 -0.7562  1.0299  0.3956
 6426TIP3   OH240768   6.301   2.959  15.019 -0.3126  0.2717 -0.9965
 6426TIP3    H140769   6.312   2.942  14.926 -0.1348 -0.1430 -0.9020
 6426TIP3    H240770   6.375   3.014  15.042 -1.5501  2.3089 -1.5704
 6427TIP3   OH240771   2.808   5.358   3.633  0.7755  0.5113  0.1758
 6427TIP3    H140772   2.714   5.351   3.613  0.4522  1.5905  1.1842
 6427TIP3    H240773   2.821   5.450   3.654  1.5573 -0.0421  2.4306
 6428TIP3   OH240774   3.035   1.703   5.211 -0.1368  0.0762 -0.3533
 6428TIP3    H140775   2.969   1.731   5.148 -2.0388  0.7487  1.8131
 6428TIP3    H240776   3.068   1.620   5.175 -1.4466  0.1974 -1.9776
 6429TIP3   OH240777   1.873   5.826  13.942 -0.5940 -0.0614 -0.0041
 6429TIP3    H140778   1.878   5.744  13.893  0.7631 -0.2117  0.3415
 6429TIP3    H240779   1.820   5.806  14.019  0.8479 -1.0147  0.7861
 6430TIP3   OH240780   1.135   4.223   0.984  0.7794  0.2907  0.1397
 6430TIP3    H140781   1.198   4.259   1.047  0.0321  1.3764  0.2888
 6430TIP3    H240782   1.051   4.258   1.011  0.3734  0.4340 -1.2063
 6431TIP3   OH240783   0.216   1.151   5.642  0.0655 -0.3480 -0.0586
 6431TIP3    H140784   0.204   1.127   5.551  0.5034  0.8760 -0.4563
 6431TIP3    H240785   0.245   1.242   5.640 -2.0754  0.4434  1.3871
 6432TIP3   OH240786   3.040   6.462   4.099  0.4308 -0.3231  0.5769
 6432TIP3    H140787   3.099   6.494   4.167  0.1370 -1.5883  1.4449
 6432TIP3    H240788   3.072   6.375   4.078  0.4941  0.0330 -0.9024
 6433TIP3   OH240789   5.117   0.685   2.307 -0.8137  0.2768  0.1658
 6433TIP3    H140790   5.134   0.644   2.223 -0.9488  0.6420 -0.0410
 6433TIP3    H240791   5.197   0.735   2.326 -1.4010  1.5132 -0.5242
 6434TIP3   OH240792   6.731   2.855   3.823 -0.3204  0.1693 -0.1801
 6434TIP3    H140793   6.703   2.842   3.914  0.2123  0.0628 -0.0269
 6434TIP3    H240794   6.705   2.775   3.778  1.7207 -0.9269  0.4585
 6435TIP3   OH240795   4.850   3.193   0.082 -0.1873  0.4512  0.6124
 6435TIP3    H140796   4.778   3.172   0.142 -1.8071  1.7943 -0.7698
 6435TIP3    H240797   4.870   3.109   0.040 -0.7568 -0.0058  1.2214
 6436TIP3   OH240798   5.147   4.641   2.584 -0.0980 -0.4595  0.0283
 6436TIP3    H140799   5.081   4.699   2.545  0.9120 -0.4253 -1.7175
 6436TIP3    H240800   5.221   4.699   2.603 -0.0634 -0.7316  0.7498
 6437TIP3   OH240801   3.122   1.258   3.042  0.1338 -0.5343  0.1138
 6437TIP3    H140802   3.061   1.326   3.015 -0.0409 -0.5097  0.5644
 6437TIP3    H240803   3.186   1.303   3.097  0.7875 -0.4866 -0.6682
 6438TIP3   OH240804   6.487   0.015  12.293  0.6104 -0.2976 -0.0389
 6438TIP3    H140805   6.572  -0.007  12.255  0.9475  0.8459  0.0099
 6438TIP3    H240806   6.494   0.108  12.316  0.0998 -0.7063  1.9585
 6439TIP3   OH240807   3.369   5.115   4.412 -0.8496 -0.0322 -0.3151
 6439TIP3    H140808   3.365   5.202   4.450 -1.7341 -0.9482  1.8299
 6439TIP3    H240809   3.283   5.102   4.371 -0.9237 -0.1257 -0.1275
 6440TIP3   OH240810   6.566   1.514   2.806 -0.1589  0.4216  0.1371
 6440TIP3    H140811   6.514   1.537   2.730  1.2496 -0.0512 -1.0192
 6440TIP3    H240812   6.652   1.553   2.789 -0.2515  1.7336  2.2828
 6441TIP3   OH240813   1.542   0.460  16.638 -0.1393 -0.6122 -0.5975
 6441TIP3    H140814   1.552   0.365  16.648 -0.0141 -0.3945  1.6511
 6441TIP3    H240815   1.575   0.497  16.720 -3.0730  1.2028 -0.0976
 6442TIP3   OH240816   6.063   3.473  13.086  0.1317 -0.6982 -0.4461
 6442TIP3    H140817   6.060   3.478  12.991  0.0299 -2.0026 -0.5280
 6442TIP3    H240818   5.997   3.408  13.109  0.4159 -0.6764  0.4894
 6443TIP3   OH240819   0.607   6.803   1.424 -0.4611 -1.0051  0.1741
 6443TIP3    H140820   0.653   6.728   1.462  0.2554 -1.5853 -1.6846
 6443TIP3    H240821   0.532   6.764   1.379  0.2420 -0.7192 -1.3108
 6444TIP3   OH240822   4.001   3.303  15.601  0.1727  0.1750 -0.0863
 6444TIP3    H140823   4.054   3.226  15.621  1.4038  0.4474 -1.9589
 6444TIP3    H240824   3.977   3.339  15.686  0.1297 -1.8811  0.8224
 6445TIP3   OH240825   6.671   5.908  12.369 -0.2854 -0.1328  0.0035
 6445TIP3    H140826   6.657   5.867  12.455  1.6526  0.0868  0.4736
 6445TIP3    H240827   6.764   5.931  12.369 -0.4651  0.7169 -1.8070
 6446TIP3   OH240828   1.658   4.583   4.234  0.0120 -0.2064  0.3553
 6446TIP3    H140829   1.705   4.530   4.298 -1.5139 -0.8423  1.0093
 6446TIP3    H240830   1.725   4.613   4.173  0.8008 -5.2342 -1.7928
 6447TIP3   OH240831   6.110   0.448  14.688 -0.2021 -0.3355 -0.1215
 6447TIP3    H140832   6.150   0.362  14.698  0.5119 -0.2318 -1.6963
 6447TIP3    H240833   6.016   0.433  14.700 -0.1460 -1.4436 -0.8788
 6448TIP3   OH240834   6.692   4.371   0.381 -0.4373  0.1056 -0.5258
 6448TIP3    H140835   6.750   4.297   0.401  0.4767  0.3450 -2.0935
 6448TIP3    H240836   6.625   4.334   0.323  0.0683  0.4793 -1.3814
 6449TIP3   OH240837   1.756   2.572  11.184 -0.3737 -0.1777 -0.2337
 6449TIP3    H140838   1.748   2.533  11.096  1.3430 -2.1096  0.3710
 6449TIP3    H240839   1.850   2.588  11.194 -0.7120  1.3131  0.7505
 6450TIP3   OH240840   5.713   2.362   1.244 -0.3424  0.1909  0.1452
 6450TIP3    H140841   5.722   2.359   1.340 -1.3481  0.5677  0.2625
 6450TIP3    H240842   5.663   2.284   1.222 -1.1312  0.7178  0.0569
 6451TIP3   OH240843   0.691   1.515  16.959  0.1634  0.1866  0.2133
 6451TIP3    H140844   0.771   1.462  16.958 -0.9042 -1.4773 -0.5682
 6451TIP3    H240845   0.623   1.456  16.927 -1.2402  1.8162  0.0965
 6452TIP3   OH240846   2.386   2.822  14.784  0.7371 -0.1737  0.1071
 6452TIP3    H140847   2.314   2.833  14.846 -0.1125 -0.9644 -0.7154
 6452TIP3    H240848   2.444   2.897  14.801  0.7644 -0.6076  2.1434
 6453TIP3   OH240849   1.267   1.136   0.281  0.0100  0.0403 -0.4521
 6453TIP3    H140850   1.311   1.091   0.353  0.2885 -1.1678 -1.3473
 6453TIP3    H240851   1.323   1.211   0.261 -0.1709  0.4982  0.6998
 6454TIP3   OH240852   4.539   1.081   6.486 -0.5223 -0.5112  0.3884
 6454TIP3    H140853   4.630   1.052   6.497  0.4761  2.4320  0.7426
 6454TIP3    H240854   4.524   1.142   6.558 -2.0010  0.8246 -0.9696
 6455TIP3   OH240855   3.298   3.501  15.493 -0.4626  0.6216  0.7058
 6455TIP3    H140856   3.281   3.544  15.576  1.9186  0.6853  1.2207
 6455TIP3    H240857   3.376   3.543  15.459 -0.9545  0.0843 -1.2300
 6456TIP3   OH240858   6.575   4.945  15.658  0.0199 -0.4185 -0.0146
 6456TIP3    H140859   6.569   4.936  15.753 -0.0529  2.8563  0.4065
 6456TIP3    H240860   6.501   5.000  15.635  2.1764  2.1407 -1.3328
 6457TIP3   OH240861   6.019   6.780  15.129  0.3138  0.8423 -0.3453
 6457TIP3    H140862   6.021   6.865  15.086 -0.9527  0.8516 -0.4209
 6457TIP3    H240863   6.000   6.717  15.060  1.8711  0.3960 -0.4007
 6458TIP3   OH240864   5.602   3.794   0.272 -0.4910 -0.2356 -0.0839
 6458TIP3    H140865   5.521   3.827   0.310  1.1370  3.2726  0.6852
 6458TIP3    H240866   5.596   3.816   0.179 -0.8062 -0.9073 -0.2302
 6459TIP3   OH240867   4.633   3.057   3.274  0.1014 -0.2049 -0.2982
 6459TIP3    H140868   4.583   3.118   3.328 -0.8785 -2.1696  1.1413
 6459TIP3    H240869   4.725   3.074   3.297 -0.0688  1.3418 -0.6610
 6460TIP3   OH240870   1.170   2.459   0.707  0.0980  0.2295 -0.1772
 6460TIP3    H140871   1.127   2.374   0.709 -0.7875  0.5105 -2.7107
 6460TIP3    H240872   1.254   2.445   0.751  0.6256 -2.3864 -1.7804
 6461TIP3   OH240873   4.773   2.199   1.881 -0.1282  0.0293  0.0148
 6461TIP3    H140874   4.834   2.270   1.864 -0.7956  0.2646 -1.5124
 6461TIP3    H240875   4.765   2.153   1.798 -0.6627 -1.0936  0.6587
 6462TIP3   OH240876   0.072   2.620  11.749  0.4278  0.5575  0.0326
 6462TIP3    H140877  -0.016   2.656  11.740  0.8754  2.0466  1.1773
 6462TIP3    H240878   0.066   2.563  11.827 -0.2285 -1.8415 -1.6538
 6463TIP3   OH240879   6.084   3.894   5.847  0.4568 -0.2099 -0.3326
 6463TIP3    H140880   6.138   3.816   5.855 -1.4699 -1.5626  0.1477
 6463TIP3    H240881   6.021   3.874   5.778 -2.1039 -0.4678  1.8855
 6464TIP3   OH240882   3.387   1.615  15.922 -0.1827 -0.2808  0.3089
 6464TIP3    H140883   3.377   1.706  15.951  0.3917 -0.1524  0.1083
 6464TIP3    H240884   3.412   1.568  16.001 -1.6794 -0.4969  0.6859
 6465TIP3   OH240885   5.515   0.790   6.585  0.5137 -0.0841 -0.1042
 6465TIP3    H140886   5.419   0.787   6.578  0.3639 -1.2172  1.8604
 6465TIP3    H240887   5.543   0.701   6.562  1.1806  0.4499 -1.4244
 6466TIP3   OH240888   3.575   4.115  13.843 -0.3307 -0.0128 -0.0422
 6466TIP3    H140889   3.526   4.168  13.906  0.2750 -0.7784  1.1213
 6466TIP3    H240890   3.523   4.036  13.832 -1.4471  0.9253 -2.1028
 6467TIP3   OH240891   2.142   3.793  15.082 -0.0524  0.3983  0.1428
 6467TIP3    H140892   2.230   3.780  15.117 -0.0828  1.0380  0.4817
 6467TIP3    H240893   2.156   3.805  14.988  0.1244 -0.4018  0.0616
 6468TIP3   OH240894   0.368   6.824  12.064  0.3801 -0.5706 -0.2759
 6468TIP3    H140895   0.310   6.778  12.004 -0.1621  2.3596 -2.1696
 6468TIP3    H240896   0.452   6.828  12.018  0.4635  0.1610 -0.0770
 6469TIP3   OH240897   2.441   0.374  12.498 -0.3266  0.3891  0.3083
 6469TIP3    H140898   2.397   0.447  12.544 -0.3675 -0.1145  1.0885
 6469TIP3    H240899   2.525   0.365  12.543  0.2025  0.7425 -0.5857
 6470TIP3   OH240900   3.496   3.558  14.806  0.2565 -0.5226 -0.0956
 6470TIP3    H140901   3.458   3.584  14.722  1.0422  0.1850 -0.2551
 6470TIP3    H240902   3.456   3.617  14.870  0.0019 -0.7535 -0.0411
 6471TIP3   OH240903   2.699   1.756  16.325 -0.6082 -0.3258 -0.1131
 6471TIP3    H140904   2.710   1.754  16.230  1.0952 -1.9391  0.0783
 6471TIP3    H240905   2.703   1.849  16.347 -1.3856  0.1058 -1.6260
 6472TIP3   OH240906   6.706   5.103   4.442 -0.3739  0.0709  0.1503
 6472TIP3    H140907   6.614   5.081   4.459 -0.7633  1.6125  0.1299
 6472TIP3    H240908   6.736   5.036   4.381 -1.6847 -0.0543 -0.3774
 6473TIP3   OH240909   1.725   1.295  16.271 -0.2463  0.1643 -0.0761
 6473TIP3    H140910   1.720   1.222  16.209  0.7556 -1.4539  1.6242
 6473TIP3    H240911   1.718   1.253  16.357  0.2786  2.1004  0.9595
 6474TIP3   OH240912   0.143   0.476   0.351 -0.0277  0.3885 -0.2029
 6474TIP3    H140913   0.075   0.501   0.414  1.2045 -1.3611  1.9881
 6474TIP3    H240914   0.223   0.517   0.384  0.3200  1.1888 -1.8995
 6475TIP3   OH240915   3.522   6.684   4.502  0.2437  0.1667  0.3109
 6475TIP3    H140916   3.592   6.690   4.567 -0.2095  3.1958  0.6808
 6475TIP3    H240917   3.442   6.705   4.551 -0.4224  0.3283 -0.8062
 6476TIP3   OH240918   1.116   2.853  10.761 -0.2451  0.2806 -0.0047
 6476TIP3    H140919   1.049   2.805  10.809 -1.0361  0.5413 -0.8321
 6476TIP3    H240920   1.070   2.925  10.719  0.6097  0.6651 -0.3144
 6477TIP3   OH240921   3.217   0.116  16.832 -0.3253 -0.8508  0.0764
 6477TIP3    H140922   3.244   0.208  16.823  2.3505 -1.6721 -1.1822
 6477TIP3    H240923   3.217   0.082  16.743  1.7852 -2.8066  0.7100
 6478TIP3   OH240924   1.853   6.019   2.932  0.2841  0.1338 -0.5918
 6478TIP3    H140925   1.836   5.951   2.866  4.5688 -2.7743  0.8081
 6478TIP3    H240926   1.905   6.084   2.886  0.9364 -0.5008 -0.7857
 6479TIP3   OH240927   5.905   5.378   1.801  0.4606  0.2508 -0.2776
 6479TIP3    H140928   5.854   5.351   1.725  0.9584  0.8047 -0.8106
 6479TIP3    H240929   5.901   5.302   1.860  2.0031 -1.1553 -1.8317
 6480TIP3   OH240930   3.616   5.410   3.284  0.4951 -0.0268  0.3204
 6480TIP3    H140931   3.528   5.408   3.247  0.0588  1.8614  1.1519
 6480TIP3    H240932   3.625   5.324   3.326 -0.3198 -0.8468 -1.0991
 6481TIP3   OH240933   5.560   3.610  10.448 -0.5956 -0.2880 -0.0247
 6481TIP3    H140934   5.568   3.515  10.454  0.0606 -0.2856 -0.6564
 6481TIP3    H240935   5.622   3.643  10.512 -1.2013 -0.2817  0.5639
 6482TIP3   OH240936   2.225   1.851   3.371 -0.7328  0.1102  0.0575
 6482TIP3    H140937   2.282   1.891   3.305 -0.2038 -0.2488  0.2904
 6482TIP3    H240938   2.140   1.845   3.328 -1.4639  3.5329  0.7163
 6483TIP3   OH240939   6.542   6.623   0.948  0.0886  0.3519 -1.0805
 6483TIP3    H140940   6.581   6.710   0.949 -0.9870  0.8973  2.1584
 6483TIP3    H240941   6.502   6.612   1.034  0.0953 -3.3352 -1.3655
 6484TIP3   OH240942   5.803   5.318  11.776 -0.1620  0.8201 -0.4429
 6484TIP3    H140943   5.897   5.309  11.794 -0.2339  0.7591 -0.0907
 6484TIP3    H240944   5.797   5.321  11.680  0.1584  0.3751 -0.4802
 6485TIP3   OH240945   5.577   1.077  13.031  0.4832  0.3483  0.6820
 6485TIP3    H140946   5.598   1.048  13.120  0.4829  1.2224  0.9781
 6485TIP3    H240947   5.487   1.049  13.016  0.5601  0.0012  0.8702
 6486TIP3   OH240948   4.018   1.366   0.413 -0.3933  0.0515  0.0902
 6486TIP3    H140949   3.958   1.338   0.482  0.5412  0.6250  1.1691
 6486TIP3    H240950   4.096   1.396   0.460  0.9740 -1.1742 -1.2882
 6487TIP3   OH240951   1.802   5.253   0.925  0.2235  0.1409  0.0867
 6487TIP3    H140952   1.787   5.159   0.931  0.4345  0.1797  1.6364
 6487TIP3    H240953   1.751   5.281   0.849 -0.3399 -1.1142 -0.0172
 6488TIP3   OH240954   1.421   2.766   0.106 -0.4370  0.2203 -1.3182
 6488TIP3    H140955   1.365   2.725   0.172 -0.6338  0.4785 -1.3229
 6488TIP3    H240956   1.502   2.716   0.109 -1.0296 -0.8265 -2.0259
 6489TIP3   OH240957   3.020   3.655   3.317  0.3510  0.2137  0.0771
 6489TIP3    H140958   2.943   3.632   3.369  0.6271 -0.6210  0.1333
 6489TIP3    H240959   2.990   3.726   3.260 -0.4417 -0.0400  0.1592
 6490TIP3   OH240960   4.875   1.006   2.376 -0.2304 -0.7391 -0.1505
 6490TIP3    H140961   4.907   0.947   2.308 -0.4535 -1.3907  0.3071
 6490TIP3    H240962   4.823   1.072   2.328  2.4325  0.8796 -1.0454
 6491TIP3   OH240963   2.402   3.955  12.662 -0.1608 -0.8207  0.4560
 6491TIP3    H140964   2.474   4.013  12.686 -1.4162  1.8027 -1.6385
 6491TIP3    H240965   2.386   3.903  12.741  0.7648  2.0069  2.6647
 6492TIP3   OH240966   3.810   1.603   4.525  0.0748 -0.1441  0.1709
 6492TIP3    H140967   3.872   1.674   4.545 -0.5273  0.5090 -0.2273
 6492TIP3    H240968   3.820   1.588   4.431 -0.3903 -0.0156  0.1001
 6493TIP3   OH240969   5.715   4.253   5.639  0.2002  0.0378 -0.1861
 6493TIP3    H140970   5.715   4.275   5.546  0.8900  0.4894 -0.0882
 6493TIP3    H240971   5.807   4.241   5.660 -0.0784 -2.3305 -0.0747
 6494TIP3   OH240972   0.526   2.545  16.893  0.2995 -0.0008 -0.2121
 6494TIP3    H140973   0.533   2.485  16.819 -0.1348 -0.3597  0.0338
 6494TIP3    H240974   0.549   2.491  16.969  0.5798  0.3223 -0.0627
 6495TIP3   OH240975   5.057   2.686   4.081  0.0873  0.7990  0.0434
 6495TIP3    H140976   5.026   2.628   4.151  0.2880 -0.9486 -1.2505
 6495TIP3    H240977   5.011   2.769   4.097  0.1297  0.4755  2.2174
 6496TIP3   OH240978   5.879   0.511   3.959  0.2058 -0.3551  0.0886
 6496TIP3    H140979   5.952   0.497   3.898 -0.2668  1.0306 -0.8638
 6496TIP3    H240980   5.821   0.571   3.912 -0.2682  0.6273  1.8475
 6497TIP3   OH240981   2.749   0.886  14.929 -0.3285  0.5644  0.1790
 6497TIP3    H140982   2.659   0.856  14.913 -0.3344  1.7441 -2.4078
 6497TIP3    H240983   2.798   0.805  14.946 -0.6947 -1.0677 -4.7372
 6498TIP3   OH240984   1.074   0.753   0.248  0.2159 -0.3683 -0.4899
 6498TIP3    H140985   1.122   0.822   0.295  1.1326 -2.4584  1.8350
 6498TIP3    H240986   1.142   0.698   0.211 -0.4618 -1.0929 -0.6656
 6499TIP3   OH240987   4.271   2.167   0.233 -0.6831  0.4076 -0.5470
 6499TIP3    H140988   4.257   2.218   0.313 -1.1414  2.7960 -2.0722
 6499TIP3    H240989   4.363   2.179   0.212 -0.5377 -0.3016 -0.3686
 6500TIP3   OH240990   2.724   2.311   2.054  0.1338 -0.3290 -0.2725
 6500TIP3    H140991   2.633   2.340   2.066 -0.0281 -1.3108  1.1694
 6500TIP3    H240992   2.749   2.345   1.968 -0.7956  2.0051  0.2895
 6501TIP3   OH240993   2.852   0.650  12.151  0.7132 -0.5035 -0.1376
 6501TIP3    H140994   2.945   0.668  12.166  0.3653  0.9212  0.4030
 6501TIP3    H240995   2.813   0.735  12.134 -0.2963 -1.2174 -1.6249
 6502TIP3   OH240996   4.571   0.047  11.166  0.1534 -0.1308  0.2358
 6502TIP3    H140997   4.531  -0.022  11.113  0.4674 -0.3981  0.3404
 6502TIP3    H240998   4.665   0.031  11.157  0.2217  0.1902  0.3881
 6503TIP3   OH240999   3.662   5.917  14.013 -0.6952  0.3503  0.3777
 6503TIP3    H141000   3.594   5.950  13.953 -0.3024  0.0891 -0.2176
 6503TIP3    H241001   3.693   5.995  14.059  0.2749  0.8577 -1.0632
 6504TIP3   OH241002   5.381   0.828   0.647 -0.2740 -0.2289  0.2572
 6504TIP3    H141003   5.312   0.860   0.589  0.0709 -1.5706 -0.9732
 6504TIP3    H241004   5.336   0.768   0.706 -0.4912  0.4975  0.8357
 6505TIP3   OH241005   3.641   2.276  15.102 -0.7878  0.0527  0.5487
 6505TIP3    H141006   3.589   2.199  15.079 -1.3107  0.2631  1.0284
 6505TIP3    H241007   3.683   2.301  15.019 -1.6417  0.0332  0.0962
 6506TIP3   OH241008   5.450   0.334  16.893 -0.0258  0.1317  0.5784
 6506TIP3    H141009   5.438   0.242  16.919  0.9311 -0.2786 -0.3349
 6506TIP3    H241010   5.509   0.369  16.960  0.7650 -0.3427  0.1575
 6507TIP3   OH241011   4.105   0.992   4.561 -0.6373  0.3852 -0.0521
 6507TIP3    H141012   4.054   1.044   4.500 -1.7137 -2.1248 -1.4311
 6507TIP3    H241013   4.149   0.927   4.507  2.9931  1.4842  1.2579
 6508TIP3   OH241014   0.216   0.393  11.366 -0.6191 -0.0817 -0.2381
 6508TIP3    H141015   0.300   0.407  11.410 -0.6534  2.4532 -0.8759
 6508TIP3    H241016   0.240   0.378  11.275 -0.8232 -0.4304 -0.2351
 6509TIP3   OH241017   2.708   5.503  12.403 -0.0204  0.1905  0.3592
 6509TIP3    H141018   2.702   5.598  12.401 -2.0218  0.0932 -0.6102
 6509TIP3    H241019   2.681   5.475  12.315  2.1089 -1.2475  0.0628
 6510TIP3   OH241020   1.560   3.056   3.978 -0.9048  0.0481  0.1079
 6510TIP3    H141021   1.553   2.973   3.931 -0.6247  0.6801 -1.0863
 6510TIP3    H241022   1.636   3.099   3.940 -0.7584  0.6593  1.0493
 6511TIP3   OH241023   0.239   6.067   4.224 -0.1142  1.1705 -0.2931
 6511TIP3    H141024   0.170   6.094   4.163  0.9103  0.1140 -2.0028
 6511TIP3    H241025   0.319   6.106   4.189  0.9206 -1.5196 -1.1617
 6512TIP3   OH241026   0.064   6.383   1.647  0.0502  0.3711  0.3688
 6512TIP3    H141027   0.111   6.317   1.698 -0.3559  0.5672  1.0039
 6512TIP3    H241028   0.130   6.451   1.630 -0.0452  0.7470  1.4437
 6513TIP3   OH241029   5.831   0.061   1.900  0.0239  0.0279 -0.3193
 6513TIP3    H141030   5.780   0.135   1.933  0.4867 -0.1739  0.8740
 6513TIP3    H241031   5.856   0.088   1.811 -1.7808  0.3009 -0.7877
 6514TIP3   OH241032   6.571   5.700  16.370  0.3531 -0.4300 -0.3816
 6514TIP3    H141033   6.629   5.625  16.358  1.0936 -0.1110  0.9799
 6514TIP3    H241034   6.544   5.695  16.462 -0.7102  0.1881 -0.6421
 6515TIP3   OH241035   6.805   3.798  16.829 -0.1777 -0.7065  0.4665
 6515TIP3    H141036   6.860   3.861  16.784 -1.6498  0.1354 -0.2183
 6515TIP3    H241037   6.801   3.829  16.919 -0.1892 -0.3133  0.3317
 6516TIP3   OH241038   6.341   1.788   6.153  0.0445 -0.2864  1.2755
 6516TIP3    H141039   6.342   1.801   6.248  0.8697 -2.0556  1.5496
 6516TIP3    H241040   6.276   1.719   6.139  0.2480 -0.3490  0.6070
 6517TIP3   OH241041   5.230   1.185   3.197  0.1645  0.2696 -0.2331
 6517TIP3    H141042   5.209   1.209   3.107 -1.4069 -0.0109  0.0347
 6517TIP3    H241043   5.250   1.267   3.241 -1.6574  0.7267 -0.2029
 6518TIP3   OH241044   1.744   5.332   0.297  0.0092 -0.1695  0.7295
 6518TIP3    H141045   1.780   5.305   0.213 -1.2840  3.0662 -1.0317
 6518TIP3    H241046   1.818   5.375   0.342  0.1238  0.1809  0.2133
 6519TIP3   OH241047   0.370   6.109   4.860  0.4163 -0.2289 -0.3190
 6519TIP3    H141048   0.408   6.120   4.773  1.0429  0.4764  0.0323
 6519TIP3    H241049   0.276   6.102   4.844  0.5682 -0.6016 -1.0884
 6520TIP3   OH241050   1.969   3.637  12.850  0.2874  0.2323  0.8858
 6520TIP3    H141051   2.048   3.585  12.833  0.2871  0.3592  0.4950
 6520TIP3    H241052   1.992   3.726  12.824 -0.1343  0.1808  0.3172
 6521TIP3   OH241053   1.273   0.847  13.860  0.1131  0.4276 -0.6024
 6521TIP3    H141054   1.344   0.859  13.923  1.2636  0.2657 -1.8040
 6521TIP3    H241055   1.248   0.755  13.869 -1.8214  1.0962  1.6613
 6522TIP3   OH241056   2.278   3.502  12.088 -0.0018  0.3956 -0.3544
 6522TIP3    H141057   2.249   3.429  12.034  0.5671 -0.0601 -0.0394
 6522TIP3    H241058   2.267   3.472  12.178  1.6581  0.1195 -0.2150
 6523TIP3   OH241059   5.911   4.127   5.958  0.6503  0.0596  0.4937
 6523TIP3    H141060   5.959   4.208   5.942 -0.7326  0.3849 -3.0711
 6523TIP3    H241061   5.964   4.058   5.918 -0.0977 -0.1142 -0.2398
 6524TIP3   OH241062   2.615   0.561  11.874 -0.3686 -0.3208 -0.7696
 6524TIP3    H141063   2.523   0.581  11.859 -0.3578 -0.5963 -1.2077
 6524TIP3    H241064   2.622   0.466  11.864 -0.3730 -0.5614  1.0703
 6525TIP3   OH241065   2.726   0.052  13.910  0.0674 -0.1915 -0.0961
 6525TIP3    H141066   2.776   0.043  13.828 -0.8103  0.6809 -0.7472
 6525TIP3    H241067   2.636   0.067  13.882 -0.4817 -1.1549  1.0647
 6526TIP3   OH241068   4.575   4.673   2.638 -0.6172 -0.2065  0.1756
 6526TIP3    H141069   4.560   4.760   2.675  0.5640  0.3300 -0.5730
 6526TIP3    H241070   4.535   4.614   2.701 -0.3337  0.8050  1.3453
 6527TIP3   OH241071   2.501   6.718  14.196  0.2306 -0.5420 -0.1347
 6527TIP3    H141072   2.581   6.672  14.168 -0.0574  0.3430 -2.6899
 6527TIP3    H241073   2.528   6.767  14.273  1.1504 -3.0862  1.2890
 6528TIP3   OH241074   3.604   2.994   3.353 -0.3265  0.7765 -0.0174
 6528TIP3    H141075   3.628   2.971   3.443  1.5935 -2.1159 -1.1406
 6528TIP3    H241076   3.547   2.923   3.325  2.4275 -0.7331 -2.3015
 6529TIP3   OH241077   3.618   1.458   2.685 -0.0570  0.2037 -0.5298
 6529TIP3    H141078   3.594   1.365   2.686 -0.5960  0.3009 -2.0188
 6529TIP3    H241079   3.706   1.460   2.722  0.4353 -1.0613 -1.5596
 6530TIP3   OH241080   5.994   4.946   1.241  0.9250  0.1730 -0.3056
 6530TIP3    H141081   5.996   4.856   1.274  0.7973  0.3819  0.2862
 6530TIP3    H241082   6.067   4.990   1.286 -0.2649  0.8964  0.9917
 6531TIP3   OH241083   4.510   3.489  13.659 -0.0270 -0.4641  0.2622
 6531TIP3    H141084   4.490   3.422  13.595 -0.1461  0.5529 -0.8060
 6531TIP3    H241085   4.425   3.527  13.681  0.2571  1.4187 -1.5450
 6532TIP3   OH241086   6.231   4.304   2.646 -0.1950 -0.3004  0.6020
 6532TIP3    H141087   6.276   4.284   2.728  1.6183 -2.7887 -0.8733
 6532TIP3    H241088   6.194   4.221   2.617 -3.4222  1.0841  0.2505
 6533TIP3   OH241089   4.236   6.304   4.231 -0.8411 -0.5924 -0.3197
 6533TIP3    H141090   4.323   6.324   4.265 -1.3039 -0.2627  0.7368
 6533TIP3    H241091   4.184   6.382   4.250 -1.9777 -1.6815  1.3628
 6534TIP3   OH241092   5.049   4.931   6.821  0.2815  0.0338 -0.2374
 6534TIP3    H141093   5.142   4.909   6.832  0.0929 -1.9179 -2.0043
 6534TIP3    H241094   5.040   5.017   6.862  2.5592 -0.3337  1.2086
 6535TIP3   OH241095   1.193   4.790   3.920  0.4829 -0.3802 -0.1869
 6535TIP3    H141096   1.255   4.721   3.896  1.8178  0.7506 -0.1756
 6535TIP3    H241097   1.218   4.864   3.864  0.2986  0.6708  1.0780
 6536TIP3   OH241098   6.737   3.321   0.970  0.0014 -0.1082 -0.1959
 6536TIP3    H141099   6.823   3.361   0.957  0.3048 -0.4587  0.6248
 6536TIP3    H241100   6.718   3.276   0.888  1.5295 -1.7197  0.2678
 6537TIP3   OH241101   1.450   2.578   4.268 -0.1352 -0.1852  0.5194
 6537TIP3    H141102   1.414   2.521   4.200  1.8789 -1.0240  0.0967
 6537TIP3    H241103   1.458   2.663   4.226 -1.0516 -0.1149  0.4547
 6538TIP3   OH241104   2.593   0.529   2.013 -0.4249 -0.0414  0.1971
 6538TIP3    H141105   2.648   0.509   1.937 -0.1744  1.1517  0.0509
 6538TIP3    H241106   2.557   0.615   1.994 -0.2514  0.3344  1.4901
 6539TIP3   OH241107   5.530   5.412   3.960 -0.0276  0.5393 -0.5737
 6539TIP3    H141108   5.451   5.440   3.914 -0.0717  0.4225 -0.5705
 6539TIP3    H241109   5.597   5.410   3.892  0.0419  0.9228 -0.5168
 6540TIP3   OH241110   0.168   6.792  13.462  0.0401  0.2274 -0.4077
 6540TIP3    H141111   0.257   6.788  13.426  0.1615  0.4065 -0.1292
 6540TIP3    H241112   0.179   6.825  13.551  0.0600 -2.8297  0.8596
 6541TIP3   OH241113   3.651   2.967   0.894 -0.5384  0.0574  0.0171
 6541TIP3    H141114   3.685   2.919   0.818  0.3648  2.4041 -1.1661
 6541TIP3    H241115   3.558   2.981   0.874 -0.4774  0.0092 -0.3060
 6542TIP3   OH241116   0.963   0.780   2.083  0.2545 -0.2738  0.0308
 6542TIP3    H141117   0.871   0.797   2.059  0.0606 -2.2919 -0.8838
 6542TIP3    H241118   1.007   0.765   1.999  0.8961 -1.5834  0.5724
 6543TIP3   OH241119   5.048   4.513   5.604 -0.2559  0.1980  0.1188
 6543TIP3    H141120   5.006   4.596   5.622  2.3424  0.9842  3.5637
 6543TIP3    H241121   5.034   4.498   5.510 -3.4711  2.8659  0.0325
 6544TIP3   OH241122   1.190   2.845   5.455 -0.1577 -0.2181 -0.5401
 6544TIP3    H141123   1.111   2.852   5.508  0.3091  1.2126  0.0009
 6544TIP3    H241124   1.262   2.845   5.517  0.3001 -1.8546 -1.0082
 6545TIP3   OH241125   2.826   1.165  13.088 -0.0966 -0.1533 -0.1569
 6545TIP3    H141126   2.774   1.237  13.050  0.6513  0.4411 -0.0829
 6545TIP3    H241127   2.868   1.124  13.013  0.7623  0.5278 -0.0660
 6546TIP3   OH241128   3.638   0.859  11.342 -0.1489  0.1965 -0.0389
 6546TIP3    H141129   3.559   0.818  11.306 -1.6608  2.0887  0.9396
 6546TIP3    H241130   3.635   0.837  11.435  0.6256  0.0763 -0.0405
 6547TIP3   OH241131   6.217   0.608   6.004  0.2142 -0.4170  0.4310
 6547TIP3    H141132   6.254   0.658   5.931  1.4360 -1.2410  0.4573
 6547TIP3    H241133   6.277   0.535   6.017 -1.2728 -1.6513  0.7062
 6548TIP3   OH241134   2.110   4.657  10.780  0.0547 -0.1063 -0.2527
 6548TIP3    H141135   2.024   4.643  10.741  0.3450 -2.2446 -0.2378
 6548TIP3    H241136   2.099   4.632  10.872  0.4675  0.5863 -0.0047
 6549TIP3   OH241137   6.518   2.547  13.425  0.3903 -0.4881  0.2996
 6549TIP3    H141138   6.482   2.509  13.504 -3.4830 -1.0370 -1.5255
 6549TIP3    H241139   6.546   2.472  13.372  0.4477 -0.2820  0.0332
 6550TIP3   OH241140   1.230   3.816  15.505 -0.2971  0.3259  0.1760
 6550TIP3    H141141   1.188   3.780  15.584 -2.1281  1.8576 -0.0124
 6550TIP3    H241142   1.269   3.898  15.535 -0.4378  0.5891 -0.3555
 6551TIP3   OH241143   5.007   0.519   0.168 -0.2326 -0.4145  0.2166
 6551TIP3    H141144   5.046   0.438   0.135 -0.2842  0.9546 -3.7378
 6551TIP3    H241145   4.922   0.524   0.124 -1.5081  0.4836  2.5853
 6552TIP3   OH241146   3.558   1.605  15.310 -0.1423  0.0807  0.0838
 6552TIP3    H141147   3.516   1.622  15.226  0.0723  2.5685  0.3966
 6552TIP3    H241148   3.630   1.668  15.314  0.4343 -0.6277  1.7355
 6553TIP3   OH241149   2.452   1.932   3.798 -0.0102 -0.4136  0.0571
 6553TIP3    H141150   2.439   1.885   3.716  1.9236 -1.0148  0.0234
 6553TIP3    H241151   2.446   1.864   3.866 -1.0756 -0.0109  0.3840
 6554TIP3   OH241152   0.482   1.411  12.331 -0.1096  0.6905 -0.0432
 6554TIP3    H141153   0.388   1.415  12.319 -0.1220  2.2668  0.2570
 6554TIP3    H241154   0.508   1.325  12.298 -1.6435  0.2203 -0.0847
 6555TIP3   OH241155   1.235   3.752   0.595 -0.3877 -0.6180 -0.2941
 6555TIP3    H141156   1.175   3.752   0.521 -0.5505  0.1593 -0.1809
 6555TIP3    H241157   1.308   3.697   0.568  0.4835  1.1825 -1.8184
 6556TIP3   OH241158   5.463   4.200  12.832  0.7415 -0.2154 -0.1328
 6556TIP3    H141159   5.476   4.276  12.774 -2.8504  0.2923 -0.4692
 6556TIP3    H241160   5.474   4.124  12.775  0.4085  0.1837 -0.7379
 6557TIP3   OH241161   0.061   4.143   1.115 -0.3275 -0.4224  0.4107
 6557TIP3    H141162   0.027   4.227   1.082 -0.7867 -0.5969  0.4294
 6557TIP3    H241163   0.155   4.146   1.096 -0.7156 -0.9402 -1.8449
 6558TIP3   OH241164   0.471   0.344   4.108  0.2447  0.4703  0.4845
 6558TIP3    H141165   0.506   0.359   4.021  0.8610  0.9729  0.8132
 6558TIP3    H241166   0.453   0.249   4.111 -1.3803  0.6979 -0.7558
 6559TIP3   OH241167   0.958   4.681   4.314 -0.1378 -0.5198  0.1075
 6559TIP3    H141168   1.051   4.678   4.337 -0.1961  1.7680  0.9161
 6559TIP3    H241169   0.913   4.675   4.398 -0.6032  0.9752 -0.0126
 6560TIP3   OH241170   0.129   3.551   5.121  0.0057  0.2113 -0.3156
 6560TIP3    H141171   0.067   3.554   5.049  0.5633 -0.0218 -0.8145
 6560TIP3    H241172   0.143   3.457   5.136  1.2416  0.2493 -1.0999
 6561TIP3   OH241173   4.806   3.838   5.733  0.0575  0.5071  0.1091
 6561TIP3    H141174   4.860   3.912   5.762 -2.8938  2.8835  0.0752
 6561TIP3    H241175   4.826   3.828   5.640  2.2145 -0.4262  0.6139
 6562TIP3   OH241176   4.454   5.586  13.094 -0.2745 -0.1121 -0.6918
 6562TIP3    H141177   4.390   5.520  13.121 -0.1314 -0.6895 -1.7128
 6562TIP3    H241178   4.475   5.634  13.175 -2.6452  0.6912 -0.4886
 6563TIP3   OH241179   5.341   2.993   2.855 -0.1155  0.8894  0.1657
 6563TIP3    H141180   5.251   2.966   2.875  0.4175 -0.8035  0.4694
 6563TIP3    H241181   5.333   3.083   2.824 -2.0897  0.2946 -1.2606
 6564TIP3   OH241182   2.213   0.621   3.178 -0.1827 -0.0497  0.0312
 6564TIP3    H141183   2.305   0.636   3.199 -0.0879 -0.2257 -0.2617
 6564TIP3    H241184   2.166   0.693   3.221  0.1613  0.4691 -0.4583
 6565TIP3   OH241185   3.369   2.004   2.752  0.4202 -0.1137  0.0065
 6565TIP3    H141186   3.374   2.038   2.663  1.3592  0.4238  0.2487
 6565TIP3    H241187   3.397   1.912   2.744  1.8822  0.3000 -0.0781
 6566TIP3   OH241188   4.889   5.737   5.563 -0.1639 -0.2736 -0.5244
 6566TIP3    H141189   4.950   5.707   5.630 -0.4722  0.0812 -0.0823
 6566TIP3    H241190   4.893   5.669   5.495  2.8305  1.0769 -1.8626
 6567TIP3   OH241191   2.372   6.208   2.429  0.1451 -0.6396 -0.2863
 6567TIP3    H141192   2.458   6.240   2.457  0.2616 -0.3983 -0.9017
 6567TIP3    H241193   2.373   6.115   2.452  0.4190 -0.5554  0.0620
 6568TIP3   OH241194   0.987   2.161  11.787 -0.1328 -0.1739  0.4128
 6568TIP3    H141195   0.900   2.201  11.794 -0.0004 -0.0268  1.3281
 6568TIP3    H241196   1.021   2.191  11.702  0.3136  2.3899  1.4047
 6569TIP3   OH241197   1.202   2.693  10.539  0.4946 -1.5011 -0.3661
 6569TIP3    H141198   1.178   2.609  10.579 -0.1617 -0.9320  0.4579
 6569TIP3    H241199   1.227   2.749  10.613 -1.4603 -0.1900 -0.6206
 6570TIP3   OH241200   5.664   1.401   5.271 -0.3849  0.2110  0.0821
 6570TIP3    H141201   5.617   1.319   5.257 -0.5843  0.1774  0.8778
 6570TIP3    H241202   5.752   1.375   5.298 -0.3411  0.2606 -0.0134
 6571TIP3   OH241203   1.977   3.410  14.575  0.0892 -0.2107  0.1685
 6571TIP3    H141204   1.935   3.326  14.555  1.2986 -0.9050  0.4871
 6571TIP3    H241205   1.904   3.472  14.579 -0.8830 -1.3286  0.4220
 6572TIP3   OH241206   2.292   3.628  16.882  0.1516  0.3339 -0.0581
 6572TIP3    H141207   2.207   3.672  16.885 -0.6722 -1.2202  1.9856
 6572TIP3    H241208   2.283   3.555  16.943  2.4031 -0.9313 -1.1193
 6573TIP3   OH241209   2.455   6.831   1.576 -0.2000 -0.3915 -0.5431
 6573TIP3    H141210   2.540   6.806   1.539 -1.1657 -1.8243 -1.9648
 6573TIP3    H241211   2.441   6.768   1.647 -0.0739 -0.1703 -0.3241
 6574TIP3   OH241212   3.649   1.238  13.023 -0.1689  0.4052  0.3571
 6574TIP3    H141213   3.701   1.267  13.098 -0.8869  0.8116  0.7072
 6574TIP3    H241214   3.663   1.144  13.020  0.3974  0.4781  0.5980
 6575TIP3   OH241215   2.662   1.565   0.669  0.6484 -0.2328  0.5866
 6575TIP3    H141216   2.618   1.506   0.730  0.9581 -0.1847  0.8609
 6575TIP3    H241217   2.663   1.649   0.714  0.9684 -0.2206  0.5544
 6576TIP3   OH241218   5.088   2.503   5.935  0.4430  0.4964  0.0348
 6576TIP3    H141219   5.159   2.507   5.999 -1.0972  0.4882  1.8290
 6576TIP3    H241220   5.041   2.423   5.955 -1.1152  1.3746  0.0844
 6577TIP3   OH241221   3.125   4.615   0.767  0.2473  0.5976 -0.2599
 6577TIP3    H141222   3.089   4.528   0.786  0.7231  0.7055  1.2512
 6577TIP3    H241223   3.053   4.661   0.723 -1.4547  0.7118  2.4306
 6578TIP3   OH241224   1.729   0.332  10.864  0.2907 -0.2915  0.3417
 6578TIP3    H141225   1.737   0.415  10.910 -1.9588 -0.0013  0.3467
 6578TIP3    H241226   1.731   0.265  10.933 -0.6708 -0.0267  0.6396
 6579TIP3   OH241227   1.513   6.720  16.589  0.1963 -0.5731 -0.1379
 6579TIP3    H141228   1.583   6.737  16.652 -0.4734  0.2833  0.4051
 6579TIP3    H241229   1.515   6.625  16.575  1.9972 -0.4748 -0.7860
 6580TIP3   OH241230   0.535   3.277  13.912 -0.0008  0.2023  0.0168
 6580TIP3    H141231   0.484   3.221  13.971 -2.6749  2.9045  0.5130
 6580TIP3    H241232   0.590   3.330  13.971  0.1806  0.2635 -0.2080
 6581TIP3   OH241233   2.383   4.889  16.782  0.2523 -0.1216  0.0012
 6581TIP3    H141234   2.435   4.864  16.705 -1.0401 -1.4976 -0.4758
 6581TIP3    H241235   2.438   4.865  16.856  1.4276  1.0158 -0.4696
 6582TIP3   OH241236   2.905   4.775   0.640  0.4132 -0.1681 -0.6748
 6582TIP3    H141237   2.917   4.869   0.644  1.8236 -0.2987 -1.3796
 6582TIP3    H241238   2.912   4.753   0.548 -0.7032 -0.8839 -0.6109
 6583TIP3   OH241239   5.856   1.771  11.143 -0.1004 -0.2211 -0.0977
 6583TIP3    H141240   5.808   1.698  11.105  0.3195 -0.0915 -0.9023
 6583TIP3    H241241   5.791   1.817  11.197  0.1236 -2.3390  2.1537
 6584TIP3   OH241242   1.902   2.326  15.620  0.1553 -0.1829 -0.4734
 6584TIP3    H141243   1.868   2.289  15.702  1.3849 -2.4295 -0.8894
 6584TIP3    H241244   1.830   2.380  15.587 -1.7287 -2.0367  0.3489
 6585TIP3   OH241245   6.412   5.546   5.179 -0.5760  0.0535 -0.0380
 6585TIP3    H141246   6.348   5.485   5.214 -0.3578 -0.8274 -1.0999
 6585TIP3    H241247   6.364   5.627   5.163 -1.5758 -0.7561 -1.3180
 6586TIP3   OH241248   4.082   2.226  14.863  0.7243 -0.8142  0.2628
 6586TIP3    H141249   4.135   2.306  14.860 -0.5475  0.0181 -1.9458
 6586TIP3    H241250   4.079   2.204  14.956  1.7434  1.2757  0.8663
 6587TIP3   OH241251   2.488   4.511  14.239 -0.2518  0.6447  0.2481
 6587TIP3    H141252   2.467   4.535  14.148  0.3641  1.7938  0.3761
 6587TIP3    H241253   2.417   4.454  14.266 -0.7830  0.7946 -0.7636
 6588TIP3   OH241254   1.426   3.257  11.481 -0.1971 -0.2204 -0.0336
 6588TIP3    H141255   1.425   3.224  11.570  2.8398 -0.7711 -0.1225
 6588TIP3    H241256   1.447   3.350  11.490 -0.4925 -0.1401 -0.1569
 6589TIP3   OH241257   0.221   0.124  14.526  0.6411  0.3661  0.1459
 6589TIP3    H141258   0.161   0.186  14.486  0.5318  0.0957 -0.1134
 6589TIP3    H241259   0.308   0.152  14.497  0.5267 -0.1233 -0.6954
 6590TIP3   OH241260   5.777   1.083  17.049 -0.2100 -0.0156  0.0172
 6590TIP3    H141261   5.868   1.073  17.020  0.0871  0.4931  0.7468
 6590TIP3    H241262   5.767   1.177  17.066 -0.2678 -0.3085  1.8182
 6591TIP3   OH241263   4.895   6.370  16.035 -0.0607  0.0358  0.7247
 6591TIP3    H141264   4.886   6.407  15.947 -0.0178 -0.0930  0.6662
 6591TIP3    H241265   4.986   6.388  16.058 -0.3154  0.8918  1.1114
 6592TIP3   OH241266   1.723   6.395  16.824 -0.2235  0.0276 -0.5722
 6592TIP3    H141267   1.802   6.448  16.832 -0.8748  0.7854  2.0623
 6592TIP3    H241268   1.754   6.307  16.803  1.7204 -0.3738  3.0429
 6593TIP3   OH241269   2.996   1.325  14.875  0.2326 -0.2726 -0.1052
 6593TIP3    H141270   2.911   1.281  14.873  0.3466 -0.4785 -1.4255
 6593TIP3    H241271   2.981   1.408  14.830  1.4181 -1.7104 -3.4739
 6594TIP3   OH241272   2.383   3.601  16.486  0.0566  0.3425 -0.7644
 6594TIP3    H141273   2.465   3.577  16.444 -0.2362  0.9387 -1.6961
 6594TIP3    H241274   2.399   3.588  16.580  1.3628  0.9281 -0.8952
 6595TIP3   OH241275   6.843   5.050  14.600  0.0862  0.5818 -0.0528
 6595TIP3    H141276   6.878   5.034  14.512 -1.2707  0.7471 -0.6546
 6595TIP3    H241277   6.813   4.964  14.629 -1.1396  0.8335 -0.5293
 6596TIP3   OH241278   6.290   1.856   2.728 -0.1302 -0.6412  0.6859
 6596TIP3    H141279   6.352   1.914   2.684  0.2754 -1.7819 -0.2826
 6596TIP3    H241280   6.330   1.839   2.813 -0.0193  0.0888  0.7901
 6597TIP3   OH241281   4.703   5.932  12.059 -0.5458  0.0401  0.3727
 6597TIP3    H141282   4.718   5.839  12.077  2.8871  0.1482 -1.0809
 6597TIP3    H241283   4.691   5.936  11.964 -1.7189  1.0141  0.5479
 6598TIP3   OH241284   1.224   5.412  14.113  0.0140  0.1265  0.2841
 6598TIP3    H141285   1.128   5.415  14.117 -0.0094  1.0149 -0.6062
 6598TIP3    H241286   1.252   5.451  14.196 -0.3655 -1.8355  1.3934
 6599TIP3   OH241287   3.219   5.179  12.385  0.1538 -0.1121 -0.1414
 6599TIP3    H141288   3.311   5.158  12.404  0.1998 -0.5128 -0.7839
 6599TIP3    H241289   3.210   5.163  12.291 -0.7571 -0.7655  0.0461
 6600TIP3   OH241290   4.173   5.699   4.406  0.4067  0.4467  0.4252
 6600TIP3    H141291   4.210   5.618   4.440  1.6718  1.1545  0.8053
 6600TIP3    H241292   4.241   5.734   4.348 -0.1721  1.1811  0.1638
 6601TIP3   OH241293   6.097   0.715   2.039  0.0549  0.3594 -0.3049
 6601TIP3    H141294   6.141   0.784   2.087  1.9566  0.0008 -1.4496
 6601TIP3    H241295   6.141   0.711   1.954 -1.2661 -0.9759 -0.9952
 6602TIP3   OH241296   2.308   2.836  16.796 -0.6222 -0.6896  0.7689
 6602TIP3    H141297   2.258   2.825  16.715 -1.8237  0.0229  1.3827
 6602TIP3    H241298   2.360   2.755  16.803 -0.5028 -0.7733 -0.6794
 6603TIP3   OH241299   2.059   2.831  17.176  0.5387  0.0517  0.3633
 6603TIP3    H141300   2.084   2.923  17.187 -0.9046  0.2706  2.2968
 6603TIP3    H241301   2.033   2.825  17.084  2.7186  0.9895 -0.3977
 6604TIP3   OH241302   5.496   4.987   0.301 -0.3467 -0.3792 -0.0950
 6604TIP3    H141303   5.448   4.997   0.384 -0.3474 -0.2197 -0.1140
 6604TIP3    H241304   5.493   4.894   0.282  2.3916 -0.9755  1.7392
 6605TIP3   OH241305   4.994   3.541  10.161 -0.0421 -0.1302  0.0517
 6605TIP3    H141306   4.945   3.541  10.244 -1.6616 -1.2864 -0.8513
 6605TIP3    H241307   4.941   3.488  10.102  1.1269  0.5929 -1.7251
 6606TIP3   OH241308   3.106   4.054  13.314  0.2325 -0.7555 -0.4300
 6606TIP3    H141309   3.016   4.078  13.294  0.1063 -0.4027  0.4964
 6606TIP3    H241310   3.104   4.029  13.406  1.6949  2.6557  0.6704
 6607TIP3   OH241311   3.142   1.809   5.533  0.1837  0.1459  0.5030
 6607TIP3    H141312   3.049   1.829   5.524 -0.0219 -0.4695  1.2639
 6607TIP3    H241313   3.168   1.850   5.615  0.6243  0.4096  0.2421
 6608TIP3   OH241314   3.232   0.512  16.024  0.4580 -0.1872 -0.5227
 6608TIP3    H141315   3.231   0.476  15.935  2.0858  0.1689 -0.7055
 6608TIP3    H241316   3.324   0.523  16.045  0.0997 -0.1820  1.1966
 6609TIP3   OH241317   0.195   3.470  11.953 -0.2291  0.4045 -0.2117
 6609TIP3    H141318   0.164   3.464  12.043  0.3393 -0.9947 -0.0870
 6609TIP3    H241319   0.123   3.435  11.900  0.3108 -0.9473 -0.0884
 6610TIP3   OH241320   2.381   0.018  15.285 -0.1587  0.3857 -0.1260
 6610TIP3    H141321   2.331  -0.062  15.305  0.5061 -0.3067 -1.1030
 6610TIP3    H241322   2.392   0.015  15.190  1.7670  0.4783  0.0617
 6611TIP3   OH241323   4.716   1.234   2.268  0.1833 -0.0732  0.0090
 6611TIP3    H141324   4.656   1.256   2.197  1.0251  0.1108 -0.6701
 6611TIP3    H241325   4.664   1.243   2.347 -0.9802 -0.9760 -0.6177
 6612TIP3   OH241326   0.145   3.985  16.950 -0.2630 -0.3400 -0.2214
 6612TIP3    H141327   0.212   3.966  17.016  1.4779  1.3336 -1.4128
 6612TIP3    H241328   0.191   3.978  16.867 -1.5617  0.8809 -1.0874
 6613TIP3   OH241329   0.828   5.815  15.842 -0.0555  0.0424  0.3008
 6613TIP3    H141330   0.795   5.750  15.904  0.7938 -0.9668 -0.2679
 6613TIP3    H241331   0.845   5.893  15.895 -1.9481  0.1333  0.8518
 6614TIP3   OH241332   2.178   2.357   3.133  0.1411  0.1360  0.1145
 6614TIP3    H141333   2.210   2.379   3.220  1.1789  0.5091 -0.3401
 6614TIP3    H241334   2.085   2.340   3.145  0.2220  0.4087  1.2512
 6615TIP3   OH241335   2.822   0.629  11.087  0.4542  0.8980 -0.3049
 6615TIP3    H141336   2.832   0.707  11.141  1.7686 -0.4290  1.4872
 6615TIP3    H241337   2.760   0.574  11.135  0.9296  0.0781 -0.5981
 6616TIP3   OH241338   0.863   3.187   0.307 -0.5929  0.7420 -0.5949
 6616TIP3    H141339   0.833   3.170   0.396 -0.6171  2.4834 -0.2392
 6616TIP3    H241340   0.784   3.183   0.253 -0.8501  1.2961 -0.2710
 6617TIP3   OH241341   0.058   3.591   0.281 -0.3674  0.1745 -0.0148
 6617TIP3    H141342   0.098   3.511   0.248 -2.0798 -0.4838 -0.5886
 6617TIP3    H241343   0.119   3.661   0.257  1.7248 -1.0149  1.4784
 6618TIP3   OH241344   6.045   1.114  15.298  0.4793  0.3894  0.3350
 6618TIP3    H141345   5.990   1.175  15.347  0.1283  0.9102 -0.6679
 6618TIP3    H241346   6.033   1.140  15.207  1.5299 -0.2049  0.0139
 6619TIP3   OH241347   0.316   6.669   5.805  0.4663 -1.1136  0.4631
 6619TIP3    H141348   0.262   6.665   5.884  1.8025  3.1283  1.8564
 6619TIP3    H241349   0.331   6.763   5.791  1.3789 -1.7434 -4.1490
 6620TIP3   OH241350   3.976   6.107  12.519 -0.2546 -0.4021 -1.0205
 6620TIP3    H141351   4.019   6.064  12.593 -0.1994 -0.0581 -0.8499
 6620TIP3    H241352   3.906   6.048  12.494 -1.4923  0.3266  0.5177
 6621TIP3   OH241353   0.875   4.410   4.257 -0.1113  0.5437 -0.0132
 6621TIP3    H141354   0.869   4.504   4.272 -0.9164  0.5870 -0.5596
 6621TIP3    H241355   0.969   4.391   4.262  0.0837  1.4177 -0.1642
 6622TIP3   OH241356   1.369   1.617   5.804  0.1631  0.2289 -0.1008
 6622TIP3    H141357   1.377   1.642   5.712  0.7916 -1.3625 -0.5129
 6622TIP3    H241358   1.275   1.620   5.822  0.1634  2.1878 -0.2850
 6623TIP3   OH241359   5.205   6.267  14.347 -0.3834 -0.3251 -0.0690
 6623TIP3    H141360   5.271   6.334  14.362 -0.3940 -0.3416  0.0520
 6623TIP3    H241361   5.237   6.217  14.272 -1.2285  0.9176 -1.3207
 6624TIP3   OH241362   2.290   5.724   0.611 -0.0243 -0.6166  0.3898
 6624TIP3    H141363   2.314   5.688   0.696  0.9564 -0.6440  0.1130
 6624TIP3    H241364   2.353   5.685   0.549 -0.7959 -0.6941 -0.3687
 6625TIP3   OH241365   5.367   3.311   4.021  0.5679 -0.2336  0.3003
 6625TIP3    H141366   5.278   3.300   4.055  1.1835  0.1375  2.1689
 6625TIP3    H241367   5.410   3.227   4.039  1.2022  0.3154  1.4468
 6626TIP3   OH241368   2.783   6.519   3.733  0.6739 -0.2660  0.1507
 6626TIP3    H141369   2.752   6.583   3.668  1.7538 -0.7204 -0.8567
 6626TIP3    H241370   2.742   6.436   3.706 -0.7831 -0.0285  1.4971
 6627TIP3   OH241371   5.541   2.990  11.623 -0.3880  0.2006  0.3450
 6627TIP3    H141372   5.534   2.969  11.530 -2.0227  1.0517  0.2374
 6627TIP3    H241373   5.632   2.972  11.644  0.5203  1.6572 -1.8633
 6628TIP3   OH241374   3.711   0.415  14.741  0.5423  0.5779 -0.2740
 6628TIP3    H141375   3.720   0.446  14.650 -1.7933  1.1481 -0.3806
 6628TIP3    H241376   3.639   0.352  14.738  0.8745  0.1083  1.0781
 6629TIP3   OH241377   1.188   5.032  13.398 -0.1845 -0.5609  0.4025
 6629TIP3    H141378   1.188   5.089  13.475 -2.6906 -0.4395  0.3865
 6629TIP3    H241379   1.211   5.090  13.326  0.8468 -0.3853  0.8525
 6630TIP3   OH241380   1.090   6.228   5.731  0.6011  0.0550  0.7001
 6630TIP3    H141381   1.180   6.211   5.759  0.6575  0.0429  0.5170
 6630TIP3    H241382   1.062   6.302   5.785  0.8316  0.2631  0.5390
 6631TIP3   OH241383   5.305   0.613  10.797 -0.1269 -0.5590 -0.3727
 6631TIP3    H141384   5.287   0.528  10.838  0.5433 -0.2821  0.5411
 6631TIP3    H241385   5.399   0.625  10.807 -0.2793  0.5029 -0.0655
 6632TIP3   OH241386   4.746   5.669  12.736  0.1746 -0.2078  0.4837
 6632TIP3    H141387   4.782   5.638  12.653 -0.6895 -1.5002  0.5629
 6632TIP3    H241388   4.755   5.764  12.732  0.5757 -0.2861 -0.8853
 6633TIP3   OH241389   0.919   2.086  13.229  0.5245 -0.2619  0.1327
 6633TIP3    H141390   0.873   2.139  13.294 -0.8018 -0.5436 -0.5484
 6633TIP3    H241391   0.998   2.136  13.210 -0.5727  1.3868 -0.3254
 6634TIP3   OH241392   6.483   4.427   3.805 -0.3785  0.3096 -0.2188
 6634TIP3    H141393   6.555   4.372   3.773  0.4214  0.5779  1.0321
 6634TIP3    H241394   6.473   4.495   3.738  1.2282  0.8549  0.0509
 6635TIP3   OH241395   4.587   6.178  16.888 -0.1495 -0.3901  0.1124
 6635TIP3    H141396   4.567   6.085  16.901  1.8387 -0.9847 -0.8044
 6635TIP3    H241397   4.643   6.201  16.962  1.8603 -0.7859 -1.2004
 6636TIP3   OH241398   5.347   3.833   1.747  0.0177  0.3939  0.1606
 6636TIP3    H141399   5.378   3.790   1.827 -1.4022 -2.4687 -0.7159
 6636TIP3    H241400   5.321   3.921   1.776  1.7786  0.2947  2.3195
 6637TIP3   OH241401   1.352   1.295   1.663 -0.0309  0.6419 -0.3084
 6637TIP3    H141402   1.408   1.334   1.730  1.6025 -1.1831 -0.5219
 6637TIP3    H241403   1.264   1.301   1.700  0.8770 -1.0133  2.4693
 6638TIP3   OH241404   0.263   6.665  15.132  0.0067 -0.1001 -0.2164
 6638TIP3    H141405   0.272   6.752  15.171  0.5777 -0.3967  0.3248
 6638TIP3    H241406   0.309   6.672  15.048  0.2008  0.0746 -0.0982
 6639TIP3   OH241407   4.672   0.210   5.318 -0.2993  0.0791 -0.0289
 6639TIP3    H141408   4.645   0.153   5.246 -1.5004  0.4488  0.1146
 6639TIP3    H241409   4.681   0.150   5.393  0.6940 -0.2640 -0.4074
 6640TIP3   OH241410   1.087   6.764  13.734  0.2862  0.1654 -0.2523
 6640TIP3    H141411   1.046   6.737  13.816 -1.8284 -0.4061 -1.4084
 6640TIP3    H241412   1.176   6.731  13.740 -0.4893 -1.9351  0.8926
 6641TIP3   OH241413   0.886   3.751  11.201  0.2290  0.1839 -0.3219
 6641TIP3    H141414   0.943   3.824  11.175  1.8682 -1.5736 -1.9523
 6641TIP3    H241415   0.822   3.744  11.130 -0.8808  0.9205  0.5676
 6642TIP3   OH241416   1.430   6.516  11.986  0.3226  0.2317  0.4623
 6642TIP3    H141417   1.384   6.442  11.947 -1.6115  0.2752  2.4629
 6642TIP3    H241418   1.465   6.565  11.911  0.2077 -1.7751 -0.9606
 6643TIP3   OH241419   3.964   4.052  13.145  0.0663 -0.1234 -0.1633
 6643TIP3    H141420   3.952   3.987  13.215 -0.0474  0.2312  0.1504
 6643TIP3    H241421   4.029   4.112  13.179 -1.7911  1.5019  0.7127
 6644TIP3   OH241422   4.089   2.184  13.030 -0.1639  0.6237 -0.5174
 6644TIP3    H141423   4.182   2.208  13.029  0.6640 -2.0187  1.8464
 6644TIP3    H241424   4.085   2.100  12.985 -1.4079  0.6484 -0.5009
 6645TIP3   OH241425   5.487   2.207  15.961 -0.2410 -0.0295  0.2572
 6645TIP3    H141426   5.434   2.264  16.017 -0.7920  0.5362 -0.7993
 6645TIP3    H241427   5.471   2.119  15.995 -2.4511  0.0367 -0.4279
 6646TIP3   OH241428   6.349   3.880   4.857  0.5256  0.2643  0.5113
 6646TIP3    H141429   6.318   3.954   4.805  0.3747 -0.0489  0.1496
 6646TIP3    H241430   6.269   3.839   4.891  0.6196  0.4247  0.9385
 6647TIP3   OH241431   0.814   2.441  11.797 -0.1822 -0.4241  0.6173
 6647TIP3    H141432   0.831   2.518  11.851  1.2165 -1.0466  1.1030
 6647TIP3    H241433   0.786   2.374  11.859 -0.5359 -0.5662  0.3096
 6648TIP3   OH241434   5.611   6.417  14.787  0.2591 -0.2826 -0.1053
 6648TIP3    H141435   5.600   6.398  14.694 -1.3519  0.9844 -0.2224
 6648TIP3    H241436   5.686   6.364  14.814  1.1617 -0.2111 -2.2575
 6649TIP3   OH241437   5.947   6.361  11.477  0.0096  0.7106  0.0741
 6649TIP3    H141438   5.988   6.447  11.471  0.1045  0.7183  0.7902
 6649TIP3    H241439   5.877   6.364  11.412  0.7972  0.8796 -0.7914
 6650TIP3   OH241440   5.301   2.367  12.867 -0.5506 -0.3898 -0.1195
 6650TIP3    H141441   5.383   2.411  12.843  0.3786 -1.1822  1.4576
 6650TIP3    H241442   5.270   2.328  12.785  0.9203 -0.4816 -0.6646
 6651TIP3   OH241443   1.743   1.556   3.906  0.2499 -0.3626  0.1187
 6651TIP3    H141444   1.756   1.641   3.948 -1.0311  0.5887 -1.3064
 6651TIP3    H241445   1.659   1.525   3.939 -0.7243  0.3509 -1.5550
 6652TIP3   OH241446   6.444   6.402  13.039 -0.2411 -0.0089  0.2986
 6652TIP3    H141447   6.382   6.357  12.981 -0.0386 -2.1326  1.6134
 6652TIP3    H241448   6.489   6.464  12.982 -0.9332 -1.1089 -1.5454
 6653TIP3   OH241449   3.878   2.524   3.884  0.4087  0.4985 -0.6136
 6653TIP3    H141450   3.880   2.512   3.979 -1.7407 -1.6566 -0.7592
 6653TIP3    H241451   3.971   2.526   3.859  1.0267 -0.8541  1.3145
 6654TIP3   OH241452   3.876   5.457  13.093  0.6132 -0.4926  0.8592
 6654TIP3    H141453   3.821   5.388  13.055 -0.3404  1.6893 -2.0717
 6654TIP3    H241454   3.961   5.446  13.050  0.6212 -0.1666  0.7925
 6655TIP3   OH241455   0.409   0.137   5.645 -0.6873 -0.3575 -0.0652
 6655TIP3    H141456   0.451   0.152   5.730  0.0961  0.2076 -0.5265
 6655TIP3    H241457   0.465   0.184   5.583 -2.7323  1.6020 -0.5782
 6656TIP3   OH241458   4.535   6.398  14.080  0.3319  0.0765 -0.2062
 6656TIP3    H141459   4.626   6.374  14.061 -0.2041 -2.3952 -0.0913
 6656TIP3    H241460   4.485   6.359  14.008 -0.6967  0.8528  0.0688
 6657TIP3   OH241461   1.162   3.763   6.127  0.1191  0.9063 -0.1093
 6657TIP3    H141462   1.199   3.681   6.093  0.7308  1.0099  0.2913
 6657TIP3    H241463   1.136   3.811   6.049 -0.4573  0.2376 -0.3435
 6658TIP3   OH241464   3.600   2.146  12.974  0.1949 -0.8467 -0.0258
 6658TIP3    H141465   3.609   2.077  13.040  1.2948 -1.3755 -0.7114
 6658TIP3    H241466   3.689   2.180  12.963 -0.4842  1.5702  1.2015
 6659TIP3   OH241467   6.771   1.327   5.925 -0.5074 -0.2021 -0.2091
 6659TIP3    H141468   6.775   1.421   5.941 -1.4345 -0.3124  0.7938
 6659TIP3    H241469   6.684   1.313   5.889 -0.4760 -0.7137 -0.0878
 6660TIP3   OH241470   4.090   0.197   6.218 -0.3409 -0.5909 -0.0077
 6660TIP3    H141471   4.016   0.257   6.228 -0.2834 -0.4588 -0.3576
 6660TIP3    H241472   4.167   0.251   6.233 -0.2078 -0.1896 -1.8784
 6661TIP3   OH241473   6.548   4.744   1.133 -0.1895 -0.5689 -0.0516
 6661TIP3    H141474   6.603   4.822   1.140  0.9812 -1.4211  0.7147
 6661TIP3    H241475   6.492   4.747   1.211 -0.0636 -0.5545  0.0391
 6662TIP3   OH241476   1.903   2.434   3.544  0.0068  0.1099  0.1053
 6662TIP3    H141477   1.886   2.437   3.638  0.3788  0.1257  0.1750
 6662TIP3    H241478   1.840   2.370   3.511  0.9529 -1.1312  0.6199
 6663TIP3   OH241479   4.134   6.250  11.966 -0.2076  0.0790  0.4191
 6663TIP3    H141480   4.205   6.312  11.985  0.5882 -0.4677 -0.6794
 6663TIP3    H241481   4.177   6.166  11.957 -0.4388  0.2107 -3.5974
 6664TIP3   OH241482   2.136   0.601  15.939 -0.3668  0.6731 -0.2328
 6664TIP3    H141483   2.206   0.572  15.998  0.1807  0.9170 -0.7553
 6664TIP3    H241484   2.099   0.520  15.904 -1.0126  0.5041  0.7937
 6665TIP3   OH241485   0.209   3.214   4.429  0.5443  0.4106 -0.0294
 6665TIP3    H141486   0.149   3.250   4.494 -0.7461 -1.1257 -0.3226
 6665TIP3    H241487   0.277   3.171   4.480 -0.4571 -0.7789  0.3405
 6666TIP3   OH241488   5.051   6.722  17.156 -0.2828 -0.0250  0.0251
 6666TIP3    H141489   5.138   6.743  17.191  1.1597  1.5688 -3.9038
 6666TIP3    H241490   5.050   6.627  17.149  1.6157 -0.0318 -0.7651
 6667TIP3   OH241491   6.347   1.173   2.327  0.5125 -0.4436 -0.3295
 6667TIP3    H141492   6.256   1.142   2.317  0.4587 -1.5364  2.4122
 6667TIP3    H241493   6.340   1.246   2.388  1.5453 -1.6468  1.3243
 6668TIP3   OH241494   2.800   5.699  15.869  0.4366  0.0744 -0.0170
 6668TIP3    H141495   2.713   5.725  15.839  0.7029 -0.0867 -0.9672
 6668TIP3    H241496   2.788   5.610  15.901 -0.0808  0.6454  1.4336
 6669TIP3   OH241497   3.451   5.524   1.979  0.0017  0.2725  0.2120
 6669TIP3    H141498   3.468   5.617   1.965 -0.1807  0.2943  0.1324
 6669TIP3    H241499   3.483   5.482   1.899 -1.4187  0.4401 -0.4698
 6670TIP3   OH241500   0.424   4.911   4.511 -0.7108 -0.5128 -0.0690
 6670TIP3    H141501   0.498   4.888   4.567  0.4600  0.6293 -1.0728
 6670TIP3    H241502   0.350   4.917   4.571  0.7524  2.0563  1.6764
 6671TIP3   OH241503   0.025   6.216   2.710 -0.3754 -0.4353 -0.1316
 6671TIP3    H141504  -0.010   6.286   2.765  0.3852 -0.5929  0.5641
 6671TIP3    H241505   0.089   6.171   2.765 -0.4140 -1.3044 -0.7698
 6672TIP3   OH241506   4.848   0.685  12.276  0.0130  0.0887 -0.4612
 6672TIP3    H141507   4.889   0.679  12.362 -1.0325  1.1634  0.1368
 6672TIP3    H241508   4.828   0.778  12.265 -3.2484 -0.4557 -0.1860
 6673TIP3   OH241509   4.091   0.563   3.915 -0.0869  0.1466 -0.2491
 6673TIP3    H141510   4.069   0.474   3.943 -0.4477  0.6887  1.2979
 6673TIP3    H241511   4.009   0.611   3.922  0.4421  0.9730  0.5049
 6674TIP3   OH241512   1.729   0.612   2.080  0.6798  0.5412  0.2844
 6674TIP3    H141513   1.733   0.693   2.130 -1.4070  1.1191 -0.3917
 6674TIP3    H241514   1.653   0.566   2.114  2.0937 -1.4404  0.9899
 6675TIP3   OH241515   6.588   0.198  13.514 -0.3013  0.3782 -0.1956
 6675TIP3    H141516   6.674   0.221  13.479  0.1669 -0.1264  0.6098
 6675TIP3    H241517   6.533   0.188  13.436  0.3551  0.7198 -0.7138
 6676TIP3   OH241518   0.014   2.303   4.812 -0.4372  0.1178 -0.3306
 6676TIP3    H141519   0.035   2.382   4.763 -1.1202 -0.2880 -1.2920
 6676TIP3    H241520   0.097   2.254   4.816 -0.1814  0.5498 -0.3444
 6677TIP3   OH241521   5.888   2.706  14.026  0.2218  0.3945 -0.1202
 6677TIP3    H141522   5.902   2.614  14.048  0.2697  0.5289  0.4364
 6677TIP3    H241523   5.847   2.743  14.104  1.2971  1.1101  0.1368
 6678TIP3   OH241524   5.848   4.397   3.098 -0.3589  0.4193 -0.1318
 6678TIP3    H141525   5.920   4.379   3.037 -1.7046  0.7165 -1.8990
 6678TIP3    H241526   5.807   4.311   3.113 -1.4303  0.6395 -1.5572
 6679TIP3   OH241527   4.726   6.776  16.444  0.0549  0.1423  0.4327
 6679TIP3    H141528   4.778   6.849  16.411 -1.0137  0.0666 -1.5690
 6679TIP3    H241529   4.780   6.737  16.513  0.9777  2.3306  1.0387
 6680TIP3   OH241530   3.699   2.012  15.588  0.5938 -0.3594 -0.4940
 6680TIP3    H141531   3.690   1.921  15.618 -0.4196 -0.4255 -0.9814
 6680TIP3    H241532   3.673   2.064  15.664  1.3450 -0.4682 -0.1569
 6681TIP3   OH241533   0.526   3.488   0.119  0.2922 -0.9313 -1.0916
 6681TIP3    H141534   0.447   3.453   0.076  0.3457 -0.8275 -1.2774
 6681TIP3    H241535   0.492   3.546   0.187  0.2076 -0.5919 -1.4196
 6682TIP3   OH241536   4.205   5.244   4.913  0.2888 -0.4267 -0.7486
 6682TIP3    H141537   4.269   5.207   4.852  0.2918 -0.3106 -0.8172
 6682TIP3    H241538   4.214   5.339   4.901  1.2375 -0.3553  0.3969
 6683TIP3   OH241539   3.089   2.044  13.249 -0.0751  0.1568  0.0378
 6683TIP3    H141540   3.077   2.138  13.233  1.3671  0.5657  1.1484
 6683TIP3    H241541   3.183   2.034  13.265 -0.1169 -1.5844 -0.6577
 6684TIP3   OH241542   0.245   0.150   2.727  0.4266  0.1315  0.1380
 6684TIP3    H141543   0.291   0.233   2.712  0.3954  0.0954 -0.1630
 6684TIP3    H241544   0.172   0.152   2.666  0.4487 -0.1374  0.1034
 6685TIP3   OH241545   4.058   0.968  14.658  0.9073  0.2849  0.6658
 6685TIP3    H141546   4.102   0.986  14.741 -0.8644  0.4148  1.6329
 6685TIP3    H241547   4.041   1.055  14.621  1.5219  0.2329  0.2489
 6686TIP3   OH241548   2.556   4.529  13.306  0.3898  0.5637  0.0593
 6686TIP3    H141549   2.616   4.510  13.234 -0.5572 -1.4709 -0.2653
 6686TIP3    H241550   2.596   4.491  13.383  0.6823  1.4143  0.3399
 6687TIP3   OH241551   4.354   5.424   5.608 -0.1812 -0.5565  0.0255
 6687TIP3    H141552   4.296   5.487   5.650 -1.0074 -0.1115 -1.7025
 6687TIP3    H241553   4.298   5.349   5.588  0.8044 -1.9450  2.1164
 6688TIP3   OH241554   6.798   3.836   3.111  0.0927 -0.4707  0.4551
 6688TIP3    H141555   6.841   3.904   3.163  0.2920  0.2975 -0.6670
 6688TIP3    H241556   6.808   3.756   3.163 -0.1512  0.3460  1.8088
 6689TIP3   OH241557   3.097   3.131  12.546  0.6031  0.1209 -0.2564
 6689TIP3    H141558   3.139   3.083  12.474  1.0545 -1.2276  0.8761
 6689TIP3    H241559   3.165   3.141  12.612 -0.4957 -1.1722  1.1695
 6690TIP3   OH241560   2.578   3.071   1.206 -0.0113  0.3315  0.4354
 6690TIP3    H141561   2.546   3.026   1.284  0.8978  0.3106  0.8029
 6690TIP3    H241562   2.607   3.157   1.238 -1.9834  1.3364 -0.2960
 6691TIP3   OH241563   4.541   4.832   1.430 -0.2043  0.0024 -0.5697
 6691TIP3    H141564   4.507   4.758   1.481  0.8298 -0.4592 -0.5281
 6691TIP3    H241565   4.635   4.829   1.444 -0.0602  0.7846 -1.3170
 6692TIP3   OH241566   5.668   6.673   1.826  0.3840 -0.2209  0.7083
 6692TIP3    H141567   5.708   6.630   1.750  0.7338  0.4130  0.5356
 6692TIP3    H241568   5.737   6.730   1.861 -0.0405  0.1071  1.0148
 6693TIP3   OH241569   2.675   3.065  14.238  0.4693  0.4316 -0.3296
 6693TIP3    H141570   2.597   3.024  14.273  0.3635  0.7003 -0.2451
 6693TIP3    H241571   2.738   2.994  14.229  1.7889  0.8288  3.8640
 6694TIP3   OH241572   3.992   6.003   1.214  0.2217  0.4344  0.4305
 6694TIP3    H141573   3.992   6.001   1.310 -2.5360  0.5296  0.5068
 6694TIP3    H241574   3.960   6.090   1.191  1.6552  0.7173 -0.6264
 6695TIP3   OH241575   6.289   0.826   1.817 -0.5560  0.1315  0.1798
 6695TIP3    H141576   6.366   0.851   1.867  1.0058 -2.1089 -0.8710
 6695TIP3    H241577   6.283   0.891   1.747  1.6723 -0.6913 -0.8836
 6696TIP3   OH241578   4.488   0.770  13.552  0.3157 -0.4880  0.2070
 6696TIP3    H141579   4.559   0.805  13.607 -0.7432 -0.6312  1.7277
 6696TIP3    H241580   4.528   0.760  13.466  1.8879  0.3024  0.7930
 6697TIP3   OH241581   6.712   4.069   3.530 -0.0610 -0.1133 -0.0486
 6697TIP3    H141582   6.689   4.162   3.522 -0.6216 -0.3217 -0.9786
 6697TIP3    H241583   6.771   4.066   3.606 -0.5980  0.8987  0.4396
 6698TIP3   OH241584   1.446   6.220  14.089  0.1252  0.1444  0.4304
 6698TIP3    H141585   1.425   6.176  14.171 -1.6331 -0.2965 -0.2133
 6698TIP3    H241586   1.498   6.157  14.040  1.1906  0.4139  1.1791
 6699TIP3   OH241587   5.645   0.198  12.491  0.0802 -0.6871  0.4801
 6699TIP3    H141588   5.715   0.134  12.471  0.0858 -0.3780 -0.5749
 6699TIP3    H241589   5.637   0.249  12.411 -0.5149  0.0945  1.0297
 6700TIP3   OH241590   0.473   6.529  13.798 -0.1702 -0.4191 -0.0432
 6700TIP3    H141591   0.435   6.441  13.793 -1.8042  0.2234  0.3386
 6700TIP3    H241592   0.496   6.551  13.708 -0.5742 -0.9048 -0.2672
 6701TIP3   OH241593   0.323   6.199   4.473 -0.3337  0.7769  0.1523
 6701TIP3    H141594   0.270   6.166   4.400  0.3600 -1.7349  0.6771
 6701TIP3    H241595   0.397   6.138   4.477  0.2935  1.6067  2.1708
 6702TIP3   OH241596   1.303   0.458  11.639  0.4591 -0.1013  0.2323
 6702TIP3    H141597   1.359   0.476  11.714 -0.3949  0.0164  0.8518
 6702TIP3    H241598   1.213   0.463  11.673 -0.3421  4.8762 -1.6833
 6703TIP3   OH241599   3.046   1.572   2.216 -0.6431  0.0629  0.0128
 6703TIP3    H141600   3.025   1.665   2.205 -1.6322  0.3294  3.1441
 6703TIP3    H241601   3.141   1.567   2.213 -0.4657  1.5672  1.9267
 6704TIP3   OH241602   6.695   1.063   3.213  0.0343  0.2386  0.6397
 6704TIP3    H141603   6.614   1.021   3.183 -0.9763  0.9739  2.2448
 6704TIP3    H241604   6.685   1.155   3.189  0.2201  0.4094  1.2107
 6705TIP3   OH241605   3.783   1.509   3.260  0.3499  0.2046  0.6070
 6705TIP3    H141606   3.795   1.575   3.329  1.0099  2.6778 -1.7196
 6705TIP3    H241607   3.708   1.541   3.210  0.6169 -0.9017 -0.5377
 6706TIP3   OH241608   4.721   1.030  11.806 -0.1307  0.0194  0.0589
 6706TIP3    H141609   4.784   1.020  11.878 -1.1247 -0.0374  0.9479
 6706TIP3    H241610   4.774   1.061  11.732  1.1612 -1.3142  0.3793
 6707TIP3   OH241611   2.541   0.976   5.979  0.0096 -0.1878  0.1022
 6707TIP3    H141612   2.488   0.950   5.903  0.4813  0.0046 -0.2982
 6707TIP3    H241613   2.513   0.917   6.049  1.2636 -2.0037 -0.8528
 6708TIP3   OH241614   5.310   3.862  15.116  0.3002  0.0862 -0.2933
 6708TIP3    H141615   5.319   3.935  15.055  0.7500 -0.8758 -1.4315
 6708TIP3    H241616   5.395   3.857  15.160  0.6034 -0.3129 -0.9008
 6709TIP3   OH241617   3.972   5.965   5.039  0.0426  0.8465  0.0605
 6709TIP3    H141618   3.886   6.004   5.051  0.4639  1.7812  0.1723
 6709TIP3    H241619   3.956   5.871   5.033 -1.0893  1.0927 -1.0162
 6710TIP3   OH241620   1.423   2.774  16.387  0.1892  0.0330  0.2531
 6710TIP3    H141621   1.468   2.764  16.471  0.3855  0.4659  0.2024
 6710TIP3    H241622   1.331   2.784  16.411  0.2160 -0.0714  0.4040
 6711TIP3   OH241623   6.283   4.312  11.127 -0.5449  0.0697  0.2259
 6711TIP3    H141624   6.323   4.378  11.184 -1.3848  0.2011  0.6702
 6711TIP3    H241625   6.269   4.358  11.044  1.1956 -0.2793 -0.3039
 6712TIP3   OH241626   3.563   0.183  16.276 -0.0235 -0.2364 -0.1424
 6712TIP3    H141627   3.558   0.271  16.313  0.0571 -1.2131  2.3418
 6712TIP3    H241628   3.475   0.148  16.285 -0.4643  0.0730 -2.5774
 6713TIP3   OH241629   0.766   4.343  15.827 -0.1090  0.2058  0.3414
 6713TIP3    H141630   0.817   4.332  15.746 -1.5620 -0.3549 -0.5271
 6713TIP3    H241631   0.831   4.337  15.897  0.8812 -1.6540 -0.6678
 6714TIP3   OH241632   3.297   6.481   6.150 -0.1883 -0.1799  0.6760
 6714TIP3    H141633   3.274   6.463   6.059  0.9795 -0.6756  0.4608
 6714TIP3    H241634   3.224   6.533   6.183 -0.4251  0.3850 -0.6628
 6715TIP3   OH241635   1.036   1.655   1.322 -0.2919 -0.0706  0.0701
 6715TIP3    H141636   1.082   1.671   1.404  0.3394  0.2247 -0.3354
 6715TIP3    H241637   1.027   1.559   1.318  1.4595 -0.2386 -0.4596
 6716TIP3   OH241638   3.970   0.968   1.113  0.2266 -0.4443  0.5534
 6716TIP3    H141639   3.924   1.033   1.059  2.1353 -0.5162 -1.3155
 6716TIP3    H241640   3.941   0.985   1.202 -0.5232  1.9606 -0.0820
 6717TIP3   OH241641   2.649   0.899  12.289 -0.6050 -0.9361 -0.4245
 6717TIP3    H141642   2.642   0.804  12.289 -1.4712 -0.8992  0.4396
 6717TIP3    H241643   2.652   0.922  12.382  2.5270 -0.2679 -0.6057
 6718TIP3   OH241644   3.114   2.514  16.318 -0.4093 -0.2268  0.3114
 6718TIP3    H141645   3.139   2.424  16.296 -0.3939 -0.1442 -0.0064
 6718TIP3    H241646   3.018   2.512  16.322 -0.5333  0.1472 -1.5144
 6719TIP3   OH241647   0.472   2.050  15.063 -0.5359 -0.4114 -0.0055
 6719TIP3    H141648   0.501   2.140  15.047  0.2704 -0.4877  0.9740
 6719TIP3    H241649   0.533   2.016  15.128 -0.3361 -1.9299 -0.9204
 6720TIP3   OH241650   0.964   0.709   3.955  0.4264  0.5116  0.6415
 6720TIP3    H141651   0.924   0.751   4.031  1.0222  1.0605  0.6577
 6720TIP3    H241652   1.010   0.779   3.910  0.7204  0.0400  0.1910
 6721TIP3   OH241653   0.942   5.212   0.471  0.6931  0.4120  0.1388
 6721TIP3    H141654   1.018   5.174   0.428  0.3106 -0.1553 -0.0484
 6721TIP3    H241655   0.978   5.272   0.537  1.2875  0.5112 -0.2744
 6722TIP3   OH241656   1.317   6.001  15.120  0.1448 -0.5383  0.0711
 6722TIP3    H141657   1.292   6.076  15.175 -0.6835  1.9053 -3.3137
 6722TIP3    H241658   1.410   5.988  15.139  0.4087  1.6148  0.5723
 6723TIP3   OH241659   1.650   6.756  12.958 -0.2523 -0.1682 -0.5888
 6723TIP3    H141660   1.721   6.814  12.931 -0.4474  0.6554  0.5640
 6723TIP3    H241661   1.573   6.812  12.963 -0.4885 -0.5471  0.3561
 6724TIP3   OH241662   0.171   3.677  11.516  0.3117 -0.3032 -0.1238
 6724TIP3    H141663   0.175   3.584  11.538 -0.5044 -0.2505  0.2977
 6724TIP3    H241664   0.210   3.722  11.591 -0.2426 -0.2594  0.1480
 6725TIP3   OH241665   0.317   0.408   2.677 -0.0771  0.1221 -0.1713
 6725TIP3    H141666   0.405   0.418   2.714  0.8239  0.9103 -2.3309
 6725TIP3    H241667   0.321   0.453   2.593 -2.6132  0.2771 -0.2980
 6726TIP3   OH241668   5.433   2.264  14.160  0.3585  0.1923  0.0334
 6726TIP3    H141669   5.349   2.218  14.163  0.9045 -0.7950  0.8305
 6726TIP3    H241670   5.432   2.320  14.237 -0.1540  1.2794 -0.7409
 6727TIP3   OH241671   5.324   6.300   2.364  0.2179  0.6351 -0.5841
 6727TIP3    H141672   5.320   6.256   2.279  0.3943 -0.0190 -0.2599
 6727TIP3    H241673   5.418   6.305   2.384  0.1635  0.5215 -0.2939
 6728TIP3   OH241674   6.244   5.313  15.155  0.0416  0.6337 -0.2453
 6728TIP3    H141675   6.296   5.256  15.212 -0.0524 -0.4985 -1.2544
 6728TIP3    H241676   6.302   5.385  15.132  0.2320  0.8534  0.8821
 6729TIP3   OH241677   1.137   2.200  16.330 -0.2026 -0.3485 -0.2634
 6729TIP3    H141678   1.138   2.126  16.268  1.6089 -1.7411  1.2985
 6729TIP3    H241679   1.044   2.215  16.347 -0.6520 -1.7671 -1.2184
 6730TIP3   OH241680   1.008   3.654   0.709  0.3895  0.0866 -0.2984
 6730TIP3    H141681   1.044   3.584   0.656  1.4133  0.5858 -0.2957
 6730TIP3    H241682   1.070   3.727   0.698 -0.7502  1.0709 -0.4810
 6731TIP3   OH241683   2.719   6.639  14.973 -0.8793 -0.2521  0.1326
 6731TIP3    H141684   2.782   6.606  14.909 -0.2768  0.2706  0.4456
 6731TIP3    H241685   2.727   6.580  15.048 -0.3236  0.1574  0.4057
 6732TIP3   OH241686   0.001   3.301   4.592  0.3513  0.3261  0.2964
 6732TIP3    H141687  -0.066   3.266   4.650  1.0480 -0.7465  0.4772
 6732TIP3    H241688   0.032   3.381   4.636 -0.4103  0.5274  0.4774
 6733TIP3   OH241689   1.306   1.931   5.350  0.3510 -0.0709  0.0232
 6733TIP3    H141690   1.337   2.006   5.399 -1.2105 -1.3367  3.2639
 6733TIP3    H241691   1.379   1.907   5.293  2.0559  1.9637  1.2094
 6734TIP3   OH241692   1.027   3.311  16.196 -0.4026  0.9125 -0.2895
 6734TIP3    H141693   1.118   3.288  16.178  0.0805  1.8294  0.8013
 6734TIP3    H241694   1.016   3.399  16.160 -0.6743  1.0365  0.0789
 6735TIP3   OH241695   6.231   4.329  14.173  0.5146 -0.3723 -0.2320
 6735TIP3    H141696   6.216   4.415  14.134  0.2969 -0.6676 -0.8021
 6735TIP3    H241697   6.290   4.285  14.112 -0.0474 -0.9415 -0.3725
 6736TIP3   OH241698   1.419   2.527   1.534  0.1971 -0.6782  0.4214
 6736TIP3    H141699   1.499   2.535   1.481 -0.6896 -0.6276 -0.9415
 6736TIP3    H241700   1.393   2.436   1.524 -0.3507 -0.5012  0.2366
 6737TIP3   OH241701   6.813   4.654   1.844 -0.2851 -0.0942 -0.2369
 6737TIP3    H141702   6.761   4.703   1.781  0.2743 -0.1444 -0.7415
 6737TIP3    H241703   6.834   4.572   1.799 -0.8428 -0.6263  0.4367
 6738TIP3   OH241704   0.556   6.332   5.672 -0.0416 -0.2169 -0.3483
 6738TIP3    H141705   0.521   6.244   5.687  1.1915 -1.1587 -2.5772
 6738TIP3    H241706   0.478   6.388   5.668 -0.8933 -1.2819  0.4231
 6739TIP3   OH241707   1.119   2.665  14.867 -0.1218  0.2501  0.3100
 6739TIP3    H141708   1.041   2.621  14.902 -0.7127 -0.0473 -1.2835
 6739TIP3    H241709   1.144   2.612  14.791  1.0064  0.9585  0.1618
 6740TIP3   OH241710   1.255   0.770   5.971 -0.3799 -0.3152  0.4918
 6740TIP3    H141711   1.331   0.738   5.923 -0.1179  0.7166  0.1818
 6740TIP3    H241712   1.200   0.693   5.984 -0.1421 -0.7438 -0.8836
 6741TIP3   OH241713   2.904   2.101  16.752  0.1403  0.1704 -0.1654
 6741TIP3    H141714   2.936   2.145  16.674 -0.8802 -0.1644 -0.7929
 6741TIP3    H241715   2.966   2.030  16.768 -0.1117 -0.2988 -1.1916
 6742TIP3   OH241716   3.910   0.261  15.352  0.2467  0.2510  0.3266
 6742TIP3    H141717   3.827   0.298  15.380  0.8290  1.0269  1.0792
 6742TIP3    H241718   3.886   0.185  15.299 -0.9767  1.5242 -1.0519
 6743TIP3   OH241719   5.852   1.324  13.620 -0.0361 -0.2142 -0.0988
 6743TIP3    H141720   5.759   1.333  13.600  0.2654  1.3917 -0.9597
 6743TIP3    H241721   5.863   1.365  13.705 -0.3055 -1.5425  0.5943
 6744TIP3   OH241722   1.138   6.714  11.853  0.2372 -0.5718 -0.2834
 6744TIP3    H141723   1.061   6.658  11.860 -1.5199  1.2560 -2.8934
 6744TIP3    H241724   1.196   6.669  11.792 -0.3573 -0.4268 -0.9702
 6745TIP3   OH241725   3.421   3.414   1.581  0.0350  0.3231 -0.1051
 6745TIP3    H141726   3.413   3.496   1.629  2.0893  0.4233  0.1639
 6745TIP3    H241727   3.428   3.440   1.489  0.7462  0.4815 -0.0147
 6746TIP3   OH241728   4.600   0.599  13.847 -0.5650  0.2335  0.3857
 6746TIP3    H141729   4.520   0.652  13.852 -0.8939 -0.3091  1.0605
 6746TIP3    H241730   4.574   0.518  13.803  0.0817  0.8536 -1.2298
 6747TIP3   OH241731   5.791   2.905  14.679  0.4496  0.1013  0.4360
 6747TIP3    H141732   5.704   2.909  14.718 -0.6137  0.4951 -1.7897
 6747TIP3    H241733   5.817   2.813  14.687  0.4040  0.2086  2.1914
 6748TIP3   OH241734   2.885   4.406   5.458  0.5365 -0.3300  0.3833
 6748TIP3    H141735   2.960   4.403   5.517  0.6210  1.9379  0.4784
 6748TIP3    H241736   2.829   4.333   5.486  0.8711  0.2904  2.8812
 6749TIP3   OH241737   2.243   0.018  13.798  0.2657 -0.7712 -0.2444
 6749TIP3    H141738   2.322   0.005  13.746 -0.1012  2.0729 -1.7345
 6749TIP3    H241739   2.274   0.025  13.888  1.8671  0.8966 -0.8571
 6750TIP3   OH241740   1.286   4.397   5.621  0.4632  0.1781 -0.8087
 6750TIP3    H141741   1.294   4.378   5.527 -1.8649 -1.5331 -0.7429
 6750TIP3    H241742   1.192   4.396   5.638  0.7853 -4.0941  2.3201
 6751TIP3   OH241743   4.606   6.675   2.356 -0.3250 -0.0918  0.4458
 6751TIP3    H141744   4.524   6.717   2.328 -0.2481  0.4393  0.9697
 6751TIP3    H241745   4.589   6.581   2.348 -0.2051  0.0242 -1.5848
 6752TIP3   OH241746   4.738   4.637  15.861  0.5932  0.2435 -0.1699
 6752TIP3    H141747   4.648   4.658  15.836 -0.2422  0.7796  2.8624
 6752TIP3    H241748   4.737   4.543  15.879  0.2796  0.4422  0.9576
 6753TIP3   OH241749   3.237   1.116  12.340  0.1160 -0.1318 -0.7445
 6753TIP3    H141750   3.173   1.102  12.271  0.9019  0.3264 -1.5925
 6753TIP3    H241751   3.202   1.189  12.391 -1.2137 -1.4321  0.2944
 6754TIP3   OH241752   3.957   5.655  10.927 -0.6864 -0.5665  0.4994
 6754TIP3    H141753   3.974   5.606  10.846  1.3838 -0.3504  0.7282
 6754TIP3    H241754   3.985   5.745  10.907 -0.2486 -0.4874  1.4023
 6755TIP3   OH241755   2.547   4.452  11.517 -0.2893 -0.2876  0.0222
 6755TIP3    H141756   2.593   4.399  11.453 -0.2464 -0.2789  0.0458
 6755TIP3    H241757   2.454   4.441  11.496 -0.2800 -0.3707  0.0262
 6756TIP3   OH241758   1.354   0.607   0.956  0.2254 -0.2252  0.3588
 6756TIP3    H141759   1.399   0.570   1.032 -0.3889  1.0562  1.3985
 6756TIP3    H241760   1.363   0.541   0.888  1.8142 -0.9065  1.1789
 6757TIP3   OH241761   5.598   4.117   0.740 -0.5198  1.3226 -0.2951
 6757TIP3    H141762   5.606   4.141   0.833 -0.4161  0.9803 -0.2160
 6757TIP3    H241763   5.682   4.077   0.718 -0.1421  2.3557 -0.8256
 6758TIP3   OH241764   3.722   2.436  11.647  0.4399  0.6748 -0.2708
 6758TIP3    H141765   3.656   2.469  11.708  0.9637  1.1498  0.0500
 6758TIP3    H241766   3.734   2.506  11.583 -0.0031  0.2354 -0.8437
 6759TIP3   OH241767   1.056   2.095  12.964 -0.4856  0.7186 -0.2038
 6759TIP3    H141768   0.987   2.073  13.026  1.5645 -0.6813  1.7870
 6759TIP3    H241769   1.011   2.125  12.886 -3.2672  2.9615  2.0385
 6760TIP3   OH241770   1.295   0.500  13.570  0.2935 -0.1596 -0.2130
 6760TIP3    H141771   1.256   0.441  13.506  0.2176  0.1692 -0.4731
 6760TIP3    H241772   1.302   0.448  13.650 -1.6431  0.0573  0.1557
 6761TIP3   OH241773   5.667   0.673   5.668  0.3863  0.4198  0.1730
 6761TIP3    H141774   5.685   0.608   5.736 -0.4296  0.9034  0.8778
 6761TIP3    H241775   5.583   0.712   5.694 -0.4274 -0.0392 -1.6205
 6762TIP3   OH241776   2.121   4.911  11.931 -0.3257  0.1628 -0.0432
 6762TIP3    H141777   2.156   4.925  12.018 -1.2991 -0.6117  0.4999
 6762TIP3    H241778   2.196   4.885  11.878  0.3735  1.2049  0.4147
 6763TIP3   OH241779   5.342   2.890   6.040 -0.1062 -0.3329  0.2881
 6763TIP3    H141780   5.311   2.981   6.039  1.7345  0.3749  1.3262
 6763TIP3    H241781   5.316   2.857   6.126  1.7232  0.2181  1.1066
 6764TIP3   OH241782   5.089   3.371   2.079 -0.0334 -0.0794  0.3556
 6764TIP3    H141783   5.030   3.314   2.129  1.1873 -1.2389  0.5071
 6764TIP3    H241784   5.104   3.325   1.997 -3.6170  2.6787 -2.2097
 6765TIP3   OH241785   2.186   3.733  16.064 -0.3463  0.5444 -0.4898
 6765TIP3    H141786   2.279   3.747  16.043 -0.1143  0.6648  0.5611
 6765TIP3    H241787   2.187   3.698  16.153 -1.2471 -0.6958 -0.9361
 6766TIP3   OH241788   0.982   2.179   6.450 -0.3908  0.3087 -0.4182
 6766TIP3    H141789   0.920   2.177   6.377  0.2280 -1.9323 -0.9455
 6766TIP3    H241790   0.927   2.167   6.528 -0.7599 -0.4249 -0.7830
 6767TIP3   OH241791   5.768   5.989   1.665  0.8515  0.0271  0.3570
 6767TIP3    H141792   5.767   6.084   1.678  1.5714 -0.0026  0.6813
 6767TIP3    H241793   5.801   5.954   1.748  0.7855 -0.4914  0.1640
 6768TIP3   OH241794   0.418   4.255  11.367 -0.2057 -0.0552  0.2108
 6768TIP3    H141795   0.338   4.305  11.384  0.1533  0.4231  0.5332
 6768TIP3    H241796   0.460   4.302  11.294  0.9357  1.1074  1.5445
 6769TIP3   OH241797   1.864   2.513  13.548 -0.3439 -0.3646 -0.1169
 6769TIP3    H141798   1.801   2.475  13.608 -0.2826 -2.0422 -1.0507
 6769TIP3    H241799   1.812   2.567  13.488 -0.6049 -0.0517  0.3842
 6770TIP3   OH241800   4.490   0.189  15.542  0.2266 -0.2367 -0.1832
 6770TIP3    H141801   4.418   0.251  15.556 -1.0080 -1.4816 -0.7421
 6770TIP3    H241802   4.501   0.186  15.447  0.9906 -0.0832 -0.0989
 6771TIP3   OH241803   3.968   2.513   3.360 -0.4914  0.5154 -0.5927
 6771TIP3    H141804   3.931   2.551   3.439 -2.3524  0.4925 -1.4087
 6771TIP3    H241805   3.932   2.424   3.357  2.4617 -0.8420  0.4039
 6772TIP3   OH241806   1.998   4.966  13.269  1.0596  0.1726  0.0462
 6772TIP3    H141807   2.089   4.973  13.239  0.9631 -0.8997 -0.5251
 6772TIP3    H241808   1.946   5.004  13.199  0.9855 -0.3757 -0.2016
 6773TIP3   OH241809   3.456   4.943   1.366 -0.1401  0.1751 -0.2770
 6773TIP3    H141810   3.482   4.880   1.432  0.9847 -0.1876 -1.0387
 6773TIP3    H241811   3.390   4.997   1.409 -1.5507 -1.8416  0.2351
 6774TIP3   OH241812   4.718   1.968   4.046  0.4569  0.2932  0.1257
 6774TIP3    H141813   4.733   1.936   4.136 -0.6607 -0.1551  0.1605
 6774TIP3    H241814   4.710   2.062   4.055 -2.5400  0.0462  0.9557
 6775TIP3   OH241815   0.833   5.555   0.612  0.2813 -0.0708 -0.3452
 6775TIP3    H141816   0.863   5.591   0.528  0.2585  0.0196 -0.3148
 6775TIP3    H241817   0.751   5.511   0.592 -0.2718  0.8557 -0.1783
 6776TIP3   OH241818   4.463   5.885   2.324 -0.1712 -0.2525  0.2640
 6776TIP3    H141819   4.466   5.900   2.229 -0.5406 -0.9776  0.1336
 6776TIP3    H241820   4.472   5.790   2.334 -0.4458 -0.2126  0.9409
 6777TIP3   OH241821   0.762   4.805   0.438 -0.3315 -0.1076 -0.1425
 6777TIP3    H141822   0.784   4.858   0.361 -1.2386 -2.7443 -2.3988
 6777TIP3    H241823   0.673   4.832   0.460  0.0231  0.8409  0.1721
 6778TIP3   OH241824   6.710   3.530   4.972  0.6247  0.0309 -0.1546
 6778TIP3    H141825   6.689   3.624   4.974 -1.8666 -0.4658  0.6755
 6778TIP3    H241826   6.659   3.493   5.044  0.9356 -2.0969 -0.9659
 6779TIP3   OH241827   4.868   3.433   1.270 -0.0400  0.1147 -0.6382
 6779TIP3    H141828   4.881   3.338   1.271  1.3839  0.2952 -0.1084
 6779TIP3    H241829   4.917   3.466   1.345 -0.8021  1.2467 -0.6059
 6780TIP3   OH241830   4.586   6.770  13.837 -0.3285 -0.6786  0.3114
 6780TIP3    H141831   4.668   6.733  13.869  1.1862  2.6776  0.8006
 6780TIP3    H241832   4.606   6.803  13.749 -1.5361 -0.9359 -0.0818
 6781TIP3   OH241833   0.083   1.165   0.514 -0.6118  0.2349 -0.2783
 6781TIP3    H141834   0.062   1.170   0.607 -0.3714 -0.2377 -0.1985
 6781TIP3    H241835   0.148   1.234   0.500 -1.4031  0.9909 -0.3083
 6782TIP3   OH241836   6.745   3.197   1.216 -0.0173 -0.5131 -0.3091
 6782TIP3    H141837   6.672   3.138   1.232 -0.0278 -1.2711 -2.7711
 6782TIP3    H241838   6.734   3.225   1.125  1.2180  1.5793  0.1117
 6783TIP3   OH241839   0.124   3.143   3.030  0.9089 -0.5896  0.5687
 6783TIP3    H141840   0.204   3.110   3.070 -0.3041 -3.6504  0.7264
 6783TIP3    H241841   0.119   3.098   2.945 -0.8983 -0.9319  0.8096
 6784TIP3   OH241842   5.643   5.828  15.190 -0.7662  0.2884  0.0559
 6784TIP3    H141843   5.560   5.837  15.237 -1.4442  1.3552 -1.2532
 6784TIP3    H241844   5.619   5.843  15.098  0.8349  0.3187 -0.3726
 6785TIP3   OH241845   5.036   4.856  15.143 -0.5940 -0.2211  0.1211
 6785TIP3    H141846   5.062   4.906  15.220 -0.4875  0.1415 -0.1471
 6785TIP3    H241847   4.977   4.915  15.095  0.4616  0.1141 -0.8024
 6786TIP3   OH241848   4.277   5.110  14.847 -0.0517  0.2465  0.3125
 6786TIP3    H141849   4.200   5.126  14.792  0.5902 -0.4962 -0.8544
 6786TIP3    H241850   4.243   5.111  14.936 -1.6299 -1.0115 -0.2063
 6787TIP3   OH241851   5.510   2.166  11.196 -0.0550 -0.3827 -1.2079
 6787TIP3    H141852   5.456   2.212  11.260 -0.4163 -1.8791 -0.3797
 6787TIP3    H241853   5.447   2.114  11.145  0.4424 -0.9052 -1.2996
 6788TIP3   OH241854   3.456   3.716   5.399 -0.0764  0.5273  0.1164
 6788TIP3    H141855   3.546   3.715   5.432 -0.7312  0.2318  2.0350
 6788TIP3    H241856   3.416   3.792   5.442 -0.7312  0.7225 -0.8044
 6789TIP3   OH241857   3.428   6.044   4.073  0.3051  0.3661  0.1412
 6789TIP3    H141858   3.364   6.040   4.144  0.8299 -0.5070  0.5837
 6789TIP3    H241859   3.501   6.092   4.111  0.7939 -0.5379  0.3865
 6790TIP3   OH241860   0.500   5.345  12.019 -0.4526 -0.6495 -0.0868
 6790TIP3    H141861   0.451   5.380  11.945 -0.0197 -0.0165 -0.0831
 6790TIP3    H241862   0.552   5.274  11.982 -0.5664 -0.6173 -0.3095
 6791TIP3   OH241863   3.730   6.358  14.987 -0.2637 -0.1678  0.0942
 6791TIP3    H141864   3.732   6.442  14.940 -2.2656 -0.1224  0.0102
 6791TIP3    H241865   3.823   6.335  14.999  0.4736  3.1686  2.1556
 6792TIP3   OH241866   4.250   5.543  14.074  0.2912  0.0818  0.1027
 6792TIP3    H141867   4.241   5.624  14.024  0.5675 -0.5798 -1.0643
 6792TIP3    H241868   4.277   5.572  14.161 -1.0045  1.3203  0.1391
 6793TIP3   OH241869   3.817   5.049   5.421  0.3940 -0.2465 -0.4630
 6793TIP3    H141870   3.781   5.135   5.399  0.6845 -0.0541 -0.2100
 6793TIP3    H241871   3.895   5.069   5.474  2.0251 -0.5834 -2.5897
 6794TIP3   OH241872   3.271   4.624  10.696  0.0776 -0.5450 -0.4161
 6794TIP3    H141873   3.329   4.624  10.772 -1.4164  1.2723  0.8137
 6794TIP3    H241874   3.293   4.705  10.649 -1.7092  0.4294  0.3392
 6795TIP3   OH241875   3.262   6.109  11.637  0.2516  0.2266 -0.1613
 6795TIP3    H141876   3.201   6.071  11.574 -0.9525  0.8456  0.5947
 6795TIP3    H241877   3.213   6.180  11.678  0.3977 -1.1208  2.5740
 6796TIP3   OH241878   2.899   0.298  11.146  0.3879 -0.2776 -0.2650
 6796TIP3    H141879   2.951   0.250  11.081  0.3398 -0.8692  0.1208
 6796TIP3    H241880   2.872   0.378  11.101  1.5897  0.0254 -0.4907
 6797TIP3   OH241881   5.167   4.908   2.237  0.1753  0.1545  0.8770
 6797TIP3    H141882   5.202   4.947   2.317 -0.6574  0.8927  0.9029
 6797TIP3    H241883   5.103   4.972   2.206 -2.2815 -1.7871  1.6668
 6798TIP3   OH241884   2.751   2.200  11.533  0.0523  0.7357  0.3261
 6798TIP3    H141885   2.826   2.182  11.590  0.7818 -0.7142 -1.0106
 6798TIP3    H241886   2.674   2.179  11.587  0.6797  0.3337  1.0791
 6799TIP3   OH241887   0.773   3.544  16.199  0.1763  0.5459  0.4041
 6799TIP3    H141888   0.801   3.496  16.276  0.1966  1.2102  0.8236
 6799TIP3    H241889   0.853   3.558  16.149  0.2080  0.3552  0.4018
 6800TIP3   OH241890   5.881   2.428   0.499  0.4124  0.1512 -0.3996
 6800TIP3    H141891   5.880   2.400   0.590  0.9810  0.2600 -0.3534
 6800TIP3    H241892   5.789   2.445   0.477  0.1139 -1.1603 -0.2499
 6801TIP3   OH241893   0.055   2.569  12.259 -0.1199  0.1573 -0.4784
 6801TIP3    H141894  -0.008   2.627  12.218  0.9437  0.7994 -1.2813
 6801TIP3    H241895   0.005   2.491  12.283 -1.7620  1.7140  1.4374
 6802TIP3   OH241896   6.588   1.563   6.128 -0.3867 -0.1632 -0.1616
 6802TIP3    H141897   6.523   1.496   6.108 -1.1576 -0.0836  1.8199
 6802TIP3    H241898   6.536   1.640   6.152  0.4228  0.1532  0.6600
 6803TIP3   OH241899   6.060   3.303  11.498  0.2250  0.1333 -0.4034
 6803TIP3    H141900   6.048   3.395  11.523 -0.0263  0.4032 -1.4835
 6803TIP3    H241901   6.008   3.255  11.562 -0.6849  0.8398 -0.5856
 6804TIP3   OH241902   2.834   1.863  15.714 -0.6010  0.1731 -0.4310
 6804TIP3    H141903   2.738   1.865  15.711 -0.7512 -1.8371  0.8214
 6804TIP3    H241904   2.860   1.828  15.629 -0.8705  1.7298 -1.1924
 6805TIP3   OH241905   1.352   2.867  11.389 -0.4017 -0.0930 -0.4396
 6805TIP3    H141906   1.432   2.914  11.413  0.5433 -2.5155  1.5811
 6805TIP3    H241907   1.382   2.786  11.347 -1.6791 -1.4916  1.1899
 6806TIP3   OH241908   5.986   4.570   2.913 -0.3137  0.5674 -0.3626
 6806TIP3    H141909   5.937   4.601   2.989  0.5743  3.4709 -0.8314
 6806TIP3    H241910   5.957   4.627   2.841  0.1922 -0.8969 -1.7777
 6807TIP3   OH241911   3.276   1.190  11.511 -0.6974 -0.9295 -0.5351
 6807TIP3    H141912   3.288   1.229  11.598  0.6999 -0.4640 -0.9154
 6807TIP3    H241913   3.322   1.249  11.452 -0.3382 -2.0482 -1.4013
 6808TIP3   OH241914   1.993   0.876   0.257  0.3466  0.2379 -0.5593
 6808TIP3    H141915   1.919   0.829   0.297  1.0510  0.4311  1.0680
 6808TIP3    H241916   2.017   0.823   0.181 -0.2844 -0.8550 -0.0338
 6809TIP3   OH241917   1.322   3.851  15.242 -0.7632 -0.1733 -0.1790
 6809TIP3    H141918   1.237   3.854  15.199 -0.9914  0.7889  0.3150
 6809TIP3    H241919   1.303   3.827  15.333 -0.3836 -1.1558 -0.3479
 6810TIP3   OH241920   6.479   2.550  14.081 -0.2948 -0.1844 -0.1759
 6810TIP3    H141921   6.416   2.583  14.146 -0.1474  0.3058 -0.2757
 6810TIP3    H241922   6.515   2.629  14.041 -1.8248 -0.4441 -2.2619
 6811TIP3   OH241923   1.041   3.033  14.640  0.0181  0.2855 -0.1609
 6811TIP3    H141924   0.996   2.963  14.593 -2.1745  2.1995 -1.1200
 6811TIP3    H241925   1.027   3.013  14.733  0.9437 -1.4316 -0.3687
 6812TIP3   OH241926   5.066   1.794  12.818  0.2544 -0.2327  0.1826
 6812TIP3    H141927   5.045   1.705  12.847 -0.8477  0.1065  0.4688
 6812TIP3    H241928   5.110   1.782  12.734  0.3725 -1.0634  0.3553
 6813TIP3   OH241929   5.299   5.368   3.476 -0.3768 -0.5833  0.2424
 6813TIP3    H141930   5.362   5.344   3.543 -0.0051  1.4778  0.6946
 6813TIP3    H241931   5.214   5.341   3.512 -0.0627 -0.6294  0.9663
 6814TIP3   OH241932   0.501   2.273  14.017 -0.5375 -0.1017  0.4442
 6814TIP3    H141933   0.433   2.302  13.956  0.3580  0.2251 -0.4333
 6814TIP3    H241934   0.568   2.234  13.961  0.3504  0.2857  1.2114
 6815TIP3   OH241935   6.185   1.242  13.773  0.0615  0.0204  0.0906
 6815TIP3    H141936   6.096   1.271  13.756  0.3270  0.4674 -0.5809
 6815TIP3    H241937   6.234   1.322  13.789  0.3664 -0.2155  0.3472
 6816TIP3   OH241938   6.166   4.879  14.984  0.1664 -0.1530 -0.6232
 6816TIP3    H141939   6.109   4.924  15.045 -0.0425  0.2945 -1.1420
 6816TIP3    H241940   6.199   4.803  15.033  0.5139  0.5481  0.2563
 6817TIP3   OH241941   5.250   1.376  11.735 -0.0188  0.4853 -0.1601
 6817TIP3    H141942   5.344   1.382  11.750  0.2429  0.7233 -1.7182
 6817TIP3    H241943   5.238   1.293  11.690 -0.2885  1.2703 -1.6010
 6818TIP3   OH241944   4.489   0.955  15.062  0.2924 -0.0112  0.6245
 6818TIP3    H141945   4.474   0.959  14.968  1.6427 -0.4360  0.3673
 6818TIP3    H241946   4.464   0.866  15.087  0.0759  0.0542  0.6415
 6819TIP3   OH241947   0.703   4.463  17.082  0.0548  0.3377  0.2779
 6819TIP3    H141948   0.750   4.508  17.011  1.1064 -0.5353  0.3936
 6819TIP3    H241949   0.698   4.528  17.152  1.5950  0.3088  0.4629
 6820TIP3   OH241950   3.941   4.835   2.940  0.2705  0.5652 -0.0514
 6820TIP3    H141951   4.012   4.781   2.904  0.2366  0.3452  0.2040
 6820TIP3    H241952   3.909   4.885   2.866 -0.1426 -0.2553 -0.4425
 6821TIP3   OH241953   4.971   2.541  16.879 -0.1296 -0.2691 -0.0637
 6821TIP3    H141954   5.030   2.603  16.836 -0.4569  0.2667  0.2422
 6821TIP3    H241955   4.951   2.582  16.963  0.3380 -1.2052  0.5130
 6822TIP3   OH241956   1.623   4.056  16.210  0.0714  0.0786 -0.9486
 6822TIP3    H141957   1.710   4.090  16.190  1.1254 -1.9237 -0.0736
 6822TIP3    H241958   1.625   4.038  16.304 -2.6008  3.3783 -0.0593
 6823TIP3   OH241959   3.470   0.135   1.696  0.2892  0.3079 -0.1010
 6823TIP3    H141960   3.422   0.101   1.771 -0.5319  0.0209 -0.7331
 6823TIP3    H241961   3.496   0.058   1.647 -0.6771  0.5232 -0.9980
 6824TIP3   OH241962   4.916   4.117  16.445 -0.4553 -0.0319  0.7235
 6824TIP3    H141963   4.960   4.181  16.501  1.1119 -0.4775  0.0313
 6824TIP3    H241964   4.935   4.032  16.484 -1.0797 -0.2040  0.6657
 6825TIP3   OH241965   3.009   3.185  15.683  0.1062  0.2512  0.0571
 6825TIP3    H141966   2.988   3.232  15.602  0.1962 -1.1024 -0.7816
 6825TIP3    H241967   3.017   3.094  15.656  0.0855 -0.2356  1.6168
 6826TIP3   OH241968   3.734   1.479   4.261  0.1856 -0.5003 -0.2813
 6826TIP3    H141969   3.706   1.394   4.296  0.7370 -1.2498 -1.6115
 6826TIP3    H241970   3.683   1.491   4.181  0.0600  0.4695 -0.0708
 6827TIP3   OH241971   1.599   4.044  14.662  0.1306  0.9035 -0.0371
 6827TIP3    H141972   1.655   3.973  14.694  0.0325  0.8806  0.0840
 6827TIP3    H241973   1.526   3.999  14.619 -0.6094  0.8974  1.1585
 6828TIP3   OH241974   0.713   4.165  16.480  0.1227 -0.1156  0.1047
 6828TIP3    H141975   0.783   4.186  16.419 -0.3184  0.1908 -0.3017
 6828TIP3    H241976   0.674   4.084  16.446 -0.5902  0.4442 -0.4394
 6829TIP3   OH241977   1.177   6.082  13.584  0.2458 -0.2282  0.0706
 6829TIP3    H141978   1.241   6.016  13.559  0.9780  0.3326  0.4401
 6829TIP3    H241979   1.115   6.035  13.640  1.1348 -0.4608  0.8874
 6830TIP3   OH241980   5.412   3.944  13.582 -0.0278 -0.0258  0.1729
 6830TIP3    H141981   5.379   4.034  13.592 -0.4325 -0.1425 -0.0706
 6830TIP3    H241982   5.484   3.938  13.644 -0.0266  0.4556  0.2247
 6831TIP3   OH241983   2.888   6.646   2.341 -0.2408  0.0590 -0.4048
 6831TIP3    H141984   2.834   6.653   2.262 -0.6447 -0.5202 -0.1917
 6831TIP3    H241985   2.843   6.579   2.394 -0.9646  1.6484  1.0862
 6832TIP3   OH241986   1.909   5.144   4.183 -0.5348 -0.0001  0.4791
 6832TIP3    H141987   1.878   5.123   4.095  0.3267 -0.1956  0.2153
 6832TIP3    H241988   1.997   5.107   4.187  0.2142  1.7219  0.7361
 6833TIP3   OH241989   2.164   1.135   5.368 -0.1031 -0.2251 -0.8407
 6833TIP3    H141990   2.196   1.104   5.453 -0.2161 -0.7308 -0.9778
 6833TIP3    H241991   2.220   1.092   5.304 -0.4661 -0.3972 -1.0486
 6834TIP3   OH241992   1.483   0.388   3.585 -0.5476  0.1503 -0.1250
 6834TIP3    H141993   1.443   0.354   3.665  0.1550 -1.4931 -0.4381
 6834TIP3    H241994   1.410   0.396   3.523 -1.1680  1.8379  0.7705
 6835TIP3   OH241995   2.383   0.467   0.826 -0.3553 -0.6172 -0.5002
 6835TIP3    H141996   2.426   0.382   0.821  1.8968  0.3360  0.9167
 6835TIP3    H241997   2.366   0.480   0.920 -0.7861  0.4159 -0.7009
 6836TIP3   OH241998   5.081   0.441  16.934  0.2010  0.0514 -0.3831
 6836TIP3    H141999   5.158   0.449  16.879 -0.0538 -1.8392 -1.1057
 6836TIP3    H242000   5.012   0.409  16.875 -1.2620  1.9999  0.1595
 6837TIP3   OH242001   5.973   6.213   3.682  0.3618  0.3729  0.2964
 6837TIP3    H142002   6.024   6.222   3.601 -1.0717  0.4924 -0.6176
 6837TIP3    H242003   5.999   6.128   3.717 -1.9448 -1.6528 -2.4740
 6838TIP3   OH242004   0.250   0.230   3.820 -0.2480  0.0935  0.0177
 6838TIP3    H142005   0.247   0.276   3.736 -2.3095 -0.2355 -0.1182
 6838TIP3    H242006   0.277   0.297   3.883 -1.5998  1.0998 -0.4421
 6839TIP3   OH242007   5.061   1.099  16.922  0.0912 -0.3634  0.2692
 6839TIP3    H142008   5.104   1.098  17.007  0.3455  1.2658  0.1891
 6839TIP3    H242009   5.052   1.006  16.899 -0.2245 -0.8443  2.1715
 6840TIP3   OH242010   3.740   6.641   2.602  0.7593 -0.0247 -0.0268
 6840TIP3    H142011   3.701   6.593   2.529  0.7373  0.7947 -0.5677
 6840TIP3    H242012   3.726   6.585   2.678  0.3557 -0.6712 -0.5677
 6841TIP3   OH242013   6.617   5.795  12.614  0.3504 -0.2436  0.5535
 6841TIP3    H142014   6.638   5.878  12.658 -0.0109 -0.2098  0.6646
 6841TIP3    H242015   6.562   5.748  12.677 -1.7803  0.5982 -0.5989
 6842TIP3   OH242016   1.383   1.914  14.618  0.0607 -0.3325 -0.9306
 6842TIP3    H142017   1.331   1.966  14.556 -0.1899  0.9059  0.2619
 6842TIP3    H242018   1.471   1.950  14.610 -0.0178 -0.0148 -0.4361
 6843TIP3   OH242019   5.540   3.851   5.273 -0.0094  0.3341 -0.6239
 6843TIP3    H142020   5.519   3.881   5.184 -0.6385 -1.2144 -1.0352
 6843TIP3    H242021   5.456   3.835   5.314  0.2595  2.0214  0.6398
 6844TIP3   OH242022   0.802   5.387  13.923  0.1060  0.2858  0.0309
 6844TIP3    H142023   0.729   5.325  13.925 -1.2079  1.7280 -0.5248
 6844TIP3    H242024   0.771   5.462  13.974  2.4500 -0.2698  2.4793
 6845TIP3   OH242025   3.909   4.180   0.106  0.4938  0.5305  0.3092
 6845TIP3    H142026   3.833   4.121   0.102  0.1151  1.0548 -0.5564
 6845TIP3    H242027   3.896   4.230   0.186  0.1168  0.3622  0.3556
 6846TIP3   OH242028   5.264   2.913   4.121  0.1611  0.2438  0.1592
 6846TIP3    H142029   5.272   2.891   4.214 -0.4975  1.9740  0.6786
 6846TIP3    H242030   5.238   2.831   4.079 -0.8484 -0.2933  1.7137
 6847TIP3   OH242031   0.982   1.377   2.115 -0.0151  0.7178  0.0585
 6847TIP3    H142032   1.001   1.356   2.207  1.0568  0.4761 -0.2055
 6847TIP3    H242033   1.019   1.305   2.066  0.0822  1.2213 -0.6158
 6848TIP3   OH242034   1.817   2.261  12.416 -0.0344  0.2171 -0.3688
 6848TIP3    H142035   1.831   2.237  12.325 -1.5959  1.8099 -1.0984
 6848TIP3    H242036   1.903   2.253  12.457  0.9929  0.7162 -2.3023
 6849TIP3   OH242037   4.245   4.627  16.788 -0.6288  0.1599 -0.4761
 6849TIP3    H142038   4.259   4.546  16.739 -1.9109 -1.0519  1.0760
 6849TIP3    H242039   4.243   4.695  16.721  2.5052 -0.7323 -1.6945
 6850TIP3   OH242040   6.197   6.461   5.632  0.0946  0.2517 -0.2406
 6850TIP3    H142041   6.211   6.470   5.538  0.3921 -0.8842 -0.3247
 6850TIP3    H242042   6.153   6.542   5.658 -1.6749 -0.1775 -1.6944
 6851TIP3   OH242043   4.926   1.654   2.746 -0.0395  0.0943 -0.2747
 6851TIP3    H142044   5.003   1.695   2.706  0.3506  0.8474  1.1506
 6851TIP3    H242045   4.894   1.720   2.808 -0.8428 -0.8567  0.3542
 6852TIP3   OH242046   1.373   2.282  15.525 -0.6224  0.1156  0.5874
 6852TIP3    H142047   1.429   2.275  15.602  0.6622  2.3207 -0.0555
 6852TIP3    H242048   1.298   2.333  15.555 -0.8936 -0.3787  0.7537
 6853TIP3   OH242049   4.782   6.106   5.777  0.0270  0.3629  0.3641
 6853TIP3    H142050   4.837   6.118   5.854 -1.4925 -0.7977  1.6993
 6853TIP3    H242051   4.701   6.068   5.811 -1.8191  2.4034 -1.4079
 6854TIP3   OH242052   6.738   4.149  17.022 -0.3691 -0.3047 -0.5061
 6854TIP3    H142053   6.808   4.086  17.007  0.8338  0.4819  1.2971
 6854TIP3    H242054   6.681   4.107  17.086  0.5758  0.4373  0.8969
 6855TIP3   OH242055   6.666   6.008   3.376 -0.4318 -0.0587 -0.1897
 6855TIP3    H142056   6.690   6.022   3.467 -0.2659  0.0402 -0.2479
 6855TIP3    H242057   6.616   6.085   3.351 -0.7292 -0.2222 -0.0956
 6856TIP3   OH242058   0.584   4.822  16.892 -0.5963  0.2651 -0.0011
 6856TIP3    H142059   0.666   4.853  16.931  0.0126  2.3537 -2.6035
 6856TIP3    H242060   0.525   4.897  16.899 -1.9126 -0.7995  0.7302
 6857TIP3   OH242061   4.936   4.642  17.020 -0.7116 -0.1253  0.3890
 6857TIP3    H142062   4.950   4.675  17.108  2.0872  1.3763 -0.4749
 6857TIP3    H242063   4.855   4.591  17.025 -0.0143 -1.1709  4.0754
 6858TIP3   OH242064   6.606   2.447  15.181  0.1016 -0.5768  0.3343
 6858TIP3    H142065   6.517   2.436  15.148  0.2080 -0.6927  0.0888
 6858TIP3    H242066   6.663   2.424  15.108  0.3406 -1.0900  0.6783
 6859TIP3   OH242067   4.372   0.669  15.377 -0.5259 -0.3763  0.1560
 6859TIP3    H142068   4.440   0.603  15.387 -1.4259 -1.1486  1.6012
 6859TIP3    H242069   4.410   0.749  15.415 -0.5446 -0.9124  1.3468
 6860TIP3   OH242070   3.621   0.705   5.544 -0.6750  0.5011  0.3517
 6860TIP3    H142071   3.596   0.639   5.479 -1.5946  0.0295  1.1661
 6860TIP3    H242072   3.716   0.712   5.535 -0.2550 -2.3005  1.4874
 6861TIP3   OH242073   6.179   0.101  13.407 -0.4180  0.2182  0.6490
 6861TIP3    H142074   6.261   0.142  13.381 -0.2932 -0.5692 -0.2467
 6861TIP3    H242075   6.188   0.010  13.381 -1.5811  0.1239  0.4966
 6862TIP3   OH242076   6.298   6.248   4.697 -0.5074 -0.2347  0.3197
 6862TIP3    H142077   6.274   6.334   4.731  1.3475  0.5370 -0.1880
 6862TIP3    H242078   6.292   6.257   4.602  1.2386 -0.1241  0.1880
 6863TIP3   OH242079   3.565   2.230  11.213  0.0879 -0.1516  0.8156
 6863TIP3    H142080   3.607   2.216  11.128 -0.8084 -0.7560  0.4577
 6863TIP3    H242081   3.637   2.241  11.274  0.7497 -0.0161  0.0257
 6864TIP3   OH242082   5.643   5.975  13.305 -0.3040 -0.1643  0.2559
 6864TIP3    H142083   5.672   5.886  13.324 -0.2306 -0.1129  0.3879
 6864TIP3    H242084   5.642   6.019  13.390  1.5560  0.5150 -0.0223
 6865TIP3   OH242085   1.665   3.583  13.652  0.3624 -0.1135 -0.2211
 6865TIP3    H142086   1.604   3.534  13.597  0.3397  2.0782 -2.3202
 6865TIP3    H242087   1.750   3.542  13.636  0.0669 -0.6649 -0.4136
 6866TIP3   OH242088   4.287   3.105  12.638  0.2962 -0.2423  0.4317
 6866TIP3    H142089   4.290   3.181  12.695  1.9862  0.3264 -0.3554
 6866TIP3    H242090   4.322   3.135  12.555  0.8588 -1.8175  0.0485
 6867TIP3   OH242091   1.534   6.183   0.727  0.7852  0.0234 -0.2735
 6867TIP3    H142092   1.567   6.272   0.720  1.6160 -0.2074  0.4669
 6867TIP3    H242093   1.439   6.191   0.717  1.0178  0.7305 -2.3422
 6868TIP3   OH242094   6.682   6.760   1.524  0.2627 -0.1091 -0.0488
 6868TIP3    H142095   6.634   6.679   1.512 -2.2422  0.6986  3.2255
 6868TIP3    H242096   6.654   6.815   1.451 -0.4278 -1.1351 -0.5857
 6869TIP3   OH242097   1.536   2.087  16.348 -0.2775  0.8272 -0.2660
 6869TIP3    H142098   1.579   2.169  16.373  1.4503 -0.1439  0.1101
 6869TIP3    H242099   1.511   2.046  16.431  1.8437 -0.5112 -0.1961
 6870TIP3   OH242100   1.587   0.774   1.857  0.2997 -0.1764  0.2152
 6870TIP3    H142101   1.543   0.695   1.827  0.8692 -0.4423  0.0871
 6870TIP3    H242102   1.680   0.756   1.847  0.4204  0.7700 -0.4872
 6871TIP3   OH242103   3.436   3.964  11.600 -0.5248 -0.5092 -0.2850
 6871TIP3    H142104   3.498   3.942  11.530 -0.2563 -0.2232 -0.1400
 6871TIP3    H242105   3.366   4.012  11.555 -1.4752 -2.2026 -0.7319
 6872TIP3   OH242106   0.063   6.049  16.439  0.3149 -0.3417  0.5632
 6872TIP3    H142107   0.094   5.963  16.470  2.6026  0.6247  1.1608
 6872TIP3    H242108  -0.021   6.030  16.397  1.1452 -3.0242 -0.1077
 6873TIP3   OH242109   5.768   3.911  16.341  0.1783  0.3666  0.3839
 6873TIP3    H142110   5.764   4.003  16.316  0.7633 -0.0088 -1.2665
 6873TIP3    H242111   5.841   3.876  16.289  2.3417 -0.2929  3.5837
 6874TIP3   OH242112   0.914   5.442   0.831 -0.3776 -0.4907 -0.1763
 6874TIP3    H142113   0.881   5.472   0.747  0.9654  1.0148 -0.2209
 6874TIP3    H242114   1.001   5.406   0.811  0.5502  1.1389  0.6950
 6875TIP3   OH242115   0.825   3.511  12.395 -0.3709 -0.7074 -0.0680
 6875TIP3    H142116   0.904   3.528  12.345 -0.9224  1.0827 -0.4139
 6875TIP3    H242117   0.768   3.462  12.335  0.1874 -1.3570 -0.0689
 6876TIP3   OH242118   2.375   0.611  12.993  0.0809  0.4470  0.0942
 6876TIP3    H142119   2.340   0.694  12.962  0.8404  0.2970 -1.2481
 6876TIP3    H242120   2.462   0.633  13.027  0.0746  0.2863  0.2141
 6877TIP3   OH242121   1.852   2.345   1.917  0.4634  0.2054 -0.0740
 6877TIP3    H142122   1.926   2.297   1.880  1.2594  1.5573 -0.2830
 6877TIP3    H242123   1.777   2.286   1.904  0.9362  0.0257 -2.5774
 6878TIP3   OH242124   2.874   1.818  13.448  0.2755 -1.1920 -0.1616
 6878TIP3    H142125   2.788   1.841  13.483  0.1282 -0.7048 -0.8375
 6878TIP3    H242126   2.936   1.854  13.512  0.0014 -3.7022  1.7005
 6879TIP3   OH242127   5.534   1.798   6.037  0.0871 -0.2486  0.6514
 6879TIP3    H142128   5.504   1.827   6.123  1.4416 -0.2176  1.1277
 6879TIP3    H242129   5.579   1.715   6.054  0.5153 -0.1560 -0.0044
 6880TIP3   OH242130   3.237   5.163  16.674 -0.0478  0.6922  0.1364
 6880TIP3    H142131   3.283   5.141  16.755 -1.8386  0.4913  1.1490
 6880TIP3    H242132   3.303   5.151  16.606  0.7611 -2.0703  1.2351
 6881TIP3   OH242133   2.783   4.780   3.879 -0.4906 -0.1298  0.4632
 6881TIP3    H142134   2.715   4.847   3.876 -1.0223 -0.6803  0.0829
 6881TIP3    H242135   2.842   4.809   3.949 -1.4133  0.0752  1.1820
 6882TIP3   OH242136   3.885   1.990   2.527 -0.3193  0.4349  1.0098
 6882TIP3    H142137   3.955   2.044   2.490  0.2718  0.0498  1.5415
 6882TIP3    H242138   3.918   1.964   2.612  0.5617 -2.8767 -0.1876
 6883TIP3   OH242139   5.024   6.171  13.600  0.3319 -0.1815  0.1765
 6883TIP3    H142140   5.090   6.212  13.656  0.5775  0.0173 -0.2505
 6883TIP3    H242141   4.946   6.165  13.655  0.8706 -0.9665  0.8841
 6884TIP3   OH242142   5.207   0.543  13.564 -0.0798  0.2280 -0.1847
 6884TIP3    H142143   5.147   0.565  13.635  1.5705 -0.7135  1.6044
 6884TIP3    H242144   5.199   0.448  13.554  0.7390  0.1545 -0.2337
 6885TIP3   OH242145   1.041   1.367   4.475 -0.2731  0.0954  0.8619
 6885TIP3    H142146   0.997   1.342   4.394 -0.7601 -1.1557  1.4921
 6885TIP3    H242147   1.030   1.462   4.480 -1.4941  0.0069  0.1960
 6886TIP3   OH242148   1.792   0.727   2.544 -0.1482 -0.1177 -0.3421
 6886TIP3    H142149   1.729   0.685   2.486 -2.0642  0.2875  1.3212
 6886TIP3    H242150   1.829   0.654   2.595 -1.1305 -0.1331  0.3701
 6887TIP3   OH242151   5.845   5.389  13.665  0.2494  0.6524  0.2522
 6887TIP3    H142152   5.827   5.391  13.571 -2.1852 -1.2385  0.5980
 6887TIP3    H242153   5.862   5.481  13.687 -2.3839  1.7032 -1.5030
 6888TIP3   OH242154   4.403   1.124   0.352 -0.0839 -0.1154 -0.5427
 6888TIP3    H142155   4.401   1.089   0.441  0.3478  0.2401 -0.3909
 6888TIP3    H242156   4.458   1.063   0.303 -0.2524 -0.2651 -0.5450
 6889TIP3   OH242157   5.296   1.117  11.632 -0.4560  0.1549 -0.0677
 6889TIP3    H142158   5.261   1.029  11.617  0.3669 -0.6910  2.4432
 6889TIP3    H242159   5.379   1.118  11.585  0.0549 -0.8657  0.7462
 6890TIP3   OH242160   1.819   4.058  15.859 -0.5876 -0.4041  0.3054
 6890TIP3    H142161   1.732   4.021  15.842 -0.1266 -1.3725  0.0262
 6890TIP3    H242162   1.844   4.100  15.777 -0.3190 -1.1015  0.0250
 6891TIP3   OH242163   0.471   6.158   2.660 -0.1737  0.1279 -0.3085
 6891TIP3    H142164   0.479   6.066   2.684 -1.5488 -0.1433 -0.8119
 6891TIP3    H242165   0.457   6.157   2.565  0.2507  0.8892 -0.3853
 6892TIP3   OH242166   2.442   2.933   3.412 -0.0174  0.3368 -0.3522
 6892TIP3    H142167   2.462   2.857   3.467 -0.2644  0.5389  0.0238
 6892TIP3    H242168   2.523   2.983   3.411 -0.1590  0.5938  0.2611
 6893TIP3   OH242169   2.778   2.726   1.709  0.6171  0.0643  0.2674
 6893TIP3    H142170   2.856   2.748   1.760  1.5385  0.7390 -1.3476
 6893TIP3    H242171   2.713   2.792   1.734  1.2148  0.6792  0.2293
 6894TIP3   OH242172   3.192   4.815   2.486  0.2666 -0.0301  0.1749
 6894TIP3    H142173   3.252   4.779   2.551  0.0705 -0.7580 -0.0369
 6894TIP3    H242174   3.207   4.761   2.408  0.4332  0.7686 -0.3582
 6895TIP3   OH242175   6.304   2.028   1.874  0.3079 -0.5529  0.3135
 6895TIP3    H142176   6.309   1.947   1.924 -0.5177  0.2026  1.6603
 6895TIP3    H242177   6.259   2.089   1.931 -3.2775 -0.4050 -2.3014
 6896TIP3   OH242178   3.803   4.900   3.736 -0.4161  0.2165 -0.4569
 6896TIP3    H142179   3.867   4.839   3.699  0.3382  0.7189 -0.0177
 6896TIP3    H242180   3.775   4.859   3.817 -0.2458  0.2349 -0.3867
 6897TIP3   OH242181   2.630   4.030  12.803 -0.3383 -0.5037  0.3222
 6897TIP3    H142182   2.689   3.986  12.864  0.7354 -1.7517 -1.5012
 6897TIP3    H242183   2.625   4.119  12.835  2.3720 -0.4007  0.7454
 6898TIP3   OH242184   2.296   0.856   0.236 -0.2093  0.4978 -0.2491
 6898TIP3    H142185   2.329   0.772   0.206  2.5433  0.4049  2.5038
 6898TIP3    H242186   2.211   0.836   0.274  0.1041 -0.9467 -0.2504
 6899TIP3   OH242187   2.099   0.711  11.893  0.5312  0.3396 -0.1364
 6899TIP3    H142188   2.050   0.772  11.838  1.3193  0.4675 -0.7069
 6899TIP3    H242189   2.032   0.663  11.941 -0.1320  0.9385 -0.4453
 6900TIP3   OH242190   0.366   1.951  13.944 -0.2211 -0.3474  0.5053
 6900TIP3    H142191   0.432   1.886  13.968 -0.3028 -0.5957  0.0736
 6900TIP3    H242192   0.410   2.009  13.882 -0.1365  0.0351  0.9226
 6901TIP3   OH242193   0.387   6.097   0.706  0.3408 -0.1780  0.0012
 6901TIP3    H142194   0.326   6.170   0.700  0.9447  0.2222 -1.7927
 6901TIP3    H242195   0.395   6.065   0.616  1.1404 -1.5815  0.5415
 6902TIP3   OH242196   4.269   0.898   3.500 -0.2497  1.1084 -0.1450
 6902TIP3    H142197   4.321   0.823   3.471 -0.6755  0.9069 -0.3912
 6902TIP3    H242198   4.334   0.966   3.518  0.0024  2.1187 -3.9774
 6903TIP3   OH242199   5.999   1.007  14.575  0.0442 -0.8903 -0.6688
 6903TIP3    H142200   5.931   1.069  14.601  1.6820  0.9438 -0.5198
 6903TIP3    H242201   6.015   0.954  14.653  0.7727  0.6092  0.2505
 6904TIP3   OH242202   3.908   1.916   5.248  0.2601 -0.0371  0.1785
 6904TIP3    H142203   3.962   1.942   5.323 -0.9582 -1.8012  1.7773
 6904TIP3    H242204   3.819   1.944   5.271 -0.0926 -0.3681 -0.7307
 6905TIP3   OH242205   0.492   1.775   1.036 -0.5363  0.2998 -0.2717
 6905TIP3    H142206   0.509   1.868   1.046  0.4299 -0.0343  1.5553
 6905TIP3    H242207   0.578   1.733   1.043 -1.1618 -0.8560  1.0459
 6906TIP3   OH242208   4.596   4.057  14.166  0.2352 -0.1498  0.1028
 6906TIP3    H142209   4.541   4.034  14.242 -0.7942 -0.2188 -0.6372
 6906TIP3    H242210   4.535   4.057  14.092  1.2236 -0.0849 -0.7296
 6907TIP3   OH242211   0.501   2.019  16.211 -0.2362  0.1046  0.5108
 6907TIP3    H142212   0.438   2.060  16.152  0.2211  0.2215  0.0959
 6907TIP3    H242213   0.455   1.942  16.244 -0.4742 -0.0121 -0.0661
 6908TIP3   OH242214   1.205   2.842   2.216  0.3740  0.1664 -0.0694
 6908TIP3    H142215   1.242   2.818   2.301  1.4381 -1.6590 -0.9837
 6908TIP3    H242216   1.279   2.837   2.155 -1.0592 -2.9366 -1.8495
 6909TIP3   OH242217   4.939   6.704   5.995  0.7577  0.2353  0.3727
 6909TIP3    H142218   4.861   6.715   5.941  1.1562 -0.8755 -0.4763
 6909TIP3    H242219   4.926   6.764   6.069 -0.7138  0.3417  0.0601
 6910TIP3   OH242220   6.381   0.180   0.347  0.3793 -0.4214  0.4778
 6910TIP3    H142221   6.407   0.106   0.402  2.1384  0.8532  1.4574
 6910TIP3    H242222   6.462   0.227   0.330 -0.7798  1.6693  0.4319
 6911TIP3   OH242223   2.808   2.981  14.865  0.1598 -0.5922  0.3691
 6911TIP3    H142224   2.887   3.003  14.815 -0.0906  2.1553  0.9896
 6911TIP3    H242225   2.842   2.939  14.944  0.9560 -0.1928  0.2579
 6912TIP3   OH242226   0.152   4.577   3.753 -0.1794 -0.6345 -0.4210
 6912TIP3    H142227   0.179   4.634   3.825  1.3416 -1.2643 -0.4512
 6912TIP3    H242228   0.170   4.489   3.785 -2.5629 -1.1665 -0.3509
 6913TIP3   OH242229   1.612   0.582  11.131 -0.5793 -0.3558  0.1078
 6913TIP3    H142230   1.694   0.603  11.085 -0.2421 -2.0407 -0.1216
 6913TIP3    H242231   1.547   0.575  11.062 -1.0935  1.5296  0.3345
 6914TIP3   OH242232   0.591   4.872   0.035 -0.7269  0.6152 -0.5395
 6914TIP3    H142233   0.671   4.825   0.058 -0.8499  1.4919  2.0242
 6914TIP3    H242234   0.524   4.804   0.030  0.0861 -0.1115 -2.6170
 6915TIP3   OH242235   1.930   2.602  14.340  0.0418 -0.2359  0.0583
 6915TIP3    H142236   1.843   2.586  14.305 -0.5759 -0.8029  1.7784
 6915TIP3    H242237   1.956   2.520  14.381  1.5760 -0.2065 -0.7760
 6916TIP3   OH242238   0.302   1.188   4.343  0.0312  0.8012  0.0266
 6916TIP3    H142239   0.379   1.140   4.313 -0.0128  0.7862 -0.0631
 6916TIP3    H242240   0.255   1.212   4.263 -0.1356  0.6816  0.0868
 6917TIP3   OH242241   4.215   0.215  11.200 -0.5656 -0.1978  0.0134
 6917TIP3    H142242   4.179   0.262  11.125  0.4021 -0.4584 -0.6321
 6917TIP3    H242243   4.268   0.280  11.246  1.8097 -0.8738 -1.5782
 6918TIP3   OH242244   2.516   2.545   4.224  0.5825 -0.7616  0.2134
 6918TIP3    H142245   2.557   2.553   4.310 -0.0800 -1.6127  0.6236
 6918TIP3    H242246   2.432   2.503   4.242 -0.9205  1.7452 -0.4626
 6919TIP3   OH242247   2.908   0.369  10.609 -0.2644 -0.0904  0.7120
 6919TIP3    H142248   2.816   0.374  10.583  0.2827  1.2251 -1.2222
 6919TIP3    H242249   2.909   0.392  10.702 -2.1283 -2.7778  1.4921
 6920TIP3   OH242250   4.734   1.074  10.580 -0.0763 -0.3015  0.1520
 6920TIP3    H142251   4.740   1.101  10.488 -0.8195 -0.5611  0.0192
 6920TIP3    H242252   4.703   0.984  10.576 -0.4168 -0.2066  0.6692
 6921TIP3   OH242253   3.887   1.439  12.690 -0.1004  0.6818 -0.0240
 6921TIP3    H142254   3.823   1.454  12.760  1.2116  0.4035  1.2767
 6921TIP3    H242255   3.877   1.347  12.669  1.5621 -0.0378  1.9928
 6922TIP3   OH242256   0.426   6.257  12.473 -0.0629 -0.6317  0.5338
 6922TIP3    H142257   0.357   6.322  12.463 -0.0162 -0.4156  1.5601
 6922TIP3    H242258   0.388   6.177  12.437  0.0583  0.0548 -1.1998
 6923TIP3   OH242259   0.095   2.518  13.834  0.4347 -0.1501 -0.4970
 6923TIP3    H142260   0.019   2.577  13.825  0.8974  0.3769 -1.0321
 6923TIP3    H242261   0.090   2.486  13.924  0.2297  0.7938 -0.1611
 6924TIP3   OH242262   2.181   2.695  13.970  0.3696 -0.4915 -0.4180
 6924TIP3    H142263   2.103   2.670  13.921  1.0256  0.1352 -1.8189
 6924TIP3    H242264   2.254   2.661  13.919  1.1076  0.9198 -0.3666
 6925TIP3   OH242265   5.838   0.395   0.238  0.1192 -0.5151 -0.6982
 6925TIP3    H142266   5.783   0.465   0.273  0.6371  1.0158 -2.7388
 6925TIP3    H242267   5.779   0.321   0.228 -0.8658  0.1596 -0.1015
 6926TIP3   OH242268   5.385   3.661  10.729 -0.2806 -0.0544  0.8732
 6926TIP3    H142269   5.453   3.596  10.748  0.5098  0.8973  1.4194
 6926TIP3    H242270   5.398   3.729  10.796  0.0956  1.5470 -0.7611
 6927TIP3   OH242271   3.759   6.714  13.444 -0.6099  0.2390  0.2113
 6927TIP3    H142272   3.824   6.644  13.444 -1.2984 -0.4244 -0.5281
 6927TIP3    H242273   3.709   6.700  13.363 -0.9066  1.4489  0.1711
 6928TIP3   OH242274   3.302   0.785  16.026  0.2086 -0.0273  0.2694
 6928TIP3    H142275   3.218   0.833  16.027 -1.2736 -2.3431 -2.1725
 6928TIP3    H242276   3.281   0.701  15.987  3.8922 -0.4045 -1.2257
 6929TIP3   OH242277   6.286   2.199  15.182  0.0981 -0.5606  0.5018
 6929TIP3    H142278   6.281   2.292  15.160  0.7021 -0.3663  1.1379
 6929TIP3    H242279   6.312   2.198  15.275 -0.8803 -1.3563  0.7835
 6930TIP3   OH242280   6.213   5.893   0.291 -0.0409 -0.1699 -0.2763
 6930TIP3    H142281   6.218   5.960   0.223  0.7708 -0.5309 -0.5856
 6930TIP3    H242282   6.270   5.823   0.260  3.0645  0.9730  2.2279
 6931TIP3   OH242283   1.753   3.939  16.753  0.0466  0.0706 -0.4932
 6931TIP3    H142284   1.819   3.873  16.773 -0.9337 -1.0287 -0.7350
 6931TIP3    H242285   1.702   3.948  16.834  0.8993  1.4319 -0.0824
 6932TIP3   OH242286   3.465   2.879  10.353  0.6583  0.1432 -0.4213
 6932TIP3    H142287   3.388   2.934  10.368 -0.0969 -0.9062 -0.3789
 6932TIP3    H242288   3.539   2.937  10.370 -0.1190  1.0680 -0.0880
 6933TIP3   OH242289   1.827   5.422  15.422  0.1438 -0.5726 -0.1904
 6933TIP3    H142290   1.912   5.390  15.453  1.5455  0.8605 -2.2804
 6933TIP3    H242291   1.845   5.508  15.385 -1.8446 -0.9740 -2.3816
 6934TIP3   OH242292   3.778   0.569  13.658  0.0677  0.2683  0.1847
 6934TIP3    H142293   3.712   0.556  13.726  1.8965  1.3147  2.3060
 6934TIP3    H242294   3.749   0.646  13.609 -1.3495 -0.5873 -0.3864
 6935TIP3   OH242295   3.161   2.076  15.239  0.1595  0.0257  0.3581
 6935TIP3    H142296   3.246   2.068  15.282  0.0947  2.3144  1.0799
 6935TIP3    H242297   3.097   2.046  15.304  0.4156 -2.7472 -0.5759
 6936TIP3   OH242298   0.908   1.346   0.202 -0.2254  0.1181  0.0483
 6936TIP3    H142299   0.818   1.327   0.177  0.0952 -2.4055  0.5223
 6936TIP3    H242300   0.956   1.348   0.119 -0.5210  0.3020 -0.1196
 6937TIP3   OH242301   5.074   6.421  12.562 -0.1342  0.3557  0.3876
 6937TIP3    H142302   5.164   6.434  12.535 -0.4318  1.1244 -0.2544
 6937TIP3    H242303   5.059   6.327  12.552  0.9107  0.0344  1.5343
 6938TIP3   OH242304   0.399   2.546   2.325  0.2644 -0.3678  0.2174
 6938TIP3    H142305   0.357   2.490   2.258 -0.0121 -1.5185  1.3076
 6938TIP3    H242306   0.361   2.515   2.407  2.6670 -0.9125  1.1827
 6939TIP3   OH242307   4.971   1.339   2.313 -0.1986  0.4412 -0.0160
 6939TIP3    H142308   4.948   1.420   2.358 -0.2296 -0.0960  0.9626
 6939TIP3    H242309   4.890   1.287   2.313 -0.1581  0.3643 -0.5606
 6940TIP3   OH242310   5.851   3.277  17.140 -0.4598  0.0625 -0.5175
 6940TIP3    H142311   5.867   3.205  17.200  0.4850 -0.8385 -1.7993
 6940TIP3    H242312   5.778   3.325  17.179  0.3607 -0.2513  1.5311
 6941TIP3   OH242313   4.291   5.021  14.336 -0.2756 -0.0486 -0.0842
 6941TIP3    H142314   4.330   4.936  14.315 -0.7477 -0.1870 -0.4184
 6941TIP3    H242315   4.294   5.070  14.254 -0.0318  0.2471  0.1006
 6942TIP3   OH242316   5.223   2.654  16.774 -0.5928 -0.1393 -0.4365
 6942TIP3    H142317   5.310   2.638  16.811 -0.2626 -0.0699 -1.1677
 6942TIP3    H242318   5.239   2.675  16.682 -1.2621  1.3845 -0.2384
 6943TIP3   OH242319   4.972   5.952   2.634  0.3675 -0.0808  0.0665
 6943TIP3    H142320   5.005   6.030   2.591 -1.8192 -0.1156 -1.8502
 6943TIP3    H242321   5.022   5.947   2.715  2.0094  2.1263 -0.7058
 6944TIP3   OH242322   1.275   2.170   4.181 -0.1767  0.4576 -0.5666
 6944TIP3    H142323   1.196   2.157   4.128  0.5487 -0.8876 -1.3451
 6944TIP3    H242324   1.325   2.236   4.132 -0.9939  1.6818  0.1756
 6945TIP3   OH242325   0.217   3.846   4.470  0.3472  0.0811  0.3645
 6945TIP3    H142326   0.150   3.800   4.520  1.5290 -0.7280  1.2465
 6945TIP3    H242327   0.211   3.808   4.382  0.5345 -0.9415  0.7869
 6946TIP3   OH242328   1.268   0.872  13.040 -0.5986 -0.3312 -0.0254
 6946TIP3    H142329   1.304   0.954  13.006  2.2897 -0.4103  2.4187
 6946TIP3    H242330   1.206   0.900  13.107 -1.7529 -0.2177 -1.0938
 6947TIP3   OH242331   5.668   2.987   3.494  0.4031  0.1283 -0.3665
 6947TIP3    H142332   5.656   3.082   3.492 -1.3715  0.2406  4.3345
 6947TIP3    H242333   5.747   2.974   3.546 -1.5612 -0.8095  2.6145
 6948TIP3   OH242334   2.746   5.924   3.298 -0.2370 -0.5662  0.0859
 6948TIP3    H142335   2.651   5.936   3.296 -0.1921 -0.2002 -1.6298
 6948TIP3    H242336   2.780   6.008   3.328 -0.4209 -0.2869 -0.4658
 6949TIP3   OH242337   3.802   2.406  12.576  0.0060  0.1513  0.2648
 6949TIP3    H142338   3.890   2.415  12.611 -0.2390  0.8740  0.7214
 6949TIP3    H242339   3.791   2.482  12.519  0.4681 -1.1061 -1.5761
 6950TIP3   OH242340   5.470   6.716   3.737  0.0227 -0.4378  0.1088
 6950TIP3    H142341   5.547   6.664   3.757  1.2327  1.3044  0.2747
 6950TIP3    H242342   5.448   6.760   3.819  1.4923  2.3092 -0.8437
 6951TIP3   OH242343   3.976   1.051  12.515  0.2744  0.2965 -0.4635
 6951TIP3    H142344   4.015   0.977  12.469 -0.5494  1.0119 -2.3824
 6951TIP3    H242345   3.883   1.031  12.519  0.1271  0.9560 -0.4784
 6952TIP3   OH242346   0.881   2.344  17.117 -0.0196  0.0588 -0.5003
 6952TIP3    H142347   0.894   2.417  17.178  0.5810  0.3444 -0.9620
 6952TIP3    H242348   0.903   2.266  17.168 -0.3222  0.2248 -0.1111
 6953TIP3   OH242349   6.281   2.609   0.616 -0.5719  0.0262 -0.5254
 6953TIP3    H142350   6.369   2.576   0.637 -0.6278 -1.0906 -1.9049
 6953TIP3    H242351   6.222   2.539   0.644 -1.1732  1.2639  1.5060
 6954TIP3   OH242352   2.431   5.634  15.241  0.0290  0.0934  0.0266
 6954TIP3    H142353   2.362   5.572  15.265  1.1404 -0.9555  0.5766
 6954TIP3    H242354   2.383   5.713  15.213 -1.5774 -2.0690 -4.1654
 6955TIP3   OH242355   6.638   2.793  13.336  0.1953  0.2251  0.9041
 6955TIP3    H142356   6.700   2.748  13.278  0.9933  1.2613  0.9294
 6955TIP3    H242357   6.584   2.723  13.372  1.0169 -0.6482  0.4755
 6956TIP3   OH242358   1.085   5.071   2.773 -0.4113 -0.0118  0.1957
 6956TIP3    H142359   1.173   5.089   2.739  0.0721  0.1622  1.4913
 6956TIP3    H242360   1.029   5.072   2.695  0.5251  1.2004 -0.5031
 6957TIP3   OH242361   0.665   2.082  12.198 -0.6457  0.1200  0.4713
 6957TIP3    H142362   0.600   2.134  12.245  0.7406  1.4032  1.0113
 6957TIP3    H242363   0.750   2.113  12.230  0.3462  0.5207 -2.3093
 6958TIP3   OH242364   1.635   6.711  15.779 -0.1069 -0.1092  0.7774
 6958TIP3    H142365   1.604   6.729  15.869 -0.1765 -0.6903  0.8724
 6958TIP3    H242366   1.569   6.652  15.743  0.2747 -0.4072  0.5687
 6959TIP3   OH242367   2.561   4.598   2.364 -0.1219  0.1035 -0.4103
 6959TIP3    H142368   2.586   4.519   2.412  1.9695 -0.3209 -2.0145
 6959TIP3    H242369   2.645   4.640   2.343 -1.0389  1.2930 -1.9137
 6960TIP3   OH242370   0.601   3.962  16.336  0.5906 -0.0028  0.5811
 6960TIP3    H142371   0.620   4.022  16.264  1.1811 -0.8836 -0.0188
 6960TIP3    H242372   0.594   3.876  16.294  0.8455 -0.5120  1.5560
 6961TIP3   OH242373   4.406   3.210  15.677  0.6892  0.0469 -0.0845
 6961TIP3    H142374   4.339   3.146  15.703  0.1050  1.0720  1.0552
 6961TIP3    H242375   4.459   3.165  15.612 -0.4906 -1.1502 -0.2480
 6962TIP3   OH242376   3.771   5.110   4.061 -0.1492 -0.2700  0.6223
 6962TIP3    H142377   3.774   5.151   4.147 -1.6378 -2.6998  1.9383
 6962TIP3    H242378   3.852   5.138   4.018  1.4775 -0.3207  3.4230
 6963TIP3   OH242379   4.397   6.027   2.867 -0.8347  0.2331  0.4414
 6963TIP3    H142380   4.395   5.994   2.956 -1.1569  0.3013  0.4609
 6963TIP3    H242381   4.472   5.984   2.827 -0.9473 -0.1313  0.6169
 6964TIP3   OH242382   1.725   6.202   4.929  0.0083  0.3759  0.2187
 6964TIP3    H142383   1.659   6.213   4.998 -1.7634  1.6924 -1.5561
 6964TIP3    H242384   1.737   6.289   4.893  1.5695 -0.1267 -0.5482
 6965TIP3   OH242385   2.530   5.266   1.538 -0.1422  0.1940  0.0366
 6965TIP3    H142386   2.501   5.345   1.491  0.6597  1.1314  1.0688
 6965TIP3    H242387   2.540   5.295   1.629  0.2530 -1.0858  0.4092
 6966TIP3   OH242388   2.219   2.567   1.929  0.4995 -0.1798 -0.3435
 6966TIP3    H142389   2.145   2.580   1.870  0.3300  0.3891 -0.0125
 6966TIP3    H242390   2.186   2.591   2.015  0.8741 -0.5756 -0.0802
 6967TIP3   OH242391   6.607   4.154   2.067  0.3077 -0.4999  0.2627
 6967TIP3    H142392   6.519   4.168   2.032  0.0476  0.1880  1.1508
 6967TIP3    H242393   6.599   4.173   2.160  1.3654 -0.5810  0.3822
 6968TIP3   OH242394   5.922   1.340   4.671  0.2056  0.5577  0.1326
 6968TIP3    H142395   5.998   1.282   4.665  0.3242  0.7634 -0.3642
 6968TIP3    H242396   5.877   1.330   4.588 -1.0945 -0.6090  0.9417
 6969TIP3   OH242397   3.508   2.601  13.045  0.1664  0.0388  0.2808
 6969TIP3    H142398   3.512   2.552  13.127  1.7580 -1.1056 -0.4234
 6969TIP3    H242399   3.591   2.648  13.040  0.1440  0.0074 -0.7232
 6970TIP3   OH242400   6.353   2.824   1.147  0.2686  0.4262  0.1568
 6970TIP3    H142401   6.271   2.787   1.178 -0.1035  0.3203 -0.9118
 6970TIP3    H242402   6.421   2.766   1.183 -0.1913 -0.1081  0.1737
 6971TIP3   OH242403   1.643   4.874  13.868 -0.0820  0.0322  0.4560
 6971TIP3    H142404   1.662   4.820  13.791 -1.4699  1.8865 -1.2926
 6971TIP3    H242405   1.728   4.908  13.895  0.2049  1.7516 -2.2064
 6972TIP3   OH242406   3.353   1.303  10.687 -0.1341 -0.0033 -0.1414
 6972TIP3    H142407   3.257   1.300  10.688 -0.1189 -0.9077  1.0216
 6972TIP3    H242408   3.375   1.340  10.602 -1.5158  0.0811 -0.4885
 6973TIP3   OH242409   5.655   3.057  15.921 -0.4690 -0.3087 -0.3037
 6973TIP3    H142410   5.665   3.128  15.857  0.9692 -0.6073 -0.4425
 6973TIP3    H242411   5.689   3.094  16.002 -3.6438  0.6019  0.7921
 6974TIP3   OH242412   4.947   5.607   4.748 -0.3055  0.8500 -0.2912
 6974TIP3    H142413   4.901   5.546   4.805  0.0353 -0.5087 -1.4149
 6974TIP3    H242414   4.962   5.558   4.667 -1.6669  2.9959 -1.9829
 6975TIP3   OH242415   3.018   4.734   1.762 -0.3185  0.3887  0.5139
 6975TIP3    H142416   2.950   4.800   1.754  0.9008  1.4051 -3.3096
 6975TIP3    H242417   2.973   4.651   1.750 -1.1135  0.9191 -0.2696
 6976TIP3   OH242418   2.225   2.853   3.837 -0.5832 -0.0108  0.7383
 6976TIP3    H142419   2.307   2.891   3.866 -1.6562  1.5378  1.9090
 6976TIP3    H242420   2.219   2.769   3.883 -0.1565  0.3658  1.5002
 6977TIP3   OH242421   6.180   3.392  16.429 -0.0903 -0.2432  0.0359
 6977TIP3    H142422   6.177   3.310  16.381 -0.9916  0.1822 -0.6697
 6977TIP3    H242423   6.263   3.390  16.476  0.5476 -0.9347 -1.0871
 6978TIP3   OH242424   4.487   6.002  15.316 -0.0375 -0.1721  0.2692
 6978TIP3    H142425   4.560   6.059  15.291 -0.0892  0.4129  1.4038
 6978TIP3    H242426   4.409   6.058  15.308 -0.1097 -0.1248  1.1983
 6979TIP3   OH242427   1.656   1.830   3.066 -0.2476 -1.1927  0.0572
 6979TIP3    H142428   1.701   1.906   3.029 -1.2081 -1.8249 -2.6412
 6979TIP3    H242429   1.727   1.773   3.097  0.5432  0.0181  0.5626
 6980TIP3   OH242430   5.798   2.040  14.527 -0.2172  0.4439  0.2905
 6980TIP3    H142431   5.727   2.046  14.464 -0.6285 -2.6511  0.3066
 6980TIP3    H242432   5.877   2.060  14.477 -0.7346  0.1778 -0.6512
 6981TIP3   OH242433   1.884   2.466   4.346 -0.2948 -0.3119  0.8188
 6981TIP3    H142434   1.940   2.393   4.369  1.1718  0.5032 -0.0101
 6981TIP3    H242435   1.812   2.427   4.295 -1.1614 -1.5116  2.8528
 6982TIP3   OH242436   3.971   2.066  13.429 -0.1408 -0.1341 -0.1995
 6982TIP3    H142437   3.946   2.144  13.378  2.2680  1.2069  0.5042
 6982TIP3    H242438   4.015   2.010  13.366 -0.5566 -0.2666 -0.3812
 6983TIP3   OH242439   3.725   5.500  11.217  0.0230  0.3452  0.3596
 6983TIP3    H142440   3.803   5.446  11.232 -0.1041  0.1794  0.4208
 6983TIP3    H242441   3.730   5.523  11.124  0.9595  1.6031  0.6869
 6984TIP3   OH242442   0.908   2.788  12.099 -0.4271 -0.2284  0.3065
 6984TIP3    H142443   0.929   2.881  12.088 -0.0889 -0.0434  2.1017
 6984TIP3    H242444   0.817   2.781  12.069  0.2290  0.1767 -1.9620
 6985TIP3   OH242445   3.758   1.122   5.524  1.0153 -0.1179  0.2871
 6985TIP3    H142446   3.692   1.081   5.469  1.1322  1.4674 -1.1514
 6985TIP3    H242447   3.709   1.184   5.579  0.8284 -2.0921  2.4774
 6986TIP3   OH242448   3.287   5.419  12.849 -0.1261 -0.3040 -0.0174
 6986TIP3    H142449   3.257   5.438  12.938  1.2710 -0.6905  0.5679
 6986TIP3    H242450   3.319   5.503  12.816 -1.6116  0.0771 -0.5889
 6987TIP3   OH242451   0.165   0.225  16.217 -0.2101 -0.2083 -0.1296
 6987TIP3    H142452   0.152   0.319  16.205  2.5159  0.6700  2.5563
 6987TIP3    H242453   0.080   0.193  16.247 -1.3930  1.1953 -1.7778
 6988TIP3   OH242454   6.785   4.962   2.846  0.3130 -0.5047 -0.4991
 6988TIP3    H142455   6.751   4.947   2.934  1.6372  0.9141  0.3183
 6988TIP3    H242456   6.871   5.002   2.861  0.4117  0.0917 -2.4413
 6989TIP3   OH242457   0.716   5.536   4.246  0.3659 -0.4798 -0.7893
 6989TIP3    H142458   0.691   5.480   4.320  0.4252  0.8707  0.3011
 6989TIP3    H242459   0.636   5.583   4.223  0.3602 -0.8653 -1.5748
 6990TIP3   OH242460   6.783   0.338   1.329  0.5098 -0.5127 -0.4405
 6990TIP3    H142461   6.734   0.417   1.351 -3.2742 -2.8255  0.2905
 6990TIP3    H242462   6.805   0.298   1.413  2.4288 -0.2966 -0.7923
 6991TIP3   OH242463   2.331   2.163   0.292  0.0915  0.6317 -0.5942
 6991TIP3    H142464   2.306   2.250   0.261 -1.7959 -0.1455 -1.4457
 6991TIP3    H242465   2.385   2.127   0.221  1.9027  1.5019  0.2827
 6992TIP3   OH242466   3.024   5.174  15.493  0.8761  0.0014  0.2805
 6992TIP3    H142467   3.022   5.269  15.494 -0.6804 -0.0012  0.8797
 6992TIP3    H242468   3.030   5.149  15.585  1.9620 -0.4961  0.0908
 6993TIP3   OH242469   6.217   6.432   1.070 -0.0997 -0.7923 -0.5223
 6993TIP3    H142470   6.288   6.404   1.012  0.0597  0.2783 -0.8614
 6993TIP3    H242471   6.152   6.362   1.063  0.8763 -1.7521 -0.2579
 6994TIP3   OH242472   6.306   6.672  15.157 -0.2294  0.5758  0.2059
 6994TIP3    H142473   6.229   6.718  15.125 -0.3000 -0.2786 -0.9283
 6994TIP3    H242474   6.272   6.609  15.220 -0.6015 -0.4297 -0.9632
 6995TIP3   OH242475   2.224   4.707   3.976 -0.5293 -0.3957  0.3526
 6995TIP3    H142476   2.141   4.735   3.936 -0.1834  0.3526  0.1301
 6995TIP3    H242477   2.290   4.764   3.936  0.0423 -0.7229  0.8108
 6996TIP3   OH242478   0.793   0.462   4.436 -0.2650 -0.4413  0.0701
 6996TIP3    H142479   0.843   0.383   4.414  0.1459 -0.1832  0.0734
 6996TIP3    H242480   0.741   0.480   4.358  2.7375  1.6904 -1.6345
 6997TIP3   OH242481   2.624   1.895  13.941 -0.5514  0.3196  0.1900
 6997TIP3    H142482   2.689   1.872  13.875 -0.7926  0.1638  0.0103
 6997TIP3    H242483   2.676   1.933  14.012 -0.0462 -1.4658  0.8377
 6998TIP3   OH242484   1.453   1.107  12.180 -0.0081 -0.2768 -0.1726
 6998TIP3    H142485   1.478   1.070  12.096  0.4570  0.7062 -0.4949
 6998TIP3    H242486   1.503   1.189  12.185 -1.0024  0.3064  0.4870
 6999TIP3   OH242487   5.988   0.638  13.619 -0.2682 -0.0873 -0.5487
 6999TIP3    H142488   5.957   0.550  13.598 -1.7247 -0.0989  1.3676
 6999TIP3    H242489   5.919   0.696  13.587  0.2535  0.3014 -0.9786
 7000TIP3   OH242490   5.712   6.372   1.056  0.3585  0.1846  0.3446
 7000TIP3    H142491   5.671   6.413   0.979 -1.0172  1.4514  1.6845
 7000TIP3    H242492   5.760   6.443   1.098  2.2635 -0.8119 -0.0317
 7001TIP3   OH242493   6.059   0.303   0.706  0.3548 -0.0632 -0.3282
 7001TIP3    H142494   6.020   0.308   0.619  1.1943  0.4018 -0.6870
 7001TIP3    H242495   6.035   0.216   0.738 -1.3714  0.3792 -0.3340
 7002TIP3   OH242496   5.020   2.257  12.165  0.1889 -0.1232  0.3662
 7002TIP3    H142497   5.056   2.279  12.079  0.1579 -0.9639  0.1265
 7002TIP3    H242498   5.097   2.236  12.218  0.2095  0.4128  0.5559
 7003TIP3   OH242499   2.728   3.906   1.858  0.5462 -0.5229 -0.0322
 7003TIP3    H142500   2.666   3.963   1.903  1.6539 -0.6314  1.7109
 7003TIP3    H242501   2.708   3.819   1.890 -0.9887 -1.1635 -2.5163
 7004TIP3   OH242502   5.481   3.391   1.149 -0.2128 -0.1131 -0.3854
 7004TIP3    H142503   5.387   3.379   1.155 -0.3705  1.4788  2.1422
 7004TIP3    H242504   5.493   3.485   1.137  0.9976  0.0315  1.4442
 7005TIP3   OH242505   5.734   0.248  11.242 -0.3051 -0.3052 -0.5665
 7005TIP3    H142506   5.825   0.275  11.229 -0.0621 -0.6685  0.3456
 7005TIP3    H242507   5.708   0.213  11.156  0.7601 -1.1833 -0.5545
 7006TIP3   OH242508   2.985   1.525  11.699 -0.2911 -0.4289  0.6415
 7006TIP3    H142509   2.893   1.511  11.723  0.1085 -0.7478  2.0944
 7006TIP3    H242510   3.035   1.490  11.773  0.9651  1.3768  0.7229
 7007TIP3   OH242511   2.106   4.352   1.884 -0.5740 -0.2699 -0.2314
 7007TIP3    H142512   2.130   4.282   1.944  1.1562 -0.0038 -0.5698
 7007TIP3    H242513   2.013   4.368   1.903 -1.0780 -2.7231 -0.2637
 7008TIP3   OH242514   4.211   4.750   2.832 -0.6287  0.7185  0.1582
 7008TIP3    H142515   4.271   4.797   2.890 -0.2176 -2.2392  2.3264
 7008TIP3    H242516   4.267   4.696   2.778 -1.1933 -1.0020  1.2134
 7009TIP3   OH242517   4.347   4.100   0.376  0.6203  0.2987 -0.1960
 7009TIP3    H142518   4.428   4.112   0.427 -0.7224  0.4257  2.0589
 7009TIP3    H242519   4.328   4.007   0.384 -0.4434  0.5873  0.9845
 7010TIP3   OH242520   4.631   1.645   0.819  0.5210  0.1636 -1.4583
 7010TIP3    H142521   4.582   1.588   0.878  0.0115  0.2199 -1.8193
 7010TIP3    H242522   4.693   1.587   0.775  1.2251  0.1958 -0.5461
 7011TIP3   OH242523   3.302   1.072  13.304 -0.1034 -0.0095 -0.1691
 7011TIP3    H142524   3.319   1.143  13.242 -0.4091  0.8291  0.6836
 7011TIP3    H242525   3.384   1.063  13.353  0.0141 -0.4114 -0.4395
 7012TIP3   OH242526   5.062   4.203   2.709 -0.0104  0.2516  0.4720
 7012TIP3    H142527   5.154   4.224   2.693 -0.4671  2.3141  0.2372
 7012TIP3    H242528   5.014   4.255   2.645 -1.3646 -0.4580  0.8722
 7013TIP3   OH242529   4.210   1.360   0.968 -0.1626  0.3690  0.4333
 7013TIP3    H142530   4.132   1.404   0.999 -0.7188  0.1741 -0.6252
 7013TIP3    H242531   4.188   1.333   0.879  1.2578  0.6756 -0.0370
 7014TIP3   OH242532   1.489   2.748   0.989 -0.2879 -0.0805  0.1752
 7014TIP3    H142533   1.532   2.693   1.055  0.2648  0.3654  0.2025
 7014TIP3    H242534   1.553   2.754   0.918  0.4358  1.9262  0.9000
 7015TIP3   OH242535   4.452   3.822  13.547 -0.6352 -0.3293 -0.1185
 7015TIP3    H142536   4.503   3.841  13.626 -0.0786 -0.9991 -0.3051
 7015TIP3    H242537   4.393   3.751  13.573 -1.4930  0.4516  0.0990
 7016TIP3   OH242538   2.842   2.046   2.975 -0.1952  0.0639 -0.4293
 7016TIP3    H142539   2.790   2.108   3.026  0.2711  1.5726 -1.6923
 7016TIP3    H242540   2.820   2.067   2.884  0.2135 -1.4491 -0.9032
 7017TIP3   OH242541   2.417   3.674   3.559 -1.1834  0.1880 -0.2533
 7017TIP3    H142542   2.461   3.726   3.492  0.8756 -2.2597 -0.9320
 7017TIP3    H242543   2.365   3.611   3.511 -1.4082 -0.2141  0.5003
 7018TIP3   OH242544   6.283   1.422  12.308 -0.6467 -0.5588  0.4886
 7018TIP3    H142545   6.220   1.406  12.378  0.6985  2.8744  2.7374
 7018TIP3    H242546   6.369   1.410  12.350  0.1922  0.9907 -0.6753
 7019TIP3   OH242547   3.551   2.321   4.298 -0.2865  0.1809  0.5314
 7019TIP3    H142548   3.455   2.312   4.300 -0.2111 -1.1519 -0.5550
 7019TIP3    H242549   3.568   2.402   4.346 -1.8200 -0.5736  2.5213
 7020TIP3   OH242550   3.659   6.774  13.688  0.8522 -0.1426  0.8536
 7020TIP3    H142551   3.611   6.693  13.699  0.1241  0.3187  1.1078
 7020TIP3    H242552   3.678   6.778  13.594 -1.6984  0.8174  0.3067
 7021TIP3   OH242553   2.438   0.949   3.627 -0.4352  0.6097 -0.3631
 7021TIP3    H142554   2.447   1.022   3.566  0.5963 -0.6383 -1.7668
 7021TIP3    H242555   2.382   0.983   3.697 -0.8489  2.3933 -1.5036
 7022TIP3   OH242556   2.375   0.607   2.401 -0.3474  0.4922  0.4627
 7022TIP3    H142557   2.440   0.544   2.368 -1.9191 -0.0351 -1.8850
 7022TIP3    H242558   2.426   0.687   2.416  1.0867 -0.2886  0.0411
 7023TIP3   OH242559   4.541   6.762   2.933  0.2413  0.3440  0.2889
 7023TIP3    H142560   4.601   6.758   3.008  1.6201 -2.4950 -0.7935
 7023TIP3    H242561   4.595   6.737   2.858 -2.1901 -2.3045 -0.7671
 7024TIP3   OH242562   2.092   5.919   0.014  0.3524 -0.1551  0.0141
 7024TIP3    H142563   2.095   5.963  -0.071  2.5428 -0.1001  0.0541
 7024TIP3    H242564   2.006   5.878   0.017  0.0610  0.1883 -2.0590
 7025TIP3   OH242565   1.948   2.650  12.204  0.2545  0.1114  0.1673
 7025TIP3    H142566   1.905   2.736  12.202 -1.3427 -0.6291  0.8683
 7025TIP3    H242567   1.988   2.646  12.291  3.5611  1.5841 -1.1548
 7026TIP3   OH242568   0.921   2.255   3.726 -0.4689  0.0293 -0.3188
 7026TIP3    H142569   0.939   2.319   3.794  1.9752 -1.0304  0.1135
 7026TIP3    H242570   0.849   2.293   3.676 -0.1544  2.3407  0.8764
 7027TIP3   OH242571   2.273   0.975  14.940 -0.4072  0.3611  0.4912
 7027TIP3    H142572   2.247   1.055  14.895  1.0036  0.4137 -0.2672
 7027TIP3    H242573   2.317   1.005  15.020  0.3867  0.3553  0.0595
 7028TIP3   OH242574   0.550   3.949  13.093  0.4277  0.0432  0.5665
 7028TIP3    H142575   0.464   3.924  13.059 -0.2078 -1.7957  3.2665
 7028TIP3    H242576   0.612   3.907  13.034 -0.5724 -1.1754  0.3508
 7029TIP3   OH242577   1.807   4.936  16.413 -0.5517  0.0417 -0.3170
 7029TIP3    H142578   1.772   5.017  16.450  0.0967 -0.0520  0.5316
 7029TIP3    H242579   1.795   4.946  16.318 -2.2737  0.2787 -0.1055
 7030TIP3   OH242580   6.545   2.008   6.258 -0.2650  0.0953  0.2126
 7030TIP3    H142581   6.629   1.962   6.261 -0.2712  0.1206  1.8593
 7030TIP3    H242582   6.481   1.943   6.286 -0.4346  0.7430  1.3831
 7031TIP3   OH242583   4.254   5.300   2.399  0.3705 -0.2060 -0.0293
 7031TIP3    H142584   4.225   5.275   2.311  1.3141 -1.0570 -0.1129
 7031TIP3    H242585   4.213   5.235   2.457 -0.3504  0.4268  0.1839
 7032TIP3   OH242586   2.454   6.173  15.202 -0.1106  0.0237  0.6096
 7032TIP3    H142587   2.520   6.119  15.246  0.1488 -1.1379 -1.0892
 7032TIP3    H242588   2.504   6.227  15.141 -0.5026  1.2402  1.3322
 7033TIP3   OH242589   5.579   2.095  14.358 -0.8535  0.3708  0.2399
 7033TIP3    H142590   5.612   2.125  14.274 -0.5620 -1.3160 -0.2865
 7033TIP3    H242591   5.546   2.174  14.401  0.4901  1.5201 -0.7621
 7034TIP3   OH242592   5.222   4.559   4.030  0.2931  0.0784  0.3582
 7034TIP3    H142593   5.258   4.503   4.099 -0.0986 -0.5832  0.0420
 7034TIP3    H242594   5.137   4.587   4.064  0.8688  1.2302  0.8936
 7035TIP3   OH242595   3.725   0.433  10.812 -0.5017  0.1022  0.1021
 7035TIP3    H142596   3.750   0.366  10.748 -0.0168  0.7688 -0.4228
 7035TIP3    H242597   3.668   0.492  10.764 -0.7307  0.2008  0.4957
 7036TIP3   OH242598   1.493   4.573   1.537  0.5558  0.9146  0.3648
 7036TIP3    H142599   1.497   4.564   1.632 -0.2367 -0.3360  0.3073
 7036TIP3    H242600   1.562   4.635   1.515  3.3621 -1.6385  1.3800
 7037TIP3   OH242601   5.149   5.147  15.794 -0.4357 -0.4566  0.3891
 7037TIP3    H142602   5.207   5.156  15.718 -2.7742 -3.1315 -1.9695
 7037TIP3    H242603   5.148   5.233  15.835  3.0293  0.3866 -0.9882
 7038TIP3   OH242604   6.046   3.841   0.431  0.3182  0.6707  0.0598
 7038TIP3    H142605   6.117   3.821   0.370  0.0254 -0.8580  0.1797
 7038TIP3    H242606   5.971   3.790   0.399  0.4501 -1.0511  2.2423
 7039TIP3   OH242607   0.955   6.419  15.946  0.3598 -0.2074  0.1479
 7039TIP3    H142608   0.969   6.408  16.040  1.8870 -0.5642 -0.0947
 7039TIP3    H242609   0.863   6.393  15.932  0.6325 -1.9877  1.2687
 7040TIP3   OH242610   6.816   3.688  15.072 -0.0535  0.0487  0.6886
 7040TIP3    H142611   6.760   3.681  14.995  0.2114  1.4992  0.3366
 7040TIP3    H242612   6.905   3.695  15.036  0.3326 -1.6111  1.2194
 7041TIP3   OH242613   1.094   4.357   5.905 -0.2040  0.4173  0.3083
 7041TIP3    H142614   1.186   4.333   5.916  0.5003  2.7704  0.0573
 7041TIP3    H242615   1.078   4.350   5.811 -0.0888  0.6991  0.2699
 7042TIP3   OH242616   4.120   1.519   3.080 -0.2478 -0.7036  0.0131
 7042TIP3    H142617   4.194   1.471   3.118 -0.8444 -1.4576  0.2531
 7042TIP3    H242618   4.090   1.576   3.150  0.3016 -0.1665 -0.1867
 7043TIP3   OH242619   0.816   6.388  12.906  0.3978 -0.1544 -0.1112
 7043TIP3    H142620   0.721   6.373  12.914  0.1222  0.7918 -1.2903
 7043TIP3    H242621   0.832   6.386  12.812  1.3409  0.8915  0.0117
 7044TIP3   OH242622   2.126   2.473  13.642  0.0702 -0.0731 -0.2357
 7044TIP3    H142623   2.048   2.504  13.596  0.8881  0.0659 -1.5852
 7044TIP3    H242624   2.095   2.453  13.730 -2.0662 -2.4222 -1.3761
 7045TIP3   OH242625   6.478   1.768   2.918  0.4267  0.4200 -0.3881
 7045TIP3    H142626   6.549   1.799   2.862  0.7298  0.7412  0.1682
 7045TIP3    H242627   6.520   1.709   2.980  0.2311  0.7295  0.0410
 7046TIP3   OH242628   2.226   4.638   1.312  0.5900 -0.3977  0.1196
 7046TIP3    H142629   2.192   4.573   1.251  0.6780 -1.3952  1.1162
 7046TIP3    H242630   2.202   4.606   1.398  3.0819 -0.6020  0.8060
 7047TIP3   OH242631   6.052   1.102   4.215  0.2447  1.0037 -0.4281
 7047TIP3    H142632   5.972   1.072   4.258 -0.1641 -0.3366 -2.0358
 7047TIP3    H242633   6.105   1.023   4.206  1.5081  1.7742  0.0950
 7048TIP3   OH242634   6.759   4.252   5.771 -0.5648 -0.2453 -0.5034
 7048TIP3    H142635   6.732   4.305   5.846 -1.4687  1.3224 -1.8795
 7048TIP3    H242636   6.678   4.212   5.739 -0.5555  0.7350 -1.8388
 7049TIP3   OH242637   5.522   2.715   1.316  0.3284 -0.2360 -0.5985
 7049TIP3    H142638   5.566   2.671   1.389 -1.1259 -1.4304 -0.4010
 7049TIP3    H242639   5.528   2.808   1.338 -0.1013 -0.5703  1.0751
 7050TIP3   OH242640   4.450   4.418  16.742  0.4047 -0.2304 -0.0426
 7050TIP3    H142641   4.520   4.356  16.722 -0.6865 -1.2917 -0.6791
 7050TIP3    H242642   4.430   4.459  16.657  1.8207  1.8249  0.5282
 7051TIP3   OH242643   1.754   1.818  16.738 -0.2023  0.3787  0.3309
 7051TIP3    H142644   1.789   1.899  16.702  0.2547 -0.2032 -0.5574
 7051TIP3    H242645   1.824   1.754  16.726 -0.8494 -0.3387  0.3100
 7052TIP3   OH242646   5.097   5.008  12.244 -0.0686 -0.0869 -0.1426
 7052TIP3    H142647   5.099   5.004  12.340  1.5311 -1.0704 -0.1588
 7052TIP3    H242648   5.129   4.921  12.217 -0.2583  0.2679 -1.5541
 7053TIP3   OH242649   1.844   4.788  13.415  0.4564 -0.2726 -0.0817
 7053TIP3    H142650   1.837   4.709  13.362 -0.2973 -0.1181 -0.2238
 7053TIP3    H242651   1.904   4.844  13.367  1.7877 -1.1388  0.5141
 7054TIP3   OH242652   1.861   6.625  16.068  0.6750 -0.1063 -0.5578
 7054TIP3    H142653   1.839   6.703  16.018  1.4201  0.6365  0.2370
 7054TIP3    H242654   1.791   6.563  16.049  0.8619  0.1833 -2.4181
 7055TIP3   OH242655   0.988   3.397   0.165 -0.0082  0.5495 -0.3031
 7055TIP3    H142656   0.967   3.321   0.218  0.8632  0.2224 -0.4152
 7055TIP3    H242657   0.907   3.449   0.163 -0.4872 -0.1804  0.0835
 7056TIP3   OH242658   4.743   0.712   2.059  0.6255  0.1093  0.3128
 7056TIP3    H142659   4.647   0.711   2.056  0.5921  0.8975  0.7307
 7056TIP3    H242660   4.765   0.637   2.114  0.2266  0.1458  0.5320
 7057TIP3   OH242661   2.761   3.631   1.899  0.1014  0.3532 -0.2192
 7057TIP3    H142662   2.787   3.539   1.891  0.9230  0.3864  1.5581
 7057TIP3    H242663   2.681   3.628   1.952  0.3659  0.6812  0.1985
 7058TIP3   OH242664   4.463   3.691  15.077 -0.4827 -0.1084 -0.0139
 7058TIP3    H142665   4.495   3.608  15.042  0.5153  0.1222  0.3231
 7058TIP3    H242666   4.459   3.677  15.172 -3.0421 -0.6895 -0.1399
 7059TIP3   OH242667   5.167   1.554  12.896  0.2443  0.0667 -0.4577
 7059TIP3    H142668   5.098   1.581  12.957  1.0513  1.5305 -0.1451
 7059TIP3    H242669   5.164   1.459  12.897  0.6198  0.0069  2.3657
 7060TIP3   OH242670   6.589   5.427  15.556 -0.6259 -0.4580 -0.1061
 7060TIP3    H142671   6.543   5.509  15.575  0.6702 -0.0416  1.3767
 7060TIP3    H242672   6.535   5.359  15.596 -0.9717 -0.1777 -0.0961
 7061TIP3   OH242673   1.347   4.933   3.706  0.3094 -0.2168  0.4382
 7061TIP3    H142674   1.408   5.005   3.721  1.0879 -0.9461  0.8390
 7061TIP3    H242675   1.358   4.911   3.613 -0.1208  0.3348  0.2482
 7062TIP3   OH242676   1.105   3.037  16.308  0.2010  0.3023 -0.0994
 7062TIP3    H142677   1.158   3.015  16.232  1.6284 -1.2249  1.2463
 7062TIP3    H242678   1.117   3.131  16.320  0.7418  0.3805 -1.1483
 7063TIP3   OH242679   5.120   0.293  16.310  0.3195 -0.3867 -0.2266
 7063TIP3    H142680   5.075   0.353  16.250 -0.5984 -0.4695  0.3626
 7063TIP3    H242681   5.197   0.265  16.261  0.1183  0.3187 -0.9862
 7064TIP3   OH242682   1.873   4.867  11.256 -0.3355  0.5276  0.1584
 7064TIP3    H142683   1.805   4.892  11.319 -0.8624  0.3143 -0.3229
 7064TIP3    H242684   1.830   4.870  11.171 -0.1210 -0.9440 -0.0341
 7065TIP3   OH242685   4.645   5.933  12.791  0.2253  0.8001 -0.3950
 7065TIP3    H142686   4.666   5.996  12.859  0.9666  0.7133 -0.5432
 7065TIP3    H242687   4.595   5.864  12.836  2.3325 -0.2319  0.4677
 7066TIP3   OH242688   0.393   4.338  15.667 -0.1480  0.2487 -0.1463
 7066TIP3    H142689   0.388   4.398  15.592 -0.3043 -1.8714 -1.9281
 7066TIP3    H242690   0.311   4.290  15.664 -0.5846  0.7886  2.0433
 7067TIP3   OH242691   0.791   2.924  13.036 -0.3521 -0.2749 -0.3352
 7067TIP3    H142692   0.704   2.955  13.063  0.2436  0.7650  0.4920
 7067TIP3    H242693   0.809   2.850  13.095 -0.1555  0.3215  0.3703
 7068TIP3   OH242694   2.780   1.570  14.034 -0.5398 -0.0768  0.0803
 7068TIP3    H142695   2.842   1.621  14.087  0.1093  1.1359 -1.7193
 7068TIP3    H242696   2.822   1.565  13.948 -2.1075 -0.8892 -0.6712
 7069TIP3   OH242697   1.825   3.456  15.854  0.1079 -0.3969  0.2321
 7069TIP3    H142698   1.810   3.436  15.762  1.9464 -1.5097  0.1407
 7069TIP3    H242699   1.832   3.371  15.897 -1.1192  0.0959  1.5168
 7070TIP3   OH242700   6.491   2.522  16.495 -0.1597 -0.5134 -0.2606
 7070TIP3    H142701   6.536   2.487  16.572 -2.1766 -1.3837  0.6032
 7070TIP3    H242702   6.421   2.459  16.478 -0.3370  0.1627 -2.2461
 7071TIP3   OH242703   4.006   0.414   0.561  0.3914 -0.0912  0.0645
 7071TIP3    H142704   4.070   0.474   0.597 -0.4892  1.7062 -1.1920
 7071TIP3    H242705   3.921   0.453   0.582 -0.1906 -0.4269 -1.4597
 7072TIP3   OH242706   3.995   1.371   1.404 -0.4314  0.2734  0.5851
 7072TIP3    H142707   3.910   1.343   1.437 -0.6674  1.0075  0.6270
 7072TIP3    H242708   4.026   1.435   1.468  0.2683 -0.1605  0.6984
 7073TIP3   OH242709   6.365   4.277  13.051  0.1678  0.2867 -0.0395
 7073TIP3    H142710   6.350   4.323  13.133 -1.7968  2.8793 -1.6845
 7073TIP3    H242711   6.301   4.205  13.052  2.1066 -1.5483  1.8174
 7074TIP3   OH242712   3.733   1.741  13.046 -0.6532 -0.1628 -0.6993
 7074TIP3    H142713   3.704   1.655  13.017 -0.2169 -0.1659 -1.1466
 7074TIP3    H242714   3.676   1.802  12.998 -0.2294 -0.1789 -1.2293
 7075TIP3   OH242715   3.470   3.952  17.132  0.0040 -0.3677  0.9360
 7075TIP3    H142716   3.454   3.864  17.166  1.3399 -0.7921  0.5153
 7075TIP3    H242717   3.547   3.983  17.179 -0.4864  0.6168  1.1221
 7076TIP3   OH242718   4.619   4.729   4.369 -0.2173  0.7384 -0.2888
 7076TIP3    H142719   4.668   4.700   4.292 -0.3697 -1.5785  0.4059
 7076TIP3    H242720   4.533   4.754   4.334  0.0797  0.7846 -1.0018
 7077TIP3   OH242721   2.185   5.925  14.480  0.0813  0.1924 -0.0863
 7077TIP3    H142722   2.142   5.889  14.557 -0.8573  0.3161 -0.5380
 7077TIP3    H242723   2.132   6.001  14.455  0.3279  0.1160 -0.8887
 7078TIP3   OH242724   5.934   0.990  13.192  0.1417  0.1386  0.6186
 7078TIP3    H142725   5.947   1.007  13.285  1.8510 -1.5029  0.7503
 7078TIP3    H242726   5.953   0.897  13.182  1.0222  0.4859 -1.5354
 7079TIP3   OH242727   5.900   1.865  11.583  0.9090 -0.0935  0.2047
 7079TIP3    H142728   5.867   1.810  11.512  0.8609 -0.1217  0.2487
 7079TIP3    H242729   5.916   1.804  11.655  1.0476 -0.0772  0.1861
 7080TIP3   OH242730   1.838   4.784   6.223  0.4066 -0.1880 -0.3072
 7080TIP3    H142731   1.927   4.767   6.190  1.2303  1.4886  0.9012
 7080TIP3    H242732   1.837   4.879   6.240 -0.9566 -0.5007  1.5828
 7081TIP3   OH242733   2.080   0.271  15.906  0.5906 -0.0081  0.2605
 7081TIP3    H142734   2.007   0.325  15.936  2.4753  2.5869  0.5170
 7081TIP3    H242735   2.103   0.216  15.981  0.4716  0.9756  1.0308
 7082TIP3   OH242736   4.511   1.641   0.523  0.1236 -0.0441  0.3003
 7082TIP3    H142737   4.497   1.568   0.463 -0.1454 -0.5077  0.9202
 7082TIP3    H242738   4.564   1.605   0.594 -0.8471  0.0886  1.1117
 7083TIP3   OH242739   5.426   2.298   2.500 -0.2179  0.3080 -0.2942
 7083TIP3    H142740   5.476   2.354   2.559 -0.2707 -1.2985  1.3671
 7083TIP3    H242741   5.480   2.219   2.491 -0.8362 -0.0208 -1.3556
 7084TIP3   OH242742   6.458   5.594  16.881  0.9589  0.6551 -0.1541
 7084TIP3    H142743   6.515   5.611  16.806  1.6264 -0.1450  0.1510
 7084TIP3    H242744   6.513   5.611  16.957  1.4396 -1.9141  0.1741
 7085TIP3   OH242745   5.185   2.048  13.943  0.4266 -0.4053 -0.4516
 7085TIP3    H142746   5.223   2.107  13.878  0.8870 -1.4399 -1.1412
 7085TIP3    H242747   5.241   1.971  13.941  1.5398  0.2186  2.4780
 7086TIP3   OH242748   5.189   4.186  15.039 -0.5147 -0.0608 -0.5211
 7086TIP3    H142749   5.260   4.150  14.986  0.9778  1.5312  0.2550
 7086TIP3    H242750   5.144   4.110  15.075  0.5376 -1.1308 -1.3985
 7087TIP3   OH242751   2.741   5.603   0.354 -0.6586 -0.1285 -0.3248
 7087TIP3    H142752   2.788   5.623   0.435 -0.6329 -2.7106  0.3939
 7087TIP3    H242753   2.809   5.584   0.290 -0.6520 -1.8293  0.1453
 7088TIP3   OH242754   6.328   1.613  10.559  1.1979  0.2670  0.2294
 7088TIP3    H142755   6.323   1.518  10.560 -2.6043  0.2981  0.8434
 7088TIP3    H242756   6.294   1.638  10.473 -0.0162  1.0157  0.8906
 7089TIP3   OH242757   1.803   1.335   4.253 -0.5386 -0.3245 -0.0482
 7089TIP3    H142758   1.857   1.268   4.294 -1.9893 -2.4091 -1.3585
 7089TIP3    H242759   1.747   1.287   4.192 -0.9394  2.2145 -1.8397
 7090TIP3   OH242760   3.128   2.820   5.055 -0.1224 -0.2589  0.1574
 7090TIP3    H142761   3.142   2.757   4.985  0.7403 -1.6635  1.5112
 7090TIP3    H242762   3.183   2.894   5.032 -0.6839 -0.2306 -1.1676
 7091TIP3   OH242763   5.893   3.716   4.328  0.1876 -0.7433  0.0208
 7091TIP3    H142764   5.839   3.795   4.331 -0.8943 -1.3584 -1.7255
 7091TIP3    H242765   5.861   3.662   4.401 -1.5093 -1.0236 -0.8853
 7092TIP3   OH242766   5.500   0.607   4.657  0.0396 -0.2533 -0.0772
 7092TIP3    H142767   5.460   0.694   4.646 -0.7271 -0.1725  2.6744
 7092TIP3    H242768   5.592   0.621   4.636 -0.2257  1.0238 -0.4980
 7093TIP3   OH242769   4.893   3.557  11.365  0.2834  0.5417  0.0654
 7093TIP3    H142770   4.872   3.526  11.277  0.4275  3.0041 -0.9162
 7093TIP3    H242771   4.981   3.594  11.358  0.9900 -0.7352  1.6922
 7094TIP3   OH242772   0.679   5.166  15.445 -0.5358  0.1592 -0.5195
 7094TIP3    H142773   0.671   5.073  15.464 -3.7530  0.6215  1.0662
 7094TIP3    H242774   0.612   5.183  15.379 -1.3846  1.6122  0.6466
 7095TIP3   OH242775   1.705   1.855  11.934 -0.6936 -0.2758 -0.2904
 7095TIP3    H142776   1.788   1.847  11.889 -1.3809  2.3754 -2.2548
 7095TIP3    H242777   1.709   1.941  11.976 -1.9990 -0.6098  0.5741
 7096TIP3   OH242778   0.408   6.670   1.971 -0.0529  0.2646  0.3616
 7096TIP3    H142779   0.470   6.633   1.909 -0.1503  0.3540  0.2101
 7096TIP3    H242780   0.336   6.704   1.917 -1.6215 -2.3391  0.6594
 7097TIP3   OH242781   1.979   1.246   5.194 -0.2042 -0.7606  0.5763
 7097TIP3    H142782   2.051   1.212   5.246  1.7534 -0.6410 -1.8879
 7097TIP3    H242783   1.910   1.180   5.203  0.5615 -1.4102  2.1276
 7098TIP3   OH242784   3.391   6.156   0.082  0.3982  0.1669 -0.1258
 7098TIP3    H142785   3.311   6.146   0.030  0.8664  2.1893 -1.3841
 7098TIP3    H242786   3.414   6.068   0.110 -2.2170 -0.4727  0.2117
 7099TIP3   OH242787   0.358   2.208  10.665  0.0585  0.1966  0.2129
 7099TIP3    H142788   0.321   2.121  10.675  1.6885 -0.7170 -1.1710
 7099TIP3    H242789   0.337   2.234  10.575  1.1603  0.4033 -0.0111
 7100TIP3   OH242790   3.639   5.544  13.252  0.1347 -0.3723 -0.7150
 7100TIP3    H142791   3.656   5.454  13.279  0.8395  0.1856  0.8086
 7100TIP3    H242792   3.692   5.556  13.174  0.2802 -1.1687 -0.7487
 7101TIP3   OH242793   1.674   2.344   4.719  0.4984  0.1535 -0.2554
 7101TIP3    H142794   1.646   2.372   4.632  1.0883 -0.0254 -0.5135
 7101TIP3    H242795   1.731   2.269   4.702 -2.3446 -2.3705  0.4703
 7102TIP3   OH242796   5.614   0.564  10.633  0.2075 -0.1489 -0.2477
 7102TIP3    H142797   5.562   0.644  10.645 -2.6477 -1.7577 -0.8245
 7102TIP3    H242798   5.680   0.587  10.569 -1.7252  1.3163 -1.8473
 7103TIP3   OH242799   6.134   5.276   0.771 -0.1129 -0.4764 -0.0053
 7103TIP3    H142800   6.065   5.339   0.791 -0.3662 -1.0069  0.8135
 7103TIP3    H242801   6.126   5.208   0.838  1.3407 -0.4376  0.2436
 7104TIP3   OH242802   5.618   0.545  15.582 -0.2967  0.0339  0.1782
 7104TIP3    H142803   5.530   0.534  15.617 -0.7590  0.0449 -0.9212
 7104TIP3    H242804   5.607   0.541  15.487  0.5317  2.4072 -0.0935
 7105TIP3   OH242805   1.011   3.955  15.377 -0.1553 -0.0821 -0.2666
 7105TIP3    H142806   1.012   4.044  15.412  0.4082  0.6513 -2.0519
 7105TIP3    H242807   1.095   3.918  15.404 -0.9627 -0.6302  1.7001
 7106TIP3   OH242808   3.926   1.520   0.832  0.2389 -0.3523 -0.4996
 7106TIP3    H142809   3.929   1.538   0.738 -1.1346  0.7606 -0.3565
 7106TIP3    H242810   3.838   1.544   0.859  0.6636 -0.4625  1.1299
 7107TIP3   OH242811   2.067   5.300  13.107 -0.1475 -0.1002  0.1725
 7107TIP3    H142812   2.089   5.208  13.091  0.8761  0.1457  0.1345
 7107TIP3    H242813   2.144   5.349  13.078  0.6579  0.5700  3.1124
 7108TIP3   OH242814   6.711   2.953  16.056  0.0970  0.3507  0.2002
 7108TIP3    H142815   6.680   3.027  16.003  0.1519 -0.5653 -1.1366
 7108TIP3    H242816   6.735   2.886  15.993 -1.8402 -1.6198  1.4030
 7109TIP3   OH242817   6.443   0.568  12.943  0.0643 -0.2346 -0.1027
 7109TIP3    H142818   6.482   0.545  12.859 -0.9630 -1.2863 -0.3299
 7109TIP3    H242819   6.371   0.627  12.921  0.3872  0.2448  0.1288
 7110TIP3   OH242820   4.752   5.147  11.534  0.4000  0.3377 -0.6059
 7110TIP3    H142821   4.757   5.228  11.585  1.0618  1.0176 -1.7324
 7110TIP3    H242822   4.729   5.080  11.599  0.2961  1.3369  0.4221
 7111TIP3   OH242823   4.810   5.607  14.177  0.3881 -0.0338 -0.3168
 7111TIP3    H142824   4.767   5.532  14.219 -0.1669 -0.0732 -0.9455
 7111TIP3    H242825   4.874   5.568  14.118  1.6856  0.0288  0.9935
 7112TIP3   OH242826   1.847   6.128   4.107 -0.0147 -0.4951  0.0249
 7112TIP3    H142827   1.834   6.159   4.197 -1.8998 -0.1710 -0.3007
 7112TIP3    H242828   1.899   6.196   4.065 -1.1189  0.5356  0.2715
 7113TIP3   OH242829   3.394   4.181  16.983  0.1251 -0.4562  0.2340
 7113TIP3    H142830   3.402   4.169  16.889  1.1745  1.7479 -0.0266
 7113TIP3    H242831   3.419   4.097  17.021  2.7267 -0.5396 -1.4015
 7114TIP3   OH242832   4.964   4.294  14.927  0.0646 -0.1034 -0.1229
 7114TIP3    H142833   5.049   4.271  14.964  0.9000 -0.1855 -1.9980
 7114TIP3    H242834   4.928   4.211  14.896  0.5495  0.2564 -1.7643
 7115TIP3   OH242835   2.629   0.711  11.540 -0.0494 -0.3319  0.3039
 7115TIP3    H142836   2.545   0.736  11.500  0.4022 -1.2159 -1.3030
 7115TIP3    H242837   2.671   0.793  11.562 -0.5595  0.1864 -0.5964
 7116TIP3   OH242838   4.322   0.496  14.699  0.2838 -0.0666 -0.0627
 7116TIP3    H142839   4.353   0.580  14.734  0.9786 -0.4761  0.3007
 7116TIP3    H242840   4.287   0.450  14.775  0.3762 -0.3244 -0.1776
 7117TIP3   OH242841   1.925   0.149  13.416  0.4791 -0.1616  0.1203
 7117TIP3    H142842   2.001   0.092  13.432  1.7234  1.8151  1.8878
 7117TIP3    H242843   1.872   0.141  13.496  0.0591  0.2615 -0.1140
 7118TIP3   OH242844   4.728   4.770  10.662  0.2021 -0.1056  0.1914
 7118TIP3    H142845   4.643   4.779  10.620  0.2821  0.7446  0.1993
 7118TIP3    H242846   4.755   4.860  10.682  1.5656 -0.2817 -0.7458
 7119TIP3   OH242847   5.810   6.136   6.085  0.0805 -0.5331 -0.2388
 7119TIP3    H142848   5.888   6.112   6.135  2.2695  2.1581 -2.0876
 7119TIP3    H242849   5.739   6.132   6.149  2.1915 -0.2663  2.3160
 7120TIP3   OH242850   6.420   3.962  13.574  0.0104  0.7516  0.0893
 7120TIP3    H142851   6.384   3.997  13.492 -2.6269  2.4981  1.8238
 7120TIP3    H242852   6.388   3.872  13.578  0.5516  0.4927 -0.9690
 7121TIP3   OH242853   4.750   2.532   2.669  0.3278 -0.3385  0.8070
 7121TIP3    H142854   4.827   2.552   2.615 -0.9512 -1.9153 -1.8007
 7121TIP3    H242855   4.783   2.472   2.736  1.2982 -1.6150 -0.7291
 7122TIP3   OH242856   6.226   3.679   3.015 -0.4236  0.4409  0.5836
 7122TIP3    H142857   6.222   3.589   3.049 -0.7040 -0.4448 -1.6204
 7122TIP3    H242858   6.295   3.677   2.949 -1.7591  1.2814 -0.9243
 7123TIP3   OH242859   6.154   4.863   6.821 -0.2944  0.5779  0.2342
 7123TIP3    H142860   6.132   4.916   6.744  0.8861  0.9997  0.1663
 7123TIP3    H242861   6.244   4.888   6.842 -0.1777 -0.4456  1.0086
 7124TIP3   OH242862   4.198   3.027  15.763  0.1097 -0.3314  0.2958
 7124TIP3    H142863   4.142   3.034  15.840  0.5101 -2.3680  0.8392
 7124TIP3    H242864   4.146   2.977  15.700  0.7884 -1.0403  0.2844
 7125TIP3   OH242865   0.672   1.205  10.912  0.5540  0.1823  0.2461
 7125TIP3    H142866   0.736   1.171  10.850  0.5848 -0.1796  0.4768
 7125TIP3    H242867   0.593   1.154  10.895  0.1717  0.9512 -0.3697
 7126TIP3   OH242868   4.913   3.266  11.461  0.6916 -0.4479 -0.1300
 7126TIP3    H142869   5.005   3.253  11.484  0.6715  0.0937  0.2965
 7126TIP3    H242870   4.908   3.359  11.437  0.1195 -0.2954  0.5513
 7127TIP3   OH242871   1.030   4.201   3.404  0.0769 -0.0367  0.0247
 7127TIP3    H142872   1.050   4.123   3.352  2.1890  1.2589 -1.2363
 7127TIP3    H242873   0.972   4.253   3.348  0.5467  0.3541 -0.0975
 7128TIP3   OH242874   2.053   5.619  11.315 -0.1942  0.4491 -0.2298
 7128TIP3    H142875   2.106   5.583  11.386  1.2760  1.1490 -0.9314
 7128TIP3    H242876   2.066   5.559  11.242  0.2495  1.0106 -0.6263
 7129TIP3   OH242877   3.053   2.941  10.851 -0.1487  0.6372  0.1175
 7129TIP3    H142878   3.047   2.901  10.938 -0.2855 -3.5771 -1.5982
 7129TIP3    H242879   2.962   2.955  10.825 -0.1528  0.7944  0.2178
 7130TIP3   OH242880   2.121   0.139  10.914  0.2960  0.0228  0.1191
 7130TIP3    H142881   2.065   0.116  10.840  0.8190 -1.4397  0.1406
 7130TIP3    H242882   2.107   0.068  10.977  1.0928  0.3827  0.7210
 7131TIP3   OH242883   0.887   6.261   3.594  0.0724  0.2666 -0.4951
 7131TIP3    H142884   0.957   6.324   3.611  0.0897  0.5623 -1.6239
 7131TIP3    H242885   0.912   6.184   3.645 -0.0029  1.1864  0.9953
 7132TIP3   OH242886   2.349   3.314  12.878  0.2810  0.3921  0.2856
 7132TIP3    H142887   2.294   3.250  12.924  0.9029 -1.1698 -1.0149
 7132TIP3    H242888   2.401   3.261  12.818  2.0774  1.9822  0.3468
 7133TIP3   OH242889   0.714   6.631   0.220 -0.1596 -0.0087 -0.3798
 7133TIP3    H142890   0.726   6.539   0.242 -0.7594 -0.1864 -0.7657
 7133TIP3    H242891   0.680   6.631   0.131 -0.4233  0.5679 -0.2884
 7134TIP3   OH242892   6.134   5.123   2.648 -0.3737 -0.1490 -0.1148
 7134TIP3    H142893   6.127   5.120   2.553  0.9804 -0.2964 -0.2261
 7134TIP3    H242894   6.201   5.058   2.669 -0.8621 -0.3251  0.9655
 7135TIP3   OH242895   2.087   3.465  13.207 -0.3064  0.2653  0.3152
 7135TIP3    H142896   2.030   3.389  13.196  0.9007 -0.3371 -2.5849
 7135TIP3    H242897   2.150   3.438  13.274 -0.8407 -0.6653  0.4593
 7136TIP3   OH242898   3.387   4.647  15.685 -0.0112 -0.1707  0.5297
 7136TIP3    H142899   3.340   4.727  15.708  1.8335  1.6034 -1.4008
 7136TIP3    H242900   3.341   4.613  15.609  0.2578  0.0924  0.2454
 7137TIP3   OH242901   6.559   1.657   5.227  1.1100 -0.4824  0.5839
 7137TIP3    H142902   6.468   1.655   5.196  1.3029 -0.4909  0.0089
 7137TIP3    H242903   6.553   1.629   5.319  0.7137 -2.0862  0.1060
 7138TIP3   OH242904   6.519   3.318  12.153 -0.2173 -0.5432 -0.4060
 7138TIP3    H142905   6.477   3.366  12.081  0.5887 -0.4976 -0.8623
 7138TIP3    H242906   6.579   3.258  12.109  1.4134  0.5376  0.2478
 7139TIP3   OH242907   3.093   3.354   3.224 -0.3131  0.0618 -0.0656
 7139TIP3    H142908   3.177   3.351   3.178 -0.6336  0.9494 -0.7337
 7139TIP3    H242909   3.088   3.443   3.258 -0.9194 -0.0358  0.1028
 7140TIP3   OH242910   1.480   3.148  16.521  0.1015  0.8005 -0.7942
 7140TIP3    H142911   1.520   3.222  16.567 -1.1838  0.7330  0.4981
 7140TIP3    H242912   1.469   3.081  16.588 -2.7332  1.0450 -0.8850
 7141TIP3   OH242913   0.430   4.449   1.051  0.2515  0.3774  0.4998
 7141TIP3    H142914   0.339   4.473   1.033 -0.4506 -0.4280  2.6032
 7141TIP3    H242915   0.480   4.491   0.982 -1.6261  1.5839 -0.2148
 7142TIP3   OH242916   1.865   6.021   2.432 -0.5998 -0.4967 -0.3833
 7142TIP3    H142917   1.896   6.111   2.425  0.8448 -1.0640 -2.3284
 7142TIP3    H242918   1.945   5.969   2.437 -1.4025 -1.6305  3.1006
 7143TIP3   OH242919   5.145   2.329   2.473 -0.1281 -0.2535  0.0488
 7143TIP3    H142920   5.236   2.300   2.471 -0.3516 -0.9499 -0.2942
 7143TIP3    H242921   5.142   2.393   2.545  0.2664 -1.4826  1.1967
 7144TIP3   OH242922   0.309   6.025  12.350 -0.2292  0.6264 -0.4860
 7144TIP3    H142923   0.299   5.974  12.430 -1.4047 -0.0835 -1.0751
 7144TIP3    H242924   0.336   5.961  12.284 -0.7989  0.9199 -1.0119
 7145TIP3   OH242925   6.436   5.968   2.112 -0.0788  0.0825  0.3222
 7145TIP3    H142926   6.504   5.935   2.053  0.8307  0.3942  1.1471
 7145TIP3    H242927   6.354   5.944   2.071  0.5406 -0.6470 -0.5260
 7146TIP3   OH242928   0.284   0.536   6.568  0.1400  0.4847 -0.5555
 7146TIP3    H142929   0.245   0.469   6.624  3.5322 -0.2648  1.2326
 7146TIP3    H242930   0.338   0.587   6.628  1.6887  1.5298 -2.7150
 7147TIP3   OH242931   3.289   2.963  16.067 -0.1322  0.0141  0.1129
 7147TIP3    H142932   3.337   2.916  15.999 -0.6606  0.6296 -0.7046
 7147TIP3    H242933   3.300   3.056  16.045 -1.0988  0.1893  0.3125
 7148TIP3   OH242934   5.913   4.795  16.155  0.4940 -0.6864 -0.2586
 7148TIP3    H142935   6.005   4.820  16.142  1.0391 -2.0985  0.6895
 7148TIP3    H242936   5.898   4.726  16.091 -0.7135  1.2225 -2.1740
 7149TIP3   OH242937   5.411   2.839  10.825 -0.2510  0.0864 -0.2139
 7149TIP3    H142938   5.486   2.788  10.793 -0.2747 -0.3828  0.4675
 7149TIP3    H242939   5.335   2.784  10.805 -0.2904 -0.0823  0.3889
 7150TIP3   OH242940   6.425   5.790   3.295 -0.3972  0.4321 -0.0990
 7150TIP3    H142941   6.444   5.883   3.284 -2.5098  0.7275 -1.9904
 7150TIP3    H242942   6.491   5.745   3.241 -1.0526  1.0350 -1.4544
 7151TIP3   OH242943   1.315   1.120  12.894  0.3786 -0.6370  0.4530
 7151TIP3    H142944   1.248   1.176  12.934 -0.3455 -0.5819 -0.7779
 7151TIP3    H242945   1.372   1.181  12.848  0.0274 -0.8368 -0.2632
 7152TIP3   OH242946   6.027   3.248  15.852 -0.0885 -0.3989 -0.0550
 7152TIP3    H142947   5.989   3.317  15.797  1.0766  0.2533 -0.0634
 7152TIP3    H242948   6.008   3.276  15.941 -1.5529 -1.2130 -0.0765
 7153TIP3   OH242949   1.972   4.144  13.131  0.0083 -0.1237 -0.1253
 7153TIP3    H142950   1.916   4.083  13.178  0.2988  0.3051  0.8042
 7153TIP3    H242951   2.061   4.122  13.161  0.1438  0.5220 -0.0413
 7154TIP3   OH242952   0.398   0.047   2.138 -0.0655  0.5012 -0.0623
 7154TIP3    H142953   0.380  -0.038   2.096  1.3202  0.5242 -0.7692
 7154TIP3    H242954   0.349   0.044   2.220  2.8078 -2.5566  1.8003
 7155TIP3   OH242955   0.772   5.389  11.880 -0.0264  0.2568  0.2843
 7155TIP3    H142956   0.690   5.400  11.927 -0.4934  0.0605 -0.4712
 7155TIP3    H242957   0.787   5.475  11.839  1.1194  0.8901  1.9147
 7156TIP3   OH242958   3.188   0.313   3.406 -0.0355  0.2944 -0.6120
 7156TIP3    H142959   3.171   0.404   3.380  1.1497  0.9267  0.6429
 7156TIP3    H242960   3.284   0.306   3.406 -0.0076 -0.1938  1.6239
 7157TIP3   OH242961   2.931   1.251  10.892  0.6643  0.5346  0.1746
 7157TIP3    H142962   2.902   1.312  10.824 -0.8133 -3.2250 -2.8958
 7157TIP3    H242963   2.854   1.238  10.946  1.6764  3.0559  2.4796
 7158TIP3   OH242964   4.077   1.454  13.237 -0.7882  0.1081  0.4368
 7158TIP3    H142965   4.161   1.484  13.274 -0.4243  0.3557 -0.5438
 7158TIP3    H242966   4.102   1.410  13.156 -1.5269 -0.8358  0.7104
 7159TIP3   OH242967   0.752   2.250   0.942  0.0710 -0.1334 -0.2216
 7159TIP3    H142968   0.745   2.343   0.968 -0.3718 -0.1730 -0.1809
 7159TIP3    H242969   0.844   2.228   0.956  0.4572  0.6462 -1.4386
 7160TIP3   OH242970   3.389   1.440   0.161  0.0298  0.1160 -0.0881
 7160TIP3    H142971   3.346   1.365   0.202  1.8409 -1.9819 -1.7999
 7160TIP3    H242972   3.482   1.428   0.180  0.3046  2.8789  0.9376
 7161TIP3   OH242973   3.974   1.053  12.794 -0.0524 -0.1177 -0.6293
 7161TIP3    H142974   4.044   0.988  12.803 -1.0611 -0.9691  2.2161
 7161TIP3    H242975   3.963   1.064  12.700  3.0694 -0.8233 -1.1746
 7162TIP3   OH242976   3.013   3.518  14.281 -0.1115 -0.0045 -0.6727
 7162TIP3    H142977   2.971   3.588  14.331 -0.0774 -0.1085 -0.4960
 7162TIP3    H242978   2.943   3.457  14.260 -0.0977 -0.0395 -0.6167
 7163TIP3   OH242979   1.040   6.372  11.857 -0.1663  0.4927 -0.1066
 7163TIP3    H142980   1.011   6.283  11.838  0.8360  0.4768 -1.7977
 7163TIP3    H242981   1.005   6.425  11.786  1.2140  1.0083 -0.4452
 7164TIP3   OH242982   6.521   3.051   1.214  0.1494 -0.1659  0.0812
 7164TIP3    H142983   6.492   2.969   1.173  0.0423 -0.3607  0.5336
 7164TIP3    H242984   6.454   3.115   1.191  0.9854  0.1872 -1.5367
 7165TIP3   OH242985   6.660   2.890  15.177  0.0488 -0.3064 -0.2887
 7165TIP3    H142986   6.583   2.946  15.189 -0.1923 -1.0314  2.0386
 7165TIP3    H242987   6.644   2.815  15.235  2.6999 -0.2430  0.6596
 7166TIP3   OH242988   6.382   1.169  11.416  0.0523  0.2801 -0.0634
 7166TIP3    H142989   6.384   1.076  11.396  2.2447  0.6954 -2.2493
 7166TIP3    H242990   6.434   1.178  11.496 -2.0368 -0.5337  1.4781
 7167TIP3   OH242991   1.764   5.984  12.870  0.4010 -0.0660  0.1140
 7167TIP3    H142992   1.680   5.948  12.841  0.5579 -0.6497  0.3876
 7167TIP3    H242993   1.821   5.978  12.794  0.4528 -0.4739  0.1858
 7168TIP3   OH242994   6.569   2.974  14.886 -0.3699  0.2004  0.1562
 7168TIP3    H142995   6.588   3.047  14.945  2.6029 -0.3725  0.0740
 7168TIP3    H242996   6.601   3.003  14.800  1.5261 -1.3459  0.2640
 7169TIP3   OH242997   4.715   5.876  15.737  0.8880  0.5131  0.1915
 7169TIP3    H142998   4.723   5.882  15.642 -1.2450 -0.6016 -0.1116
 7169TIP3    H242999   4.767   5.799  15.761 -1.8208 -1.7785 -0.6939
 7170TIP3   OH243000   0.438   4.757   5.598  0.3542  0.3351  0.2981
 7170TIP3    H143001   0.394   4.793   5.675  1.9981  0.4183  1.2326
 7170TIP3    H243002   0.435   4.662   5.611  2.5644  0.3748  1.6693
 7171TIP3   OH243003   5.542   3.744   6.458 -0.3048  0.0747  0.0228
 7171TIP3    H143004   5.524   3.828   6.414  1.6655  0.5575  0.0488
 7171TIP3    H243005   5.553   3.767   6.550  1.1252 -0.0342 -0.0966
 7172TIP3   OH243006   6.186   5.797  14.177 -0.0200  0.0623  0.1323
 7172TIP3    H143007   6.161   5.786  14.269 -1.6105 -2.2576 -0.4870
 7172TIP3    H243008   6.106   5.828  14.135  0.4640  0.3266 -0.6023
 7173TIP3   OH243009   6.162   4.544   5.134 -0.0997 -0.6183  0.1977
 7173TIP3    H143010   6.104   4.497   5.073 -1.1378 -0.9961  1.4445
 7173TIP3    H243011   6.236   4.485   5.146 -0.7573 -1.3585  0.7051
 7174TIP3   OH243012   0.252   3.731  10.749  0.3503 -0.7605 -0.5217
 7174TIP3    H143013   0.193   3.678  10.694 -2.7707  0.4564  1.4191
 7174TIP3    H243014   0.281   3.670  10.817 -1.1966 -0.6903  0.2523
 7175TIP3   OH243015   5.570   5.976   3.202  0.5147  0.3654 -0.1081
 7175TIP3    H143016   5.527   5.909   3.256 -1.3533  0.8107 -0.9898
 7175TIP3    H243017   5.589   6.047   3.263  0.9222 -0.2350  0.4853
 7176TIP3   OH243018   5.431   1.347  11.997 -0.3261  0.1088  0.1220
 7176TIP3    H143019   5.518   1.342  12.037 -0.4266 -0.1155  0.3168
 7176TIP3    H243020   5.447   1.359  11.904 -0.0821 -0.7790  0.0480
 7177TIP3   OH243021   5.489   3.728  12.727  0.1367 -0.4275 -0.2234
 7177TIP3    H143022   5.559   3.677  12.767  0.8297  0.6992  0.0566
 7177TIP3    H243023   5.533   3.806  12.692 -1.1288  1.0411  1.2477
 7178TIP3   OH243024   5.211   3.913  12.218 -0.2809  0.6878  0.1720
 7178TIP3    H143025   5.229   4.007  12.217 -0.1085  0.6844 -1.5807
 7178TIP3    H243026   5.138   3.903  12.278  1.0966  1.6271  2.1026
 7179TIP3   OH243027   5.084   0.715   5.477 -0.3954 -0.4944 -0.0289
 7179TIP3    H143028   5.055   0.676   5.394 -1.2434  1.0771 -0.5179
 7179TIP3    H243029   5.052   0.655   5.544 -1.1700 -0.9546 -0.7855
 7180TIP3   OH243030   5.103   6.565  12.801 -0.4818  0.2645 -0.3218
 7180TIP3    H143031   5.041   6.637  12.796 -0.2155  0.4134 -2.8104
 7180TIP3    H243032   5.049   6.486  12.810 -0.8804  0.6042  0.2791
 7181TIP3   OH243033   6.450   5.284   5.325 -0.2070 -0.2073  0.7087
 7181TIP3    H143034   6.381   5.241   5.275  1.3085 -1.2019 -0.6440
 7181TIP3    H243035   6.445   5.376   5.300  0.4082 -0.6450 -1.2607
 7182TIP3   OH243036   1.074   1.784  13.117  0.5019  0.4741 -0.0408
 7182TIP3    H143037   1.120   1.843  13.177  0.2555 -1.1510  1.8545
 7182TIP3    H243038   1.139   1.761  13.051  0.7840  2.3263 -0.4643
 7183TIP3   OH243039   6.123   4.016   5.094  0.2795 -0.7059  0.2848
 7183TIP3    H143040   6.060   4.086   5.079  1.7378  0.9112  1.2743
 7183TIP3    H243041   6.101   3.949   5.029 -1.3223  0.5532 -0.5429
 7184TIP3   OH243042   3.258   5.792   1.026 -0.3136  0.6726  0.2009
 7184TIP3    H143043   3.173   5.810   0.985 -1.5227 -1.2440  1.6410
 7184TIP3    H243044   3.239   5.791   1.120  0.6193 -2.5983  0.4706
 7185TIP3   OH243045   5.668   4.871  15.939 -0.0604  0.0690  0.4480
 7185TIP3    H143046   5.647   4.901  16.027 -2.4829 -0.0518 -0.0208
 7185TIP3    H243047   5.724   4.795  15.952  1.8762  1.6310  1.7704
 7186TIP3   OH243048   4.901   2.618  10.784  0.6698 -0.3512 -0.3347
 7186TIP3    H143049   4.882   2.603  10.692  1.3112 -0.0746 -0.5225
 7186TIP3    H243050   4.816   2.617  10.827  0.1954  1.0950 -1.1663
 7187TIP3   OH243051   5.175   3.235  11.496  0.2349 -0.4168  0.0503
 7187TIP3    H143052   5.204   3.326  11.491 -0.5065 -0.2345 -1.4848
 7187TIP3    H243053   5.227   3.190  11.430 -1.5777 -0.4491 -1.4247
 7188TIP3   OH243054   3.941   2.417  15.720 -0.4363 -0.4172  0.1910
 7188TIP3    H143055   3.958   2.324  15.706 -1.4687 -1.0641  2.6844
 7188TIP3    H243056   4.001   2.442  15.790  0.5711  1.1156 -1.1549
 7189TIP3   OH243057   2.722   2.854  11.926 -0.4021  0.3716  0.4814
 7189TIP3    H143058   2.652   2.916  11.903 -0.1375  0.3610 -0.3910
 7189TIP3    H243059   2.802   2.907  11.927 -0.5632  0.6630  2.8085
 7190TIP3   OH243060   5.792   2.188   1.858 -0.5952  0.5378  0.1927
 7190TIP3    H143061   5.879   2.228   1.861  0.0810 -0.9010  2.8452
 7190TIP3    H243062   5.736   2.249   1.906  0.0229 -0.5866  2.5137
 7191TIP3   OH243063   5.343   6.257  11.536  0.3177  0.1958  0.6766
 7191TIP3    H143064   5.332   6.272  11.630 -0.7452 -0.0082  0.5952
 7191TIP3    H243065   5.352   6.163  11.527 -0.6728  0.1076  0.4856
 7192TIP3   OH243066   0.318   2.092   3.412  0.2329 -0.4274  0.0075
 7192TIP3    H143067   0.244   2.153   3.413 -0.6499 -1.4031 -1.3279
 7192TIP3    H243068   0.378   2.129   3.347  0.0925 -0.5451 -0.1892
 7193TIP3   OH243069   4.508   5.349  11.932  0.2940 -0.5528  0.0083
 7193TIP3    H143070   4.601   5.340  11.954  0.6357  1.0253 -0.6658
 7193TIP3    H243071   4.462   5.325  12.013  1.4057  1.7980  1.4452
 7194TIP3   OH243072   2.821   1.200   5.748 -0.3657  0.7841  0.3008
 7194TIP3    H143073   2.869   1.263   5.694 -0.2909  1.1565  0.7945
 7194TIP3    H243074   2.889   1.146   5.787 -0.3762  0.9823  0.5950
 7195TIP3   OH243075   0.320   0.090   4.278 -0.2016  0.3789  0.3093
 7195TIP3    H143076   0.404   0.129   4.304  1.4584 -1.8461 -1.2305
 7195TIP3    H243077   0.256   0.128   4.337  1.2429  4.8433 -0.6526
 7196TIP3   OH243078   1.746   3.696  15.978  0.6835  0.3231  0.2416
 7196TIP3    H143079   1.793   3.625  15.936  0.9483  1.2891 -1.1538
 7196TIP3    H243080   1.782   3.699  16.067  1.8096 -0.2513 -0.1819
 7197TIP3   OH243081   1.072   0.016   3.954  0.5948  0.4225 -0.8906
 7197TIP3    H143082   1.118   0.092   3.989  0.5167  0.1133 -0.1087
 7197TIP3    H243083   1.137  -0.029   3.900  0.2054  1.9106 -2.7413
 7198TIP3   OH243084   2.411   5.248  13.187  0.4129 -0.6365 -0.1478
 7198TIP3    H143085   2.410   5.343  13.178  1.5340 -0.6353 -0.4157
 7198TIP3    H243086   2.499   5.222  13.160  0.3821 -1.6764  0.6708
 7199TIP3   OH243087   5.804   1.869  12.414 -0.6491  0.7020 -0.2846
 7199TIP3    H143088   5.711   1.857  12.395 -0.4634 -0.5403 -0.4364
 7199TIP3    H243089   5.840   1.910  12.335 -0.7884 -0.1580 -0.7948
 7200TIP3   OH243090   6.144   4.824  16.628 -0.1349  0.1000 -0.1138
 7200TIP3    H143091   6.055   4.806  16.656  0.4173 -0.3379  1.4776
 7200TIP3    H243092   6.143   4.916  16.600 -0.5786  0.8468  2.1870
 7201TIP3   OH243093   4.788   6.066  12.996 -0.1580 -0.0554  0.2544
 7201TIP3    H143094   4.859   6.098  13.052 -0.2954 -0.6951  0.8143
 7201TIP3    H243095   4.710   6.110  13.031 -0.4282 -1.3562  1.3663
 7202TIP3   OH243096   4.239   2.853   1.579  0.1834 -0.3996 -0.1504
 7202TIP3    H143097   4.219   2.939   1.616  0.1386 -0.4618 -0.0289
 7202TIP3    H243098   4.316   2.824   1.627  1.2891  0.3442 -1.4197
 7203TIP3   OH243099   3.912   5.247   2.728  0.1292 -0.7097  0.0186
 7203TIP3    H143100   3.901   5.162   2.771  2.8205 -2.1578 -1.8986
 7203TIP3    H243101   3.959   5.300   2.792 -0.5673 -0.9930  0.7977
 7204TIP3   OH243102   6.129   6.429   5.179  0.5866 -0.0615  0.6424
 7204TIP3    H143103   6.094   6.431   5.268 -0.2784  0.0887  0.3091
 7204TIP3    H243104   6.220   6.459   5.188  0.1288  1.2341  1.3078
 7205TIP3   OH243105   2.695   0.499   0.958  0.0835 -0.0285  0.9604
 7205TIP3    H143106   2.707   0.410   0.926 -0.2403  0.8151 -1.8229
 7205TIP3    H243107   2.621   0.494   1.018 -0.5590 -1.4968  0.0811
 7206TIP3   OH243108   1.979   5.308  12.772 -0.0409  0.5747 -0.1881
 7206TIP3    H143109   1.943   5.304  12.861  2.2477  1.7164  0.8696
 7206TIP3    H243110   2.014   5.220  12.756 -1.5784 -0.0074 -0.5099
 7207TIP3   OH243111   4.403   4.137  13.635 -0.1805  0.1802 -0.2571
 7207TIP3    H143112   4.349   4.070  13.592  1.8446 -0.9719 -1.1638
 7207TIP3    H243113   4.343   4.181  13.695 -2.1756 -0.8328 -1.3886
 7208TIP3   OH243114   4.899   6.461  11.225  0.2464  0.0225  0.4098
 7208TIP3    H143115   4.810   6.448  11.255 -0.0892  1.7059  0.2491
 7208TIP3    H243116   4.896   6.441  11.131 -0.0368  0.3902  0.3409
 7209TIP3   OH243117   0.177   4.116   2.248 -0.4051  0.2160 -0.0631
 7209TIP3    H143118   0.158   4.143   2.337 -1.4893  0.1359 -0.2558
 7209TIP3    H243119   0.164   4.194   2.195 -1.0948 -0.0653 -0.3142
 7210TIP3   OH243120   3.602   4.842  16.608 -0.2468  0.4739  0.0422
 7210TIP3    H143121   3.605   4.938  16.605 -1.3753  0.4988 -1.1778
 7210TIP3    H243122   3.519   4.823  16.652  0.3706  0.0413  1.0385
 7211TIP3   OH243123   3.135   1.535   6.238 -0.2721 -0.2603 -0.1993
 7211TIP3    H143124   3.101   1.597   6.174  0.9666  0.3212 -0.3234
 7211TIP3    H243125   3.079   1.547   6.315  1.5839  3.1109  0.8302
 7212TIP3   OH243126   6.255   1.190   3.111  0.3408  0.3212 -0.4273
 7212TIP3    H143127   6.222   1.190   3.021  1.0030  0.3656 -0.6789
 7212TIP3    H243128   6.215   1.113   3.151  1.2253 -0.5887 -1.2205
 7213TIP3   OH243129   4.968   3.093   3.805  0.4205  0.4284 -0.1841
 7213TIP3    H143130   4.897   3.127   3.750  0.8224  0.8130 -0.4714
 7213TIP3    H243131   4.923   3.048   3.877 -0.1435 -1.1928 -1.4629
 7214TIP3   OH243132   5.640   5.096   2.900 -0.0016 -0.1285  0.6839
 7214TIP3    H143133   5.720   5.096   2.847 -1.3491 -0.5304 -1.5008
 7214TIP3    H243134   5.645   5.016   2.951  1.8168  0.7609  2.0256
 7215TIP3   OH243135   1.071   1.095   4.552  0.5427  0.8313 -0.0467
 7215TIP3    H143136   1.088   1.115   4.644 -0.1137  0.3357  0.1941
 7215TIP3    H243137   1.055   1.180   4.511 -0.1594  0.9820  0.5156
 7216TIP3   OH243138   0.459   5.543   6.913 -0.3166  0.1794  0.0893
 7216TIP3    H143139   0.452   5.622   6.967 -0.8661  1.4217 -1.7102
 7216TIP3    H243140   0.389   5.552   6.849 -1.7914 -2.8467  1.0729
 7217TIP3   OH243141   5.902   3.740   4.715  0.3194 -0.1682  0.3135
 7217TIP3    H143142   5.891   3.810   4.652  2.7001  0.8105  0.8854
 7217TIP3    H243143   5.817   3.734   4.759 -0.1497  1.9120 -0.1962
 7218TIP3   OH243144   4.337   2.558  12.371  0.0966 -0.3917 -0.0668
 7218TIP3    H143145   4.325   2.494  12.442  0.6558 -0.0978  0.2986
 7218TIP3    H243146   4.406   2.520  12.317 -0.3311 -0.6160 -0.4619
 7219TIP3   OH243147   4.139   1.348  11.455 -0.0227 -0.0236 -0.2673
 7219TIP3    H143148   4.167   1.301  11.533 -0.5180  0.3705  0.1577
 7219TIP3    H243149   4.220   1.382  11.417  0.1546  0.5336  0.5721
 7220TIP3   OH243150   5.565   4.519  15.566 -0.0752  0.0457  0.8647
 7220TIP3    H143151   5.572   4.610  15.594  0.2991 -0.5772  2.9788
 7220TIP3    H243152   5.512   4.477  15.634  0.6337 -1.5354  0.4786
 7221TIP3   OH243153   0.556   1.911   1.553  0.4208 -0.5396  0.0205
 7221TIP3    H143154   0.505   1.927   1.474 -2.2379 -2.4260  1.1958
 7221TIP3    H243155   0.528   1.980   1.614  0.1300 -0.8790  0.2782
 7222TIP3   OH243156   6.178   0.850   4.293 -0.7060  0.1056  0.0791
 7222TIP3    H143157   6.256   0.878   4.340 -1.3119  0.2168  1.0401
 7222TIP3    H243158   6.155   0.766   4.331  0.3319 -1.1455 -1.8805
 7223TIP3   OH243159   5.239   1.822   0.979  0.1264 -0.6101  0.3296
 7223TIP3    H143160   5.324   1.863   0.970  0.2870 -0.9767  0.1524
 7223TIP3    H243161   5.176   1.894   0.976  0.2410 -0.5397 -2.4546
 7224TIP3   OH243162   6.537   0.849  16.446  0.1214 -0.7713  0.5732
 7224TIP3    H143163   6.464   0.909  16.429 -0.7888 -1.9061  0.3426
 7224TIP3    H243164   6.603   0.903  16.489 -0.6042  0.4287  0.2273
 7225TIP3   OH243165   6.760   5.689   0.383 -0.6904  0.0781  0.4931
 7225TIP3    H143166   6.791   5.654   0.299 -0.8355 -0.7185  0.7625
 7225TIP3    H243167   6.747   5.612   0.438 -0.1032  0.6240  1.4256
 7226TIP3   OH243168   5.354   3.492  16.850  0.4617  0.3302  0.3331
 7226TIP3    H143169   5.260   3.483  16.840  0.5533  0.7275 -1.2492
 7226TIP3    H243170   5.391   3.438  16.781  1.4115 -0.0110  1.0851
 7227TIP3   OH243171   3.457   2.941   5.584  0.0622 -0.0069  0.1661
 7227TIP3    H143172   3.542   2.978   5.606  0.0909 -0.2572  0.4756
 7227TIP3    H243173   3.468   2.846   5.593  0.1087 -0.1308 -1.0279
 7228TIP3   OH243174   6.242   6.113   3.837  0.1288 -0.6290  0.1149
 7228TIP3    H143175   6.242   6.090   3.744 -0.6907 -2.0097  0.4412
 7228TIP3    H243176   6.192   6.044   3.879 -0.2110  0.4210  1.4909
 7229TIP3   OH243177   3.585   2.761   2.084  0.5394 -0.0805 -0.1315
 7229TIP3    H143178   3.560   2.695   2.019 -1.0159 -0.5522  0.9000
 7229TIP3    H243179   3.600   2.711   2.164  1.2337  0.6334  0.1975
 7230TIP3   OH243180   1.138   0.839   2.452 -0.6553  0.0434  0.2385
 7230TIP3    H143181   1.219   0.830   2.503  0.5162  1.5561 -1.2492
 7230TIP3    H243182   1.072   0.864   2.517  0.6992  1.5226  1.1231
 7231TIP3   OH243183   2.790   0.960  14.412  0.3636 -0.4108 -0.0481
 7231TIP3    H143184   2.772   0.908  14.490  1.4517  0.7781  1.0452
 7231TIP3    H243185   2.792   0.897  14.340 -0.4355 -1.5607  0.9106
 7232TIP3   OH243186   1.566   1.697   6.588  0.2471 -0.4685 -0.2627
 7232TIP3    H143187   1.533   1.622   6.539  1.0165 -0.4425 -0.8315
 7232TIP3    H243188   1.629   1.661   6.650  2.8754 -0.0563 -2.5207
 7233TIP3   OH243189   0.448   3.528  11.476  0.2317  0.0115 -0.3307
 7233TIP3    H143190   0.429   3.603  11.419  0.2664  0.4085  0.1662
 7233TIP3    H243191   0.388   3.460  11.448  0.7355 -0.0501 -1.3250
 7234TIP3   OH243192   1.104   3.126   2.185 -0.0662 -0.6016 -0.6801
 7234TIP3    H143193   1.138   3.042   2.218  0.5771 -0.3315 -0.6475
 7234TIP3    H243194   1.020   3.136   2.230  0.3714 -0.6889  0.1779
 7235TIP3   OH243195   3.039   0.072  13.993 -0.3774  0.1682  0.5808
 7235TIP3    H143196   2.965   0.068  14.054  0.5388  1.7485  1.8887
 7235TIP3    H243197   3.109   0.113  14.044  1.3403 -1.0776 -0.6944
 7236TIP3   OH243198   2.955   3.461  16.465  0.3436  0.4379 -0.2299
 7236TIP3    H143199   2.954   3.398  16.393 -1.7254  0.7364 -0.5079
 7236TIP3    H243200   3.012   3.532  16.434 -2.4915  1.8440 -2.8085
 7237TIP3   OH243201   5.793   0.835   2.151  0.1135  0.1786 -0.0374
 7237TIP3    H143202   5.815   0.755   2.103  0.1771  1.8716 -3.0796
 7237TIP3    H243203   5.830   0.906   2.098 -2.4891  2.4221  0.9080
 7238TIP3   OH243204   3.656   1.915   3.614  0.2751  0.4530 -0.3639
 7238TIP3    H143205   3.631   1.998   3.575  0.8803  0.6361 -0.3758
 7238TIP3    H243206   3.719   1.938   3.683 -1.9029  0.2818  1.8197
 7239TIP3   OH243207   3.720   3.042   3.913 -0.5685 -0.3417  0.2414
 7239TIP3    H143208   3.682   3.061   3.827 -2.1122 -1.0226  0.7228
 7239TIP3    H243209   3.658   3.081   3.975  1.2018  1.3256  1.0734
 7240TIP3   OH243210   0.216   2.661   1.352  0.0553 -0.2910 -0.0253
 7240TIP3    H143211   0.187   2.700   1.270  0.7519 -0.3034 -0.2817
 7240TIP3    H243212   0.235   2.735   1.409  0.3403 -0.2700 -0.1471
 7241TIP3   OH243213   1.900   1.068   6.609  0.4852 -0.2334 -0.1476
 7241TIP3    H143214   1.822   1.067   6.553  1.4054  1.3542 -1.5070
 7241TIP3    H243215   1.946   1.148   6.586  1.1379  0.2830  2.6083
 7242TIP3   OH243216   6.286   2.285   2.257 -0.3347 -0.1780 -0.3872
 7242TIP3    H143217   6.264   2.208   2.309 -1.4638 -0.6727 -1.5265
 7242TIP3    H243218   6.362   2.323   2.300  0.0333 -1.7370  0.3940
 7243TIP3   OH243219   0.293   0.744  17.144  0.0045 -0.1713 -0.8008
 7243TIP3    H143220   0.346   0.820  17.121 -0.1368 -0.5702 -2.5725
 7243TIP3    H243221   0.356   0.674  17.161  0.1113  0.1532  0.2500
 7244TIP3   OH243222   4.648   1.965  13.986 -0.6401 -0.1233  0.4258
 7244TIP3    H143223   4.647   1.919  13.902  1.7046 -0.5463  0.5654
 7244TIP3    H243224   4.659   2.058  13.963 -0.8279 -0.1456  0.2479
 7245TIP3   OH243225   4.566   4.612  11.040  0.6300  0.6334 -0.2594
 7245TIP3    H143226   4.537   4.686  10.986 -2.6233  0.0524  0.4646
 7245TIP3    H243227   4.538   4.535  10.991 -1.8305  0.0838  1.7823
 7246TIP3   OH243228   1.222   4.701   4.313  0.2344 -0.9848 -0.0511
 7246TIP3    H143229   1.263   4.783   4.342 -1.1061 -0.1993 -0.2476
 7246TIP3    H243230   1.286   4.661   4.254  0.6472  0.2877 -0.5072
 7247TIP3   OH243231   6.396   5.638   3.539 -0.2902  0.0228 -0.2649
 7247TIP3    H143232   6.416   5.717   3.488  1.8405 -0.4029 -0.1593
 7247TIP3    H243233   6.371   5.573   3.473  1.5105 -0.2393 -0.7487
 7248TIP3   OH243234   6.324   4.491   4.047  0.8050 -0.2002 -0.2940
 7248TIP3    H143235   6.359   4.484   3.957  0.6708 -0.5895 -0.3174
 7248TIP3    H243236   6.264   4.417   4.055  0.3770  0.1678 -0.0736
 7249TIP3   OH243237   0.232   3.627  11.067  0.1520 -0.1277  0.3905
 7249TIP3    H143238   0.198   3.678  11.140 -0.0946  0.8662 -0.4040
 7249TIP3    H243239   0.319   3.664  11.049 -0.6365  1.0887 -1.1713
 7250TIP3   OH243240   0.657   6.560  17.168 -1.1172  0.4253  0.5491
 7250TIP3    H143241   0.744   6.564  17.129 -0.3867 -0.0545  2.0551
 7250TIP3    H243242   0.613   6.639  17.137  0.3713  1.4378  0.9151
 7251TIP3   OH243243   4.923   0.644  17.061  0.7531  0.1734 -0.1399
 7251TIP3    H143244   4.967   0.560  17.051  1.0940  0.1729  1.1477
 7251TIP3    H243245   4.944   0.692  16.981  1.3028 -0.6240 -0.4899
 7252TIP3   OH243246   4.520   2.369   4.269  0.5327  0.2064  0.4249
 7252TIP3    H143247   4.496   2.460   4.253 -0.3078 -0.1621 -0.5079
 7252TIP3    H243248   4.440   2.327   4.301  0.5837 -0.4703 -0.3011
 7253TIP3   OH243249   0.039   1.974  15.464 -0.4831  0.3279 -0.2484
 7253TIP3    H143250   0.099   2.000  15.394 -0.3408 -0.2915 -0.3602
 7253TIP3    H243251  -0.005   1.896  15.430  1.7297 -1.8236  1.4957
 7254TIP3   OH243252   1.528   5.625   5.299  0.2053  0.2788  0.0912
 7254TIP3    H143253   1.578   5.573   5.236 -1.4072 -1.3015  0.0291
 7254TIP3    H243254   1.458   5.664   5.246 -0.3959  0.0017  0.6799
 7255TIP3   OH243255   0.372   0.421  12.257  0.5652  0.4407  0.2323
 7255TIP3    H143256   0.298   0.371  12.291  1.0089 -0.3191  0.1121
 7255TIP3    H243257   0.432   0.355  12.223  1.6957  0.9697  1.0991
 7256TIP3   OH243258   1.432   4.356   1.894  0.9285  0.0473  0.4426
 7256TIP3    H143259   1.369   4.286   1.913 -0.6309  1.0128 -0.9240
 7256TIP3    H243260   1.446   4.399   1.979 -1.8871  1.0707  0.4974
 7257TIP3   OH243261   6.733   6.321   4.861  0.1941  0.3700 -0.0314
 7257TIP3    H143262   6.783   6.262   4.804  2.7152  1.1420  1.2074
 7257TIP3    H243263   6.752   6.290   4.949 -1.6159  0.7059  0.5020
 7258TIP3   OH243264   5.755   3.508   3.063  0.0773  0.4427 -0.4389
 7258TIP3    H143265   5.720   3.495   2.974 -0.2251 -1.2081 -0.0954
 7258TIP3    H243266   5.802   3.592   3.057 -1.4361  1.2718 -1.6904
 7259TIP3   OH243267   2.392   2.752  16.167  0.1293 -0.1548 -0.1355
 7259TIP3    H143268   2.465   2.775  16.109  0.8866 -0.4568  0.6803
 7259TIP3    H243269   2.379   2.829  16.222 -0.7727  0.2362 -0.8618
 7260TIP3   OH243270   5.013   6.640  16.569  0.0635  0.0797 -0.1186
 7260TIP3    H143271   5.101   6.603  16.579 -0.7121 -1.5547  1.3723
 7260TIP3    H243272   4.967   6.577  16.513 -0.7381 -0.2634  0.8896
 7261TIP3   OH243273   2.752   5.241   4.912  0.2552  0.5429 -0.0534
 7261TIP3    H143274   2.710   5.180   4.974 -0.6496  1.4018  0.2026
 7261TIP3    H243275   2.767   5.188   4.834 -0.1672 -0.1129  0.2977
 7262TIP3   OH243276   4.197   1.718   5.422 -0.1333  0.3867  0.0679
 7262TIP3    H143277   4.293   1.710   5.417 -0.0532 -0.7521  2.0518
 7262TIP3    H243278   4.181   1.810   5.440  0.7176  0.3836  0.9599
 7263TIP3   OH243279   5.589   0.926  10.805 -0.0347  0.2615 -0.0757
 7263TIP3    H143280   5.606   0.835  10.827  3.3409  0.4126 -1.5457
 7263TIP3    H243281   5.595   0.930  10.710  0.7646  2.1255  0.0041
 7264TIP3   OH243282   4.243   5.581  11.498 -0.2118  0.7478 -0.2136
 7264TIP3    H143283   4.306   5.509  11.505 -0.7139  0.3604  0.3935
 7264TIP3    H243284   4.281   5.651  11.550 -1.4021 -0.3143  2.2193
 7265TIP3   OH243285   0.743   6.562   3.421  0.1815  0.2614 -0.2180
 7265TIP3    H143286   0.665   6.589   3.470  0.3031  0.2951 -0.0398
 7265TIP3    H243287   0.709   6.527   3.339 -0.1328 -1.1809  0.4952
 7266TIP3   OH243288   2.388   2.787  15.516 -0.2700  0.2817 -0.2965
 7266TIP3    H143289   2.463   2.832  15.477  1.4143 -1.9028  0.2122
 7266TIP3    H243290   2.379   2.707  15.465 -1.0304 -0.3970  0.8559
 7267TIP3   OH243291   5.853   3.396   2.705  0.4651 -0.2189  0.5114
 7267TIP3    H143292   5.812   3.427   2.625  0.7499 -0.5276  0.2428
 7267TIP3    H243293   5.879   3.305   2.686  0.6088 -0.2688  0.9197
 7268TIP3   OH243294   5.668   0.713   0.661 -0.4392  0.0605 -0.3193
 7268TIP3    H143295   5.740   0.774   0.646 -0.8948  0.1359 -2.5036
 7268TIP3    H243296   5.590   0.759   0.632 -1.4302 -0.0424  1.9649
 7269TIP3   OH243297   0.430   5.771  12.566 -0.3796 -0.6673  0.6280
 7269TIP3    H143298   0.465   5.717  12.495  1.7740 -0.1416  1.2084
 7269TIP3    H243299   0.336   5.751  12.568 -0.4743 -0.8509 -2.1939
 7270TIP3   OH243300   1.436   2.263  13.305  0.8247  0.2702  0.5780
 7270TIP3    H143301   1.439   2.357  13.289  3.2862  0.5668  2.1605
 7270TIP3    H243302   1.349   2.236  13.275  0.2343  2.9315 -0.3881
 7271TIP3   OH243303   6.480   4.661  15.451 -0.1125  0.0898 -0.3802
 7271TIP3    H143304   6.529   4.663  15.369 -1.6599 -1.1630 -1.3722
 7271TIP3    H243305   6.452   4.570  15.461 -1.2883  0.5434  0.7306
 7272TIP3   OH243306   5.335   2.725  15.669 -0.3034  1.0259  0.7916
 7272TIP3    H143307   5.393   2.798  15.691 -0.8143  1.4445  0.7646
 7272TIP3    H243308   5.379   2.648  15.704 -0.4289  1.5159  2.0520
 7273TIP3   OH243309   0.321   1.104  14.988 -0.3190 -0.0601 -0.2196
 7273TIP3    H143310   0.250   1.124  15.049  0.9796  1.4747  0.8804
 7273TIP3    H243311   0.307   1.163  14.914 -0.6330 -0.3356 -0.3826
 7274TIP3   OH243312   6.693   5.115  15.099 -0.1645  0.1058  0.1138
 7274TIP3    H143313   6.690   5.144  15.191  1.3349  0.0986  0.1969
 7274TIP3    H243314   6.776   5.067  15.093 -0.3915 -0.1364 -1.1845
 7275TIP3   OH243315   6.816   2.552  16.432 -0.2727  0.6754  0.1822
 7275TIP3    H143316   6.756   2.478  16.426 -2.0506  1.9694  0.9142
 7275TIP3    H243317   6.841   2.556  16.524 -1.4053  1.8289  0.4753
 7276TIP3   OH243318   5.240   4.585  11.578  0.3225 -0.6395  0.9703
 7276TIP3    H143319   5.251   4.624  11.665  0.2708  0.0052  0.6961
 7276TIP3    H243320   5.146   4.567  11.571  0.2206 -0.0625  0.7926
 7277TIP3   OH243321   2.466   5.299  11.508 -0.4953 -0.7400  0.4245
 7277TIP3    H143322   2.449   5.307  11.414  0.5941 -1.7687  0.1147
 7277TIP3    H243323   2.480   5.389  11.538 -0.9061 -0.3974 -0.3861
 7278TIP3   OH243324   0.256   2.175  14.439 -0.4969 -0.3000 -0.6059
 7278TIP3    H143325   0.206   2.115  14.384 -1.1350 -2.7693  2.3832
 7278TIP3    H243326   0.327   2.206  14.383 -1.0717 -2.6052 -2.7746
 7279TIP3   OH243327   1.521   4.890  14.702  0.1073 -0.2434  0.5212
 7279TIP3    H143328   1.568   4.913  14.622  0.3096  0.1175  0.7420
 7279TIP3    H243329   1.438   4.855  14.672  0.0254  0.2570  0.1640
 7280TIP3   OH243330   4.759   4.927   4.559 -0.5492 -0.1396 -0.7488
 7280TIP3    H143331   4.708   4.891   4.487 -0.0964  1.1621 -1.7555
 7280TIP3    H243332   4.823   4.985   4.517  1.0396 -0.8683  0.5545
 7281TIP3   OH243333   4.679   1.658   4.817  0.0926  0.4117 -0.4135
 7281TIP3    H143334   4.653   1.578   4.863  1.9523 -0.5490 -0.9392
 7281TIP3    H243335   4.712   1.627   4.732  0.3540  1.7978 -0.8424
 7282TIP3   OH243336   1.343   5.026  16.965  0.4376 -0.2215 -0.2075
 7282TIP3    H143337   1.392   4.964  17.019 -2.3337 -1.9826  0.4772
 7282TIP3    H243338   1.355   4.994  16.875 -0.1518 -1.1618  0.0394
 7283TIP3   OH243339   1.186   5.081   5.865  0.0148 -0.1672 -0.1463
 7283TIP3    H143340   1.200   5.109   5.956 -0.4305 -0.5524  0.0399
 7283TIP3    H243341   1.274   5.080   5.827  0.5102 -2.1635  0.9073
 7284TIP3   OH243342   1.438   3.028   6.158 -0.5769  0.1263 -0.0235
 7284TIP3    H143343   1.495   3.034   6.082 -1.3516  2.5960 -0.4989
 7284TIP3    H243344   1.433   2.934   6.177  2.7929 -0.2769 -0.5367
 7285TIP3   OH243345   5.685   1.289   3.713 -0.1945 -0.0708 -0.1651
 7285TIP3    H143346   5.737   1.211   3.732  0.7993  0.8199  0.9780
 7285TIP3    H243347   5.744   1.345   3.662 -0.4456  0.4495  0.1060
 7286TIP3   OH243348   5.295   0.832  15.424  0.1096  0.1882 -0.1723
 7286TIP3    H143349   5.205   0.838  15.455 -0.1299 -2.8040 -0.0045
 7286TIP3    H243350   5.290   0.854  15.330 -1.0902 -1.3673 -0.5081
 7287TIP3   OH243351   4.021   5.102  15.854 -0.1785  0.0482 -0.1968
 7287TIP3    H143352   4.092   5.164  15.835 -0.9803  0.8884 -0.4974
 7287TIP3    H243353   3.954   5.154  15.897  0.3043 -1.2047  2.2664
 7288TIP3   OH243354   5.705   1.559   5.030  0.2905  0.5780 -0.0816
 7288TIP3    H143355   5.632   1.621   5.028  1.4387  1.9601 -0.3351
 7288TIP3    H243356   5.684   1.501   5.103 -1.8765 -0.1162 -1.1631
 7289TIP3   OH243357   6.353   6.342  15.412 -0.2973 -0.5163  0.9928
 7289TIP3    H143358   6.319   6.424  15.448  0.7525 -0.5726  2.1680
 7289TIP3    H243359   6.309   6.274  15.464  0.2484 -0.6349  1.3060
 7290TIP3   OH243360   0.800   5.727  13.772 -0.2205  0.3654 -0.4735
 7290TIP3    H143361   0.758   5.694  13.852 -0.5145  0.7363 -0.4744
 7290TIP3    H243362   0.756   5.681  13.701  1.6742 -1.8193 -0.3457
 7291TIP3   OH243363   3.296   6.155  14.308 -0.0920  0.5685  0.1525
 7291TIP3    H143364   3.289   6.107  14.225  0.6024 -1.1914  1.0698
 7291TIP3    H243365   3.235   6.229  14.298 -2.3367 -1.3007 -0.7744
 7292TIP3   OH243366   3.094   2.652   5.837 -0.4104  0.4545  0.2717
 7292TIP3    H143367   3.062   2.730   5.793 -0.5124  0.3623  0.1813
 7292TIP3    H243368   3.025   2.629   5.899 -0.5458  0.2242  0.0380
 7293TIP3   OH243369   4.093   6.293  15.437 -0.4161  0.5357 -0.1250
 7293TIP3    H143370   4.139   6.270  15.518 -0.7753 -0.0852 -0.0951
 7293TIP3    H243371   4.001   6.291  15.461 -0.4845  1.5107 -0.2550
 7294TIP3   OH243372   1.832   3.383   1.895 -0.1781  0.0392 -0.0986
 7294TIP3    H143373   1.786   3.312   1.850  0.3542 -0.2224 -0.2370
 7294TIP3    H243374   1.762   3.439   1.930 -0.6752 -1.8969  2.2508
 7295TIP3   OH243375   3.915   0.136   2.164  0.1459  0.1263 -0.1761
 7295TIP3    H143376   3.931   0.088   2.083  0.7795 -1.2223  0.7198
 7295TIP3    H243377   3.872   0.217   2.136 -2.5690 -1.6769 -1.5957
 7296TIP3   OH243378   2.947   0.679   5.773 -0.2006  0.3750 -0.7098
 7296TIP3    H143379   2.957   0.706   5.682 -1.0870 -0.4349 -1.0653
 7296TIP3    H243380   2.872   0.731   5.804  0.9555  1.6812 -0.0036
 7297TIP3   OH243381   4.447   5.553  12.497 -0.6360  0.0118  0.0388
 7297TIP3    H143382   4.480   5.630  12.451  0.3009 -1.3861 -1.8181
 7297TIP3    H243383   4.526   5.506  12.525 -1.1272 -1.0638 -0.3171
 7298TIP3   OH243384   1.355   6.617  13.710  0.0129 -0.2254 -0.2830
 7298TIP3    H143385   1.417   6.644  13.643  1.8888 -0.6745  1.1924
 7298TIP3    H243386   1.350   6.522  13.702 -0.2425 -0.2207 -0.1937
 7299TIP3   OH243387   5.865   2.743   0.596 -0.2062 -0.5374  0.0147
 7299TIP3    H143388   5.791   2.801   0.577 -0.1285 -0.6953 -0.8176
 7299TIP3    H243389   5.864   2.733   0.691 -0.7217  0.1637  0.0897
 7300TIP3   OH243390   0.332   1.703   1.296 -0.2950  0.2343 -0.0100
 7300TIP3    H143391   0.356   1.788   1.331 -0.3000  0.4676 -0.5703
 7300TIP3    H243392   0.295   1.721   1.210  1.7530 -0.5030 -1.1096
 7301TIP3   OH243393   3.247   6.606  10.363 -0.3228  0.1100 -0.6494
 7301TIP3    H143394   3.249   6.701  10.356 -1.0073  0.1004 -1.1201
 7301TIP3    H243395   3.258   6.588  10.456 -2.2638  0.7493 -0.2555
 7302TIP3   OH243396   3.149   4.517   5.914  0.1864  0.5597  0.2144
 7302TIP3    H143397   3.207   4.520   5.990 -1.1811 -0.4825  1.3485
 7302TIP3    H243398   3.184   4.584   5.855  1.8874  0.7007  1.2975
 7303TIP3   OH243399   3.304   1.838   4.261 -0.7383  0.3755 -0.2221
 7303TIP3    H143400   3.363   1.808   4.191  0.1381 -0.8247  0.9720
 7303TIP3    H243401   3.342   1.921   4.291 -0.3161  0.1982 -0.2548
 7304TIP3   OH243402   6.704   5.253   5.945 -0.0981 -0.1936  0.3715
 7304TIP3    H143403   6.745   5.269   6.030 -0.2778 -0.2762  0.4737
 7304TIP3    H243404   6.775   5.218   5.890 -0.0570 -0.4427  0.5812
 7305TIP3   OH243405   3.997   1.078  11.575 -0.3149  0.0619  0.4419
 7305TIP3    H143406   4.092   1.083  11.575 -0.3426  0.7095  0.4949
 7305TIP3    H243407   3.976   1.022  11.500  0.0505  1.6431 -0.9282
 7306TIP3   OH243408   5.367   0.135   3.471  0.4956 -0.2419 -0.0719
 7306TIP3    H143409   5.405   0.217   3.440 -0.4371 -0.1022 -0.9063
 7306TIP3    H243410   5.386   0.133   3.564  0.6944  0.8388 -0.0824
 7307TIP3   OH243411   2.305   3.554  13.022  0.0747 -0.2549  0.3844
 7307TIP3    H143412   2.227   3.534  13.074 -1.1109 -0.1153 -1.2550
 7307TIP3    H243413   2.299   3.496  12.946  0.2899  1.3489 -0.9401
 7308TIP3   OH243414   3.221   6.248   1.170 -0.4278  0.6802 -0.3724
 7308TIP3    H143415   3.307   6.206   1.173 -1.0206 -0.5383 -0.1536
 7308TIP3    H243416   3.239   6.340   1.191  0.6335  0.1475  1.2344
 7309TIP3   OH243417   4.783   2.617  16.367  0.3897  0.1184 -0.1038
 7309TIP3    H143418   4.798   2.614  16.462 -1.1483 -0.6015  0.1422
 7309TIP3    H243419   4.697   2.656  16.358 -0.1866 -1.3139 -1.1252
 7310TIP3   OH243420   1.851   4.114   0.793 -0.3442  0.6879 -0.0553
 7310TIP3    H143421   1.918   4.143   0.730 -0.4311 -1.6053 -1.3132
 7310TIP3    H243422   1.771   4.105   0.741 -0.9425  0.7338  0.8331
 7311TIP3   OH243423   1.156   3.963   3.628 -0.2630 -0.4172 -0.5071
 7311TIP3    H143424   1.080   3.990   3.680  1.5150  1.5536  1.2430
 7311TIP3    H243425   1.120   3.942   3.541 -2.8016  0.1499  0.3379
 7312TIP3   OH243426   2.095   2.146  11.988 -0.2465 -0.5215 -0.3879
 7312TIP3    H143427   2.043   2.067  12.000 -0.6524 -0.3857 -1.1840
 7312TIP3    H243428   2.061   2.208  12.053 -1.0976 -0.4265 -0.9197
 7313TIP3   OH243429   6.841   3.153   3.270  0.0101 -0.1619 -0.6039
 7313TIP3    H143430   6.893   3.102   3.333 -1.6026 -0.6865  0.3544
 7313TIP3    H243431   6.898   3.162   3.194  1.2978 -1.1686  0.1945
 7314TIP3   OH243432   2.114   4.757   0.240  0.1535  0.5854  0.1274
 7314TIP3    H143433   2.131   4.664   0.255 -1.3471  0.5235  1.7614
 7314TIP3    H243434   2.194   4.801   0.270 -0.0433 -0.0425  1.6663
 7315TIP3   OH243435   5.775   4.184  16.242 -0.1194  0.0058  0.4581
 7315TIP3    H143436   5.845   4.249  16.240 -0.6387  0.5566 -1.1993
 7315TIP3    H243437   5.786   4.134  16.161 -0.8780 -0.7353  0.7943
 7316TIP3   OH243438   4.459   1.698  17.043 -0.6341 -0.2095  0.0623
 7316TIP3    H143439   4.486   1.609  17.063 -0.8084  0.1052  1.9424
 7316TIP3    H243440   4.533   1.752  17.070 -1.4228  0.3502  1.2315
 7317TIP3   OH243441   1.186   2.357   0.019  0.0303 -0.0018  0.1986
 7317TIP3    H143442   1.153   2.431   0.070 -1.4622  0.4400 -1.3195
 7317TIP3    H243443   1.184   2.283   0.080 -0.1114  0.8405  1.2399
 7318TIP3   OH243444   0.140   3.755  10.371 -0.5463 -0.5763 -0.6031
 7318TIP3    H143445   0.166   3.693  10.439  0.0141  1.7338  1.4312
 7318TIP3    H243446   0.107   3.701  10.299 -2.0171 -3.1075  1.8313
 7319TIP3   OH243447   4.546   5.891  16.099  0.2424 -0.1367  0.1741
 7319TIP3    H143448   4.576   5.911  16.188  1.1870  0.2690 -0.2223
 7319TIP3    H243449   4.622   5.853  16.055 -0.1932 -0.2758 -0.4872
 7320TIP3   OH243450   0.898   1.475  16.512 -0.2780 -0.2370 -0.5182
 7320TIP3    H143451   0.898   1.383  16.537  1.3508 -0.5928 -1.6534
 7320TIP3    H243452   0.939   1.521  16.585 -1.5696 -0.3005  0.2823
 7321TIP3   OH243453   4.145   0.760   1.181 -0.0277  0.0250  0.3600
 7321TIP3    H143454   4.085   0.696   1.143  0.6843 -0.1664 -0.4665
 7321TIP3    H243455   4.107   0.845   1.160 -1.5611 -0.0806  2.3962
 7322TIP3   OH243456   3.276   1.728  16.809 -0.0578 -0.8217 -0.6015
 7322TIP3    H143457   3.273   1.717  16.714 -0.2552  0.4899 -0.7695
 7322TIP3    H243458   3.256   1.641  16.843 -1.1325 -1.0762 -1.7698
 7323TIP3   OH243459   2.746   0.611   5.513  0.2055 -0.4537  0.1940
 7323TIP3    H143460   2.840   0.593   5.516  0.8111  1.7129 -2.2192
 7323TIP3    H243461   2.717   0.600   5.604  2.1103 -4.0780  0.5682
 7324TIP3   OH243462   4.837   2.555  17.123  0.0600  0.5672 -0.6697
 7324TIP3    H143463   4.854   2.461  17.123 -1.8746  0.1114  1.7792
 7324TIP3    H243464   4.747   2.564  17.092  0.4472  1.7066 -1.5536
 7325TIP3   OH243465   3.532   5.458  14.556  0.1665  0.1304 -0.1771
 7325TIP3    H143466   3.460   5.443  14.495 -1.8105 -0.4883  2.1642
 7325TIP3    H243467   3.492   5.500  14.631  2.5009  0.8035  0.7992
 7326TIP3   OH243468   5.119   3.758  10.265  0.3851  0.4716 -0.2755
 7326TIP3    H143469   5.096   3.670  10.236  1.1575  0.4891 -1.0064
 7326TIP3    H243470   5.036   3.805  10.271  0.1746  0.6189 -3.0684
 7327TIP3   OH243471   2.955   2.670  15.459 -0.0406  0.5212 -1.1443
 7327TIP3    H143472   3.041   2.638  15.431 -1.3134 -1.8740 -2.6537
 7327TIP3    H243473   2.938   2.746  15.404  0.5785  0.2318 -1.7413
 7328TIP3   OH243474   1.242   3.250  14.701 -0.0473 -0.0102  0.1295
 7328TIP3    H143475   1.311   3.201  14.656  2.1331  1.2050  1.9545
 7328TIP3    H243476   1.163   3.196  14.691  0.7129 -0.7210 -3.3860
 7329TIP3   OH243477   5.750   1.588  16.991  0.6189  0.0453 -0.0379
 7329TIP3    H143478   5.743   1.609  17.085 -0.2420  0.1318 -0.1119
 7329TIP3    H243479   5.801   1.660  16.954  3.2019 -1.2597  0.7695
 7330TIP3   OH243480   5.048   1.930  15.098 -0.6454  0.2950 -0.0981
 7330TIP3    H143481   5.003   1.858  15.053  0.6432 -0.3989 -0.3131
 7330TIP3    H243482   5.137   1.898  15.112  0.5526  2.5538 -1.9529
 7331TIP3   OH243483   6.138   6.550   2.075 -0.2349  0.4515  0.2661
 7331TIP3    H143484   6.163   6.460   2.095 -1.6244 -0.4529 -1.6523
 7331TIP3    H243485   6.220   6.599   2.076  1.3248 -1.7306 -2.8418
 7332TIP3   OH243486   5.204   1.858   5.915 -0.0926 -0.1223  0.2505
 7332TIP3    H143487   5.232   1.768   5.932 -0.8509 -0.3274  0.4505
 7332TIP3    H243488   5.204   1.900   6.001 -2.5547 -0.7644  0.6434
 7333TIP3   OH243489   6.141   2.315   2.672 -0.4246  0.0599  0.4022
 7333TIP3    H143490   6.098   2.309   2.758 -0.3240 -1.2229  0.3847
 7333TIP3    H243491   6.072   2.342   2.612 -0.6592  0.2982  0.7779
 7334TIP3   OH243492   0.051   4.450   4.300 -0.4576 -0.0570  0.2451
 7334TIP3    H143493   0.038   4.358   4.276  0.5474 -0.4892  1.2638
 7334TIP3    H243494   0.076   4.447   4.393 -1.3913  1.3289  0.5755
 7335TIP3   OH243495   3.670   6.460   2.406 -0.0370  0.1035  0.1032
 7335TIP3    H143496   3.716   6.380   2.428  0.2989  0.4487  0.6799
 7335TIP3    H243497   3.674   6.464   2.310  0.5972 -0.1837  0.1130
 7336TIP3   OH243498   5.356   5.483   1.295 -0.4038 -0.2931 -0.5044
 7336TIP3    H143499   5.431   5.427   1.317  0.3052  0.3889 -1.1245
 7336TIP3    H243500   5.389   5.572   1.304 -0.8452  0.0137 -1.7274
 7337TIP3   OH243501   1.333   0.369   1.686  0.2073 -0.4297 -0.2194
 7337TIP3    H143502   1.250   0.334   1.715 -1.0819  1.9490 -0.7405
 7337TIP3    H243503   1.398   0.305   1.714 -1.6876 -1.8983  1.0419
 7338TIP3   OH243504   4.332   1.571  13.301  0.3245  0.4177 -0.1554
 7338TIP3    H143505   4.283   1.642  13.259  0.6775  0.7304 -0.0478
 7338TIP3    H243506   4.385   1.534  13.230 -0.9336 -0.7064 -0.5481
 7339TIP3   OH243507   5.339   2.785   4.411  0.9879  0.0888 -0.3491
 7339TIP3    H143508   5.379   2.700   4.394  0.1029 -0.7902  1.6596
 7339TIP3    H243509   5.409   2.837   4.450  0.7815 -0.7536  1.2137
 7340TIP3   OH243510   6.672   0.429   3.597  0.2382 -0.3996 -0.3689
 7340TIP3    H143511   6.616   0.468   3.529  1.3990  2.5382  0.2208
 7340TIP3    H243512   6.740   0.495   3.612  0.1618 -1.0204  3.5011
 7341TIP3   OH243513   5.557   6.536  16.505  0.5448  0.0401  0.0114
 7341TIP3    H143514   5.629   6.473  16.510  0.4007 -0.0500  1.1637
 7341TIP3    H243515   5.507   6.509  16.428  0.4721 -1.2686  0.5005
 7342TIP3   OH243516   5.016   3.690  14.858  0.0707 -0.2021 -0.1122
 7342TIP3    H143517   5.057   3.758  14.804  2.2927 -1.0816  0.3619
 7342TIP3    H243518   5.044   3.711  14.948 -0.0590 -1.1504  0.1574
 7343TIP3   OH243519   6.761   1.164   4.403 -0.0276  0.4343  0.9201
 7343TIP3    H143520   6.679   1.130   4.366  1.4657 -0.2896 -2.0856
 7343TIP3    H243521   6.752   1.259   4.399  0.0658  0.4091 -1.6696
 7344TIP3   OH243522   4.870   3.859  14.349  0.5234  0.0069  0.0264
 7344TIP3    H143523   4.909   3.859  14.261 -0.1744 -0.1784 -0.2867
 7344TIP3    H243524   4.833   3.772  14.359  0.7654 -0.0341  0.5861
 7345TIP3   OH243525   5.982   5.513   1.105  0.5217  0.1316  0.5500
 7345TIP3    H143526   5.971   5.538   1.197 -0.7424 -1.1301  0.7636
 7345TIP3    H243527   6.008   5.421   1.108 -0.5107 -0.2060 -0.3666
 7346TIP3   OH243528   0.292   5.737  11.812  0.3667 -0.5705 -0.3586
 7346TIP3    H143529   0.237   5.795  11.865 -0.2998  0.9064 -2.5573
 7346TIP3    H243530   0.238   5.659  11.798  0.0902 -0.4676  0.1072
 7347TIP3   OH243531   3.666   5.570  12.898 -0.4877  0.2650 -0.2129
 7347TIP3    H143532   3.740   5.602  12.847  0.5256  1.7022  2.0105
 7347TIP3    H243533   3.683   5.477  12.909  0.5694  0.4194 -0.4429
 7348TIP3   OH243534   2.753   3.325   5.083  0.5060  0.5220  0.3764
 7348TIP3    H143535   2.824   3.370   5.128 -0.1241  1.3616  0.5581
 7348TIP3    H243536   2.694   3.395   5.054 -0.5600 -0.1785  0.7757
 7349TIP3   OH243537   6.175   6.812   4.635 -0.0258 -0.1758 -0.1606
 7349TIP3    H143538   6.097   6.759   4.651 -0.1757  0.2080  0.4226
 7349TIP3    H243539   6.191   6.805   4.541 -0.9640  0.0142 -0.3405
 7350TIP3   OH243540   6.301   3.489   1.444 -0.0954 -0.4024 -0.3058
 7350TIP3    H143541   6.288   3.442   1.361  2.0979  0.3102 -1.1181
 7350TIP3    H243542   6.285   3.581   1.423 -0.1484 -0.2790  0.2433
 7351TIP3   OH243543   4.387   5.751   2.729  0.4913 -0.0173  0.1554
 7351TIP3    H143544   4.468   5.722   2.770  0.9902 -1.4748 -1.7102
 7351TIP3    H243545   4.410   5.834   2.686  1.3983 -1.0574 -1.4450
 7352TIP3   OH243546   1.128   5.531  12.289 -0.2591 -0.0376 -0.1231
 7352TIP3    H143547   1.052   5.546  12.232  0.6524  0.1929 -1.3156
 7352TIP3    H243548   1.170   5.453  12.253 -0.9306 -1.3028  1.6642
 7353TIP3   OH243549   1.228   5.309  12.168  0.3038  0.2419  0.2866
 7353TIP3    H143550   1.172   5.233  12.177 -0.3014  0.5523 -0.7026
 7353TIP3    H243551   1.295   5.298  12.236 -0.8298 -0.2253  1.3583
 7354TIP3   OH243552   2.229   2.224   4.079  0.0563 -0.4137  0.5516
 7354TIP3    H143553   2.192   2.310   4.059 -2.3665 -1.5499 -0.2349
 7354TIP3    H243554   2.244   2.184   3.993 -1.9851 -1.9536  0.8289
 7355TIP3   OH243555   5.605   0.573   2.569  0.0918 -0.1244  1.0093
 7355TIP3    H143556   5.623   0.564   2.476  1.5713 -0.4134  1.3003
 7355TIP3    H243557   5.548   0.650   2.575 -0.9843 -0.8069 -0.2197
 7356TIP3   OH243558   2.780   4.124  17.031 -0.2880  0.8081  0.0358
 7356TIP3    H143559   2.704   4.175  17.059 -0.3092  1.0040 -0.3689
 7356TIP3    H243560   2.840   4.189  16.994  0.3860  0.7530  0.9792
 7357TIP3   OH243561   2.310   1.714  11.194  0.6277  0.3766  0.7196
 7357TIP3    H143562   2.262   1.733  11.113  0.8222 -1.9386 -0.0013
 7357TIP3    H243563   2.313   1.798  11.240 -0.7020  1.4453 -1.0172
 7358TIP3   OH243564   5.445   4.619   0.618 -0.0652 -1.0240 -0.1192
 7358TIP3    H143565   5.435   4.524   0.627 -3.0960 -0.7302  0.4723
 7358TIP3    H243566   5.447   4.652   0.708 -1.0341 -0.4035 -0.3063
 7359TIP3   OH243567   3.669   0.584  11.220  0.3552 -0.1478  0.2721
 7359TIP3    H143568   3.729   0.641  11.172  0.3704 -1.0548 -0.8370
 7359TIP3    H243569   3.586   0.631  11.221  0.7637  0.5822  0.7665
 7360TIP3   OH243570   5.167   6.713  13.897 -0.1814  0.0379 -0.0302
 7360TIP3    H143571   5.123   6.771  13.960 -0.5739  0.4118 -0.6396
 7360TIP3    H243572   5.135   6.626  13.919 -1.3116  0.3131 -0.5130
 7361TIP3   OH243573   0.627   0.445   0.268 -0.7951 -0.2979 -0.2548
 7361TIP3    H143574   0.559   0.494   0.315 -0.5745 -0.8824  0.6918
 7361TIP3    H243575   0.697   0.509   0.254 -0.8766 -0.1020  0.1924
 7362TIP3   OH243576   4.320   2.676   0.917  0.2439 -0.5186  0.0712
 7362TIP3    H143577   4.399   2.731   0.924 -0.9381  1.3360 -0.3769
 7362TIP3    H243578   4.309   2.639   1.004  1.1474 -0.1505  0.3602
 7363TIP3   OH243579   3.113   0.359   4.249 -0.0361 -0.0436 -0.3816
 7363TIP3    H143580   3.121   0.286   4.188 -0.1604  0.6381 -1.2394
 7363TIP3    H243581   3.081   0.432   4.195  0.0530  0.6342  0.4552
 7364TIP3   OH243582   1.306   6.217   3.283  1.3111  0.2806 -0.1098
 7364TIP3    H143583   1.341   6.185   3.366  1.8262  0.5678 -0.2164
 7364TIP3    H243584   1.211   6.207   3.292  1.2421  1.7068  1.1185
 7365TIP3   OH243585   6.746   0.884   3.645  0.2544 -0.3010  1.0390
 7365TIP3    H143586   6.696   0.941   3.703 -0.4251 -1.1094  1.2502
 7365TIP3    H243587   6.838   0.907   3.664 -0.0030  1.6483  0.1729
 7366TIP3   OH243588   5.884   2.422  14.058 -0.4151  0.8452 -0.0812
 7366TIP3    H143589   5.824   2.380  13.997  0.4986 -0.5895 -0.0327
 7366TIP3    H243590   5.833   2.436  14.137 -0.1014 -2.7245  0.9011
 7367TIP3   OH243591   3.112   1.597  12.612  0.2539  0.1158  0.8989
 7367TIP3    H143592   3.193   1.648  12.622 -1.6928  3.3515  1.9008
 7367TIP3    H243593   3.105   1.547  12.694  1.2661 -0.3150  0.7401
 7368TIP3   OH243594   0.823   4.306  13.859  0.4254  0.5922  0.1651
 7368TIP3    H143595   0.896   4.363  13.886  1.7919 -0.8825 -0.2212
 7368TIP3    H243596   0.811   4.246  13.933  0.8326 -0.3074 -0.4818
 7369TIP3   OH243597   1.727   6.019   0.929  0.0562 -0.0156  0.6115
 7369TIP3    H143598   1.795   6.064   0.879 -0.1985 -1.3485 -1.0606
 7369TIP3    H243599   1.652   6.078   0.925  0.7317  0.9210  1.4222
 7370TIP3   OH243600   3.477   6.707  10.907  0.5819  0.0581 -0.4166
 7370TIP3    H143601   3.502   6.793  10.873  1.1143 -0.6561 -1.9439
 7370TIP3    H243602   3.393   6.689  10.865  0.0705  0.1698  0.5411
 7371TIP3   OH243603   0.636   0.281  12.208 -0.2058 -0.0920 -0.5372
 7371TIP3    H143604   0.726   0.314  12.214 -0.4956  0.6081  0.0639
 7371TIP3    H243605   0.645   0.186  12.215  0.4008  0.0373  0.5849
 7372TIP3   OH243606   2.220   2.178  16.263  0.1189  0.1589 -0.1142
 7372TIP3    H143607   2.150   2.124  16.226  0.1583  0.6987 -1.0076
 7372TIP3    H243608   2.284   2.186  16.192  0.7382  0.2823  0.4520
 7373TIP3   OH243609   4.329   5.324   5.199  0.3462  0.0061 -0.2636
 7373TIP3    H143610   4.245   5.332   5.243  0.5668  1.3651 -0.0414
 7373TIP3    H243611   4.370   5.248   5.238  0.2979  0.8527  1.5142
 7374TIP3   OH243612   1.108   0.506   2.512  0.8088  0.2180 -0.1138
 7374TIP3    H143613   1.046   0.541   2.448  1.0219  2.7011  0.9554
 7374TIP3    H243614   1.190   0.496   2.464 -0.0738 -2.2186 -1.2980
 7375TIP3   OH243615   1.015   6.545  11.468 -0.2073  0.6934  0.7491
 7375TIP3    H143616   1.010   6.498  11.385 -0.6653  0.3811  0.9528
 7375TIP3    H243617   1.025   6.637  11.443 -0.0182  0.5671  0.3516
 7376TIP3   OH243618   0.305   1.026  12.230  0.1269  0.6048 -0.0951
 7376TIP3    H143619   0.291   1.120  12.244 -1.0842  0.7717 -2.0248
 7376TIP3    H243620   0.231   0.999  12.175  1.4681 -1.0702 -1.1687
 7377TIP3   OH243621   4.474   2.133  10.672  0.2783  0.3213  0.7047
 7377TIP3    H143622   4.465   2.216  10.626 -1.6079 -1.9001 -3.3848
 7377TIP3    H243623   4.385   2.103  10.687  0.8905 -1.8506  0.3013
 7378TIP3   OH243624   5.603   0.172  13.939 -0.3357  0.4317 -0.0047
 7378TIP3    H143625   5.674   0.121  13.977 -0.1482 -0.7799 -1.8771
 7378TIP3    H243626   5.629   0.263  13.953  2.3723  0.0686 -1.8630
 7379TIP3   OH243627   2.416   3.760  12.374 -0.0142  0.2976  0.1202
 7379TIP3    H143628   2.356   3.818  12.325 -1.0973 -0.3321  0.6703
 7379TIP3    H243629   2.370   3.742  12.456  1.2956  0.4366  0.9085
 7380TIP3   OH243630   3.653   3.084   6.087  0.3613  0.0245  0.4685
 7380TIP3    H143631   3.708   3.101   6.011 -0.0082 -1.0823 -0.0837
 7380TIP3    H243632   3.616   2.997   6.070  1.1289 -0.7278  2.4436
 7381TIP3   OH243633   0.070   0.097   4.399  0.1036  0.8906  0.0010
 7381TIP3    H143634   0.100   0.142   4.478 -1.3523  0.9667  0.5315
 7381TIP3    H243635  -0.011   0.141   4.374 -1.5498 -1.5197  0.7071
 7382TIP3   OH243636   3.553   0.435  16.428  0.3807  0.3087 -0.6579
 7382TIP3    H143637   3.647   0.450  16.428  0.3697  0.3758 -0.7022
 7382TIP3    H243638   3.541   0.357  16.483  0.4935  0.1035 -0.9263
 7383TIP3   OH243639   5.334   4.475  14.258  0.0808 -0.0079 -0.2034
 7383TIP3    H143640   5.427   4.481  14.282  0.2143  0.9224 -0.8762
 7383TIP3    H243641   5.334   4.470  14.163 -0.5665  0.4692 -0.2377
 7384TIP3   OH243642   2.554   5.838   0.551 -0.1531  0.3352  0.1646
 7384TIP3    H143643   2.615   5.767   0.532  1.5857  1.3742  1.5956
 7384TIP3    H243644   2.585   5.876   0.633 -1.2139  2.5309 -0.3582
 7385TIP3   OH243645   1.740   5.058  12.605 -0.0253 -0.3407 -0.1223
 7385TIP3    H143646   1.746   4.997  12.679 -0.1524 -0.7510 -0.4500
 7385TIP3    H243647   1.681   5.015  12.543  1.0248 -0.5550 -0.9972
 7386TIP3   OH243648   2.682   0.575  17.009 -0.2329  0.5103  0.1739
 7386TIP3    H143649   2.774   0.550  17.021  0.0736  1.5109 -0.0667
 7386TIP3    H243650   2.652   0.520  16.936 -0.1187 -0.5189  0.8699
 7387TIP3   OH243651   0.549   3.950   5.620 -0.1398  0.1917 -0.1064
 7387TIP3    H143652   0.625   3.992   5.581 -0.1953 -0.2828 -0.7398
 7387TIP3    H243653   0.493   4.023   5.649  0.1589  0.5449 -0.4120
 7388TIP3   OH243654   5.569   4.359  13.280  0.2545  0.7504 -0.6547
 7388TIP3    H143655   5.617   4.301  13.221 -2.3283 -0.0216 -2.1552
 7388TIP3    H243656   5.594   4.447  13.253  2.9826  0.4704  0.5748
 7389TIP3   OH243657   4.596   5.423   4.823 -0.1953  1.0609 -0.3110
 7389TIP3    H143658   4.681   5.430   4.865 -0.3479  2.9643 -0.2165
 7389TIP3    H243659   4.582   5.329   4.812  1.6229  0.6875  0.2286
 7390TIP3   OH243660   3.706   5.908   1.629 -0.0670 -0.0144  0.0842
 7390TIP3    H143661   3.671   5.880   1.544  0.5051 -1.0171  0.1613
 7390TIP3    H243662   3.631   5.908   1.687 -0.2613 -0.4324 -0.1625
 7391TIP3   OH243663   6.111   6.445   0.236 -0.0607 -0.1941  0.5961
 7391TIP3    H143664   6.154   6.429   0.152 -1.1314  0.8953 -0.1921
 7391TIP3    H243665   6.172   6.500   0.285 -0.2572  0.7745 -0.2399
 7392TIP3   OH243666   1.536   3.268  12.680 -0.5075 -0.0152  0.2120
 7392TIP3    H143667   1.514   3.301  12.593 -1.5209 -0.7984  0.1656
 7392TIP3    H243668   1.571   3.180  12.664 -0.5072 -0.0823  0.5894
 7393TIP3   OH243669   4.163   3.773   5.279  0.0799  0.4733 -0.5068
 7393TIP3    H143670   4.219   3.845   5.252  0.4526  0.3556 -0.0438
 7393TIP3    H243671   4.133   3.796   5.367  2.6876 -1.3308  0.9973
 7394TIP3   OH243672   0.217   2.350  16.155 -0.1321 -0.5027 -0.0899
 7394TIP3    H143673   0.293   2.381  16.205  1.2694 -0.4634 -2.1225
 7394TIP3    H243674   0.153   2.421  16.164  0.3946 -0.1258  0.9342
 7395TIP3   OH243675   0.192   2.041  14.169  0.0488 -0.0780 -0.2170
 7395TIP3    H143676   0.191   1.962  14.223 -2.0296 -0.3762 -0.5897
 7395TIP3    H243677   0.225   2.011  14.084 -0.9573 -0.6302 -0.4313
 7396TIP3   OH243678   5.577   2.590  12.652 -0.4269 -0.0075 -0.3605
 7396TIP3    H143679   5.504   2.634  12.608 -2.1852 -1.7678  0.6488
 7396TIP3    H243680   5.564   2.609  12.744  0.6722 -0.0190 -0.1858
 7397TIP3   OH243681   6.188   2.733   2.669  0.3288 -0.0120  0.6183
 7397TIP3    H143682   6.209   2.808   2.613  1.4822 -1.0497 -0.3750
 7397TIP3    H243683   6.165   2.663   2.609 -0.1702 -0.6400  1.5166
 7398TIP3   OH243684   0.360   4.100   2.694 -0.5687  0.6301  0.0728
 7398TIP3    H143685   0.345   4.005   2.697 -2.1980  0.6614 -2.7538
 7398TIP3    H243686   0.437   4.114   2.748 -0.2455 -2.3129  0.5627
 7399TIP3   OH243687   1.034   0.391   1.781 -0.1068  0.4536  0.1138
 7399TIP3    H143688   0.941   0.398   1.760 -0.7317  1.0888  2.6617
 7399TIP3    H243689   1.047   0.298   1.801  0.1264  0.1418 -1.4012
 7400TIP3   OH243690   5.167   1.735   2.122  0.3751  0.0634 -0.2895
 7400TIP3    H143691   5.145   1.644   2.102  0.6366  0.1311 -0.8962
 7400TIP3    H243692   5.220   1.764   2.049  0.9015  0.4889  0.2508
 7401TIP3   OH243693   1.778   0.026  15.016 -0.0492  0.3735 -0.9772
 7401TIP3    H143694   1.687   0.056  15.018  0.1633  1.1284 -1.9355
 7401TIP3    H243695   1.786  -0.019  14.932 -0.3679 -2.4978  0.4197
 7402TIP3   OH243696   2.824   5.324   1.298  0.4290 -0.4806  0.8146
 7402TIP3    H143697   2.899   5.295   1.349 -0.7615 -1.1981  2.2275
 7402TIP3    H243698   2.779   5.386   1.356  0.4195  0.6744 -0.3830
 7403TIP3   OH243699   0.531   3.197   3.556  0.1747 -0.3440  0.0815
 7403TIP3    H143700   0.600   3.132   3.569 -0.6978 -1.2932  0.1527
 7403TIP3    H243701   0.536   3.253   3.633  0.0159 -1.2257  0.7526
 7404TIP3   OH243702   3.485   0.678  17.168 -0.0903  0.3226 -0.0749
 7404TIP3    H143703   3.413   0.643  17.220 -0.9748  0.0787 -1.4262
 7404TIP3    H243704   3.443   0.726  17.096  1.0605  3.3933  1.1242
 7405TIP3   OH243705   5.035   5.880  16.191  0.4826  0.2854  0.0367
 7405TIP3    H143706   4.956   5.918  16.153  1.5547  1.3265 -1.2368
 7405TIP3    H243707   5.006   5.798  16.230 -1.1314  0.4269 -0.8018
 7406TIP3   OH243708   0.699   1.246  12.017 -0.7315  0.2044  0.3682
 7406TIP3    H143709   0.715   1.162  11.974 -0.3864  1.0445 -1.2384
 7406TIP3    H243710   0.655   1.223  12.099  1.3607 -1.6733  1.0648
 7407TIP3   OH243711   0.512   1.383  11.051 -0.3330  0.4722 -0.1869
 7407TIP3    H143712   0.434   1.347  11.008  0.0128  0.1739 -0.5761
 7407TIP3    H243713   0.579   1.316  11.038 -0.2140  0.3881  0.8162
 7408TIP3   OH243714   2.901   2.927   5.145  0.6768  0.0480  0.1003
 7408TIP3    H143715   2.982   2.876   5.142  0.6856  0.0172  0.6851
 7408TIP3    H243716   2.895   2.955   5.236 -0.3614 -0.5689  0.2299
 7409TIP3   OH243717   4.067   0.781  12.447  0.2125 -0.4455  0.2718
 7409TIP3    H143718   4.121   0.710  12.412  0.6406 -0.0832  0.1839
 7409TIP3    H243719   3.978   0.745  12.448  0.5685 -1.3525  1.2164
 7410TIP3   OH243720   4.311   2.355   4.730 -0.0646 -0.0732 -0.0921
 7410TIP3    H143721   4.347   2.350   4.819 -1.5487  1.9911  0.6973
 7410TIP3    H243722   4.268   2.270   4.716 -0.3292 -0.2030  1.4015
 7411TIP3   OH243723   1.502   1.097   5.908  0.2080 -0.2187  0.1266
 7411TIP3    H143724   1.519   1.184   5.872  0.6854  0.0578  0.9690
 7411TIP3    H243725   1.590   1.059   5.919 -0.0572 -1.6433 -2.1548
 7412TIP3   OH243726   5.836   4.309  12.638 -0.4768 -0.2780  0.2879
 7412TIP3    H143727   5.878   4.243  12.693  0.2674 -0.2760 -0.2699
 7412TIP3    H243728   5.788   4.258  12.572  0.1853 -0.2686 -0.2078
 7413TIP3   OH243729   0.982   0.043   0.794 -0.0269 -0.3540 -0.2773
 7413TIP3    H143730   0.913   0.016   0.734 -0.0701 -0.1148 -0.3348
 7413TIP3    H243731   0.945   0.116   0.843 -0.1046 -0.7539  0.2674
 7414TIP3   OH243732   3.849   5.215  16.188  0.0757  0.1604  0.8135
 7414TIP3    H143733   3.793   5.183  16.259 -0.1464  0.5499  0.8125
 7414TIP3    H243734   3.788   5.254  16.126  0.0582 -1.6983 -0.4428
 7415TIP3   OH243735   4.183   3.800  11.916  0.0418 -0.1020  0.2875
 7415TIP3    H143736   4.159   3.707  11.913 -1.4179  0.2744 -2.3641
 7415TIP3    H243737   4.276   3.801  11.894 -0.0663 -0.8963 -0.2473
 7416TIP3   OH243738   1.708   0.166   6.141 -0.5368 -0.0167  0.2576
 7416TIP3    H143739   1.803   0.181   6.144 -0.6799  0.8463  2.7588
 7416TIP3    H243740   1.670   0.253   6.156 -1.6837 -0.6227  1.0313
 7417TIP3   OH243741   4.027   5.185  11.564  0.3892 -0.6676 -0.3971
 7417TIP3    H143742   3.990   5.273  11.564 -0.7343 -1.1175 -1.3681
 7417TIP3    H243743   4.102   5.191  11.623  0.1268  0.8453 -0.1733
 7418TIP3   OH243744   5.540   5.122   3.932 -0.4841  0.2759 -0.6022
 7418TIP3    H143745   5.522   5.214   3.951  0.4161  0.8409 -2.3036
 7418TIP3    H243746   5.587   5.123   3.849  2.3129 -1.5036  0.8053
 7419TIP3   OH243747   1.770   3.116   3.812 -0.5001 -0.0213 -0.0437
 7419TIP3    H143748   1.782   3.072   3.728  0.3398 -2.7607  1.4011
 7419TIP3    H243749   1.857   3.115   3.852 -0.9039  1.1585  0.9231
 7420TIP3   OH243750   2.723   6.044   3.818  0.3256 -0.0626 -0.1804
 7420TIP3    H143751   2.818   6.042   3.824  0.4340  0.9588 -1.2128
 7420TIP3    H243752   2.700   5.967   3.766  0.6889  0.2284 -0.7893
 7421TIP3   OH243753   4.158   6.198  11.140  0.6500 -0.4664 -0.7430
 7421TIP3    H143754   4.216   6.261  11.097  0.9022  0.5408  0.9831
 7421TIP3    H243755   4.132   6.138  11.070  2.1815  0.2311 -1.9781
 7422TIP3   OH243756   0.803   0.710   2.487  0.3188 -0.0309 -0.1679
 7422TIP3    H143757   0.873   0.738   2.547  0.1265 -0.0983  0.0895
 7422TIP3    H243758   0.850   0.666   2.415  0.5223 -0.3923  0.1776
 7423TIP3   OH243759   6.816   4.869   4.768 -0.3042 -0.1881  0.1692
 7423TIP3    H143760   6.786   4.960   4.761 -2.7046 -0.8904  0.3954
 7423TIP3    H243761   6.768   4.834   4.843 -0.8811 -2.1387 -1.0230
 7424TIP3   OH243762   3.391   4.067  14.797  0.3190 -0.2094 -0.1828
 7424TIP3    H143763   3.375   3.983  14.752 -0.5729 -0.5221  0.7012
 7424TIP3    H243764   3.487   4.072  14.804  0.3985 -0.9469 -0.6184
 7425TIP3   OH243765   4.664   4.283  14.963 -0.1118  0.0253  0.3858
 7425TIP3    H143766   4.656   4.257  14.871  0.2553  1.4750 -0.0893
 7425TIP3    H243767   4.756   4.309  14.971  0.2862 -1.5673  1.6065
 7426TIP3   OH243768   0.477   5.303   3.041 -0.5483 -0.0248  0.1767
 7426TIP3    H143769   0.446   5.223   2.997 -1.4372  0.4770 -0.1440
 7426TIP3    H243770   0.501   5.274   3.129 -0.8500 -0.6561  0.0566
 7427TIP3   OH243771   4.912   6.298   3.833 -0.5456 -0.1854  1.0176
 7427TIP3    H143772   4.898   6.355   3.757 -0.7784 -1.6873 -0.0996
 7427TIP3    H243773   4.974   6.347   3.888  0.1582  0.6480 -0.4451
 7428TIP3   OH243774   4.438   6.383  15.341 -0.0030  0.2307  0.3765
 7428TIP3    H143775   4.522   6.429  15.342  0.8001 -1.1792  0.2254
 7428TIP3    H243776   4.455   6.302  15.390 -1.4132  0.1426  0.7624
 7429TIP3   OH243777   0.092   5.018  15.230 -0.2872 -0.1644 -0.4706
 7429TIP3    H143778   0.180   4.981  15.235 -0.2081  0.1309  0.5835
 7429TIP3    H243779   0.100   5.105  15.269 -1.3280 -0.7071  1.0522
 7430TIP3   OH243780   1.616   1.736   2.730  0.4701  0.7041 -0.2811
 7430TIP3    H143781   1.666   1.807   2.770  2.1447 -0.4815 -0.1769
 7430TIP3    H243782   1.581   1.773   2.650  1.2748  1.6714 -0.2017
 7431TIP3   OH243783   1.876   5.446   3.432 -0.1925 -0.4485 -0.5643
 7431TIP3    H143784   1.825   5.437   3.513  0.7684 -1.4657 -0.0456
 7431TIP3    H243785   1.964   5.469   3.462 -0.3557  1.5654 -1.4583
 7432TIP3   OH243786   3.982   4.253   2.150 -0.0508 -0.3159  0.0768
 7432TIP3    H143787   4.023   4.339   2.155 -1.9379  0.5763  1.0684
 7432TIP3    H243788   4.042   4.195   2.198 -0.5902  1.2479  2.8780
 7433TIP3   OH243789   0.800   0.417  11.966  0.5246 -0.3875  0.7056
 7433TIP3    H143790   0.721   0.373  11.934  0.3232  0.6274 -0.2461
 7433TIP3    H243791   0.771   0.462  12.045  0.2851 -0.4897  0.6785
 7434TIP3   OH243792   1.070   0.371   0.724 -0.5547 -0.2111 -0.1469
 7434TIP3    H143793   1.091   0.366   0.631 -0.5962  0.2568 -0.1855
 7434TIP3    H243794   0.984   0.332   0.732 -0.8768  0.4210 -0.4233
 7435TIP3   OH243795   1.042   1.973  14.504 -0.2134  0.3834  0.3953
 7435TIP3    H143796   0.954   2.010  14.503  0.2134  1.6502  2.6913
 7435TIP3    H243797   1.058   1.947  14.414 -3.0298 -0.1478 -0.0359
 7436TIP3   OH243798   1.344   3.219  14.062  0.0388 -0.1908 -0.0842
 7436TIP3    H143799   1.360   3.313  14.054 -0.7631 -0.0069  0.3315
 7436TIP3    H243800   1.263   3.213  14.113  0.2857 -1.1147  0.2213
 7437TIP3   OH243801   1.955   1.764   2.911  0.3205 -0.0726 -0.4934
 7437TIP3    H143802   1.944   1.703   2.838  1.4354 -0.5670 -0.2712
 7437TIP3    H243803   1.933   1.850   2.874  2.3302 -0.0760 -1.8781
 7438TIP3   OH243804   0.881   3.940   2.937  0.0481 -0.4858  0.3453
 7438TIP3    H143805   0.857   3.864   2.884 -0.2335 -1.0588  1.2713
 7438TIP3    H243806   0.844   4.014   2.889 -1.8961 -1.1545  0.6927
 7439TIP3   OH243807   2.737   1.470  13.616 -0.1033  0.1246 -0.0760
 7439TIP3    H143808   2.751   1.502  13.527  0.4347  0.1954  0.0282
 7439TIP3    H243809   2.825   1.470  13.655 -0.3479  0.1998  0.4857
 7440TIP3   OH243810   1.137   1.667  13.737 -0.1560 -0.9808  0.5523
 7440TIP3    H143811   1.097   1.604  13.678 -1.0231 -0.9519  1.0829
 7440TIP3    H243812   1.215   1.697  13.691 -0.9071 -0.8134 -0.6566
 7441TIP3   OH243813   3.925   4.036   6.567  0.0803 -0.0531 -0.4500
 7441TIP3    H143814   3.840   4.009   6.532 -0.4520  1.8390 -0.7538
 7441TIP3    H243815   3.968   3.955   6.592 -1.1203 -1.1927 -1.9006
 7442TIP3   OH243816   0.078   3.460   1.327 -0.0923 -0.2999 -0.0733
 7442TIP3    H143817   0.158   3.475   1.376 -1.3252 -1.5632  2.5671
 7442TIP3    H243818   0.102   3.395   1.260  1.3696  0.5059 -0.3660
 7443TIP3   OH243819   5.725   6.444   2.926  0.3989 -0.1123  0.4076
 7443TIP3    H143820   5.678   6.371   2.885  0.8852 -0.2162  0.0339
 7443TIP3    H243821   5.758   6.407   3.008 -0.2369 -0.0148  0.7185
 7444TIP3   OH243822   4.937   6.062   1.862 -0.0479  0.4725  0.0928
 7444TIP3    H143823   4.849   6.030   1.883  0.2702 -0.6208 -0.1832
 7444TIP3    H243824   4.961   6.115   1.938 -0.1389 -0.9070  1.1268
 7445TIP3   OH243825   3.929   2.199   1.940 -0.4651 -0.2185  0.7893
 7445TIP3    H143826   3.997   2.237   1.997 -0.8480  0.0529  1.0693
 7445TIP3    H243827   3.942   2.105   1.947  2.0044 -0.1984 -1.6994
 7446TIP3   OH243828   6.368   1.557   4.378 -0.6157 -0.2127  0.1432
 7446TIP3    H143829   6.309   1.496   4.334  0.7519 -0.4431 -1.4555
 7446TIP3    H243830   6.371   1.634   4.320  1.0192 -0.4169 -0.0798
 7447TIP3   OH243831   5.256   0.595  11.869 -0.1915 -0.0678 -0.3966
 7447TIP3    H143832   5.335   0.640  11.839 -1.3656  1.4634 -1.3355
 7447TIP3    H243833   5.188   0.661  11.865 -0.8999 -0.2418  3.8838
 7448TIP3   OH243834   2.086   0.476  15.347 -0.5252  0.1432 -0.9708
 7448TIP3    H143835   2.025   0.540  15.310  0.2246  1.6532  0.2957
 7448TIP3    H243836   2.032   0.420  15.403 -0.8089  1.3396 -0.0218
 7449TIP3   OH243837   1.592   1.250  13.528  0.2296 -0.0705 -0.3267
 7449TIP3    H143838   1.583   1.332  13.479  0.0322 -0.2977 -0.6709
 7449TIP3    H243839   1.535   1.262  13.604 -0.5296 -0.2458 -0.8517
 7450TIP3   OH243840   5.351   1.772  14.587 -0.9702  0.2334  0.0610
 7450TIP3    H143841   5.308   1.717  14.522 -1.6077  1.7296 -0.8136
 7450TIP3    H243842   5.284   1.788  14.654 -0.5177 -0.7465  0.7781
 7451TIP3   OH243843   6.796   5.615   3.837 -0.0480 -0.0610  0.5116
 7451TIP3    H143844   6.735   5.605   3.764  0.7039  0.7305 -0.2436
 7451TIP3    H243845   6.812   5.525   3.867 -3.0022 -0.2451  1.9759
 7452TIP3   OH243846   5.983   3.708  11.325 -0.0601 -1.1264 -0.3166
 7452TIP3    H143847   5.913   3.772  11.308 -2.1208 -2.1547  3.0811
 7452TIP3    H243848   6.059   3.761  11.346 -1.0436  0.1977  0.0416
 7453TIP3   OH243849   3.352   5.400   4.394  0.1472  0.6356  0.2484
 7453TIP3    H143850   3.285   5.451   4.348  1.5823 -0.6518 -3.7018
 7453TIP3    H243851   3.435   5.425   4.352  1.6272 -0.8137  2.1022
 7454TIP3   OH243852   6.822   4.604  14.770  0.3823  0.6340  0.2184
 7454TIP3    H143853   6.848   4.591  14.679 -2.2277  0.3615 -0.5789
 7454TIP3    H243854   6.824   4.698  14.783 -4.2138  1.3341 -1.9734
 7455TIP3   OH243855   1.673   2.000   1.025  0.1411  0.0795 -0.3163
 7455TIP3    H143856   1.626   2.079   0.996  0.4255  0.7425  0.9401
 7455TIP3    H243857   1.765   2.027   1.029  0.0875  0.1099  1.3977
 7456TIP3   OH243858   4.688   6.736   6.240  0.0850  0.4996  0.2951
 7456TIP3    H143859   4.753   6.806   6.246  0.6288  0.0029  0.3589
 7456TIP3    H243860   4.633   6.760   6.165  0.9221  0.4512 -0.3438
 7457TIP3   OH243861   6.543   3.682   2.367 -0.4769  0.0446 -0.0802
 7457TIP3    H143862   6.635   3.693   2.392 -0.4407 -0.7173  0.1546
 7457TIP3    H243863   6.512   3.771   2.351 -0.3260  0.5413  2.0998
 7458TIP3   OH243864   5.556   2.216  12.992 -0.4170 -0.1628 -0.2647
 7458TIP3    H143865   5.563   2.126  13.025  1.6495 -0.4180 -1.2442
 7458TIP3    H243866   5.477   2.250  13.033  0.0249 -1.6570  2.0245
 7459TIP3   OH243867   6.004   3.751  13.998 -0.3344  0.7709  0.2049
 7459TIP3    H143868   5.932   3.788  14.048 -1.7858 -0.0215 -1.1931
 7459TIP3    H243869   5.975   3.662  13.978  1.1933  0.3163 -0.1126
 7460TIP3   OH243870   4.639   6.507   0.933 -0.5143  0.6032  0.4391
 7460TIP3    H143871   4.634   6.437   0.868  0.2667  1.3157 -0.4189
 7460TIP3    H243872   4.548   6.538   0.941 -0.3891  1.7792 -1.7838
 7461TIP3   OH243873   4.520   3.696  12.198  0.3921 -0.3104 -0.4078
 7461TIP3    H143874   4.555   3.785  12.198 -1.6148  0.5904 -2.2564
 7461TIP3    H243875   4.566   3.652  12.126  0.5753 -0.3957 -0.2376
 7462TIP3   OH243876   0.136   6.416  13.952  0.2460 -0.6712  0.5820
 7462TIP3    H143877   0.175   6.456  14.029 -0.7709  3.2634 -0.7318
 7462TIP3    H243878   0.208   6.412  13.888 -0.2130  1.9136 -0.1975
 7463TIP3   OH243879   5.727   4.683   2.246  0.1189  0.2506  0.3644
 7463TIP3    H143880   5.727   4.778   2.233  1.1912  0.1577 -0.5055
 7463TIP3    H243881   5.718   4.646   2.158 -0.5326 -0.4576  0.7191
 7464TIP3   OH243882   4.866   5.393   4.904  0.0094  0.6007 -0.4694
 7464TIP3    H143883   4.914   5.315   4.875 -1.9000 -0.5116 -0.8174
 7464TIP3    H243884   4.843   5.374   4.995 -1.3315  0.2503 -0.8507
 7465TIP3   OH243885   2.794   6.359   2.859  0.1390  0.0416  0.5907
 7465TIP3    H143886   2.703   6.327   2.851 -0.2405  1.4759 -1.7801
 7465TIP3    H243887   2.847   6.287   2.825 -0.2059 -0.3510  0.8740
 7466TIP3   OH243888   1.562   3.814  15.130  0.2431 -0.2569 -0.1985
 7466TIP3    H143889   1.476   3.851  15.147 -0.1282 -1.1478 -0.0558
 7466TIP3    H243890   1.561   3.729  15.175  0.3544 -1.3044 -2.0650
 7467TIP3   OH243891   1.879   4.222   4.570  0.3342  0.0857 -0.3624
 7467TIP3    H143892   1.806   4.250   4.625 -1.3201 -3.4772 -0.4420
 7467TIP3    H243893   1.941   4.183   4.632  0.9143  0.7028 -0.5514
 7468TIP3   OH243894   6.810   3.372  11.819  0.0822 -0.2549  0.5727
 7468TIP3    H143895   6.758   3.450  11.838  1.1886  0.8686 -0.8027
 7468TIP3    H243896   6.745   3.302  11.811 -1.2533  1.0779 -0.9514
 7469TIP3   OH243897   6.596   6.064  12.712  0.1737  0.2100 -0.0297
 7469TIP3    H143898   6.628   6.137  12.765  0.0012  0.5485 -0.3871
 7469TIP3    H243899   6.549   6.105  12.640 -1.8711 -0.2846  0.9706
 7470TIP3   OH243900   5.922   3.729   2.038  0.4308  0.0443 -0.8637
 7470TIP3    H143901   5.958   3.744   1.950 -0.8493 -1.7506 -1.7682
 7470TIP3    H243902   5.828   3.747   2.028  0.3161  0.0672  0.2111
 7471TIP3   OH243903   2.331   6.665  14.475 -0.6139 -0.4235  0.7518
 7471TIP3    H143904   2.308   6.757  14.490  0.1346  0.0200 -0.6463
 7471TIP3    H243905   2.297   6.646  14.388  0.3287 -1.1016  0.5256
 7472TIP3   OH243906   6.273   6.642  16.928  0.2595  0.0471 -0.3373
 7472TIP3    H143907   6.229   6.589  16.862  2.0560 -1.2829 -0.5035
 7472TIP3    H243908   6.304   6.719  16.880 -1.4313  0.8102 -0.2978
 7473TIP3   OH243909   1.878   3.978  16.371 -0.0953 -0.6355  0.3077
 7473TIP3    H143910   1.964   3.966  16.329  0.5638 -0.0186  1.4306
 7473TIP3    H243911   1.866   4.073  16.372 -1.3904 -0.7632 -0.9756
 7474TIP3   OH243912   1.966   0.924  13.206 -0.5701  0.3151 -0.0879
 7474TIP3    H143913   1.930   0.994  13.261  0.9775  1.1144 -0.0601
 7474TIP3    H243914   1.985   0.853  13.267  0.5460  0.9640  0.3460
 7475TIP3   OH243915   5.107   0.314  11.836  0.1868 -0.3027 -0.1234
 7475TIP3    H143916   5.126   0.405  11.812 -1.5431  0.3855  0.9501
 7475TIP3    H243917   5.057   0.279  11.763  1.7446 -0.7790 -1.0210
 7476TIP3   OH243918   4.614   3.826  15.441 -0.8016 -0.1183  0.2884
 7476TIP3    H143919   4.635   3.754  15.499  0.6697  1.1457  1.3796
 7476TIP3    H243920   4.678   3.821  15.370 -0.2202  0.5320  0.7554
 7477TIP3   OH243921   6.821   3.079  15.778  0.1179  0.3163  0.2686
 7477TIP3    H143922   6.730   3.109  15.782  0.4302  1.4713 -0.6856
 7477TIP3    H243923   6.869   3.153  15.742  1.1612 -0.8946 -0.9240
 7478TIP3   OH243924   4.605   2.180   2.394 -0.3693  0.1138  0.1924
 7478TIP3    H143925   4.597   2.256   2.452  0.6012  0.3812 -0.0093
 7478TIP3    H243926   4.607   2.216   2.306 -1.8586 -0.2959 -0.0346
 7479TIP3   OH243927   6.514   2.237  13.425  0.7084 -0.2596  0.1500
 7479TIP3    H143928   6.491   2.169  13.489 -0.7632 -0.8225 -0.9052
 7479TIP3    H243929   6.438   2.241  13.366  2.2351 -0.2187 -1.9485
 7480TIP3   OH243930   0.732   1.206  13.323 -0.0303  0.3865 -0.6029
 7480TIP3    H143931   0.643   1.218  13.355 -0.0197  0.2654 -0.5285
 7480TIP3    H243932   0.723   1.146  13.249 -0.1474  1.2452 -1.3055
 7481TIP3   OH243933   0.867   5.245  12.111  0.1222 -0.6003  0.7285
 7481TIP3    H143934   0.886   5.274  12.021  4.1278 -1.4536  1.0904
 7481TIP3    H243935   0.848   5.152  12.102  0.5166 -0.6840  0.7245
 7482TIP3   OH243936   4.911   3.451  16.284  0.1012 -0.5788  0.0541
 7482TIP3    H143937   4.856   3.376  16.263 -0.7822  0.5887 -2.1102
 7482TIP3    H243938   5.000   3.423  16.263 -0.0131 -1.4693  0.6970
 7483TIP3   OH243939   3.436   2.318  12.368 -0.1307  0.2451 -0.0700
 7483TIP3    H143940   3.394   2.378  12.307 -2.9193 -1.9146 -0.4619
 7483TIP3    H243941   3.427   2.360  12.454 -1.4347  0.7144 -0.4185
 7484TIP3   OH243942   4.448   3.959  14.984  0.3025 -0.4832 -0.0580
 7484TIP3    H143943   4.446   3.873  15.026 -1.5446 -0.4066  0.0943
 7484TIP3    H243944   4.438   3.940  14.890  0.4139 -0.4555 -0.0759
 7485TIP3   OH243945   6.010   0.591  12.318 -0.1482  0.1007  0.0166
 7485TIP3    H143946   6.042   0.679  12.336 -2.5692  0.8905  0.8216
 7485TIP3    H243947   5.946   0.603  12.248  0.4498 -1.2551 -0.8163
 7486TIP3   OH243948   5.288   1.594  15.523 -0.2931 -0.7280 -0.3615
 7486TIP3    H143949   5.307   1.667  15.583 -1.2197  0.0046 -0.9287
 7486TIP3    H243950   5.226   1.631  15.460 -2.0409 -2.4411  0.2620
 7487TIP3   OH243951   3.048   6.212   3.530  0.2704 -0.1476  0.2117
 7487TIP3    H143952   2.971   6.252   3.490  0.9093  1.3191  0.3595
 7487TIP3    H243953   3.101   6.184   3.456  0.8772  1.4341  0.0036
 7488TIP3   OH243954   4.403   3.571  11.957  0.1133  0.1287 -0.5205
 7488TIP3    H143955   4.490   3.539  11.981  0.3968 -0.7650 -2.5587
 7488TIP3    H243956   4.419   3.655  11.916 -0.2604  1.1062  1.2372
 7489TIP3   OH243957   0.321   4.769   0.353  0.6564 -0.0424 -0.1979
 7489TIP3    H143958   0.269   4.690   0.336  0.0376 -0.0610  1.5502
 7489TIP3    H243959   0.340   4.805   0.267 -0.2902 -1.3118 -0.9673
 7490TIP3   OH243960   5.614   6.814   3.387  0.1383 -0.2947 -0.2353
 7490TIP3    H143961   5.552   6.873   3.429  2.0463  3.2817 -1.9610
 7490TIP3    H243962   5.602   6.730   3.431 -4.1147  0.8103  1.1089
 7491TIP3   OH243963   2.266   2.942  15.751 -0.3335 -0.1077 -0.1697
 7491TIP3    H143964   2.287   2.910  15.839 -0.8929  0.4018  0.1646
 7491TIP3    H243965   2.239   2.864  15.703  2.3833 -0.8145 -0.6740
 7492TIP3   OH243966   6.437   3.550  14.163 -0.4797 -0.1026 -0.1582
 7492TIP3    H143967   6.381   3.625  14.142  0.2170  0.3553 -0.4097
 7492TIP3    H243968   6.415   3.528  14.253 -0.0330  0.9985  0.2362
 7493TIP3   OH243969   3.226   1.049  15.471  0.0247  0.7059  0.4151
 7493TIP3    H143970   3.284   1.123  15.490  0.5620  0.8085 -1.4958
 7493TIP3    H243971   3.173   1.078  15.397 -2.4326  0.5552  1.9914
 7494TIP3   OH243972   4.423   3.143   1.485 -0.5070 -0.6132  0.2927
 7494TIP3    H143973   4.482   3.123   1.558  0.8895 -0.0973 -0.6547
 7494TIP3    H243974   4.441   3.074   1.421  1.9857  1.5975 -1.6286
 7495TIP3   OH243975   4.578   0.139   0.449  0.0477 -0.4546 -0.5243
 7495TIP3    H143976   4.627   0.068   0.489  0.2392 -1.5358 -2.5548
 7495TIP3    H243977   4.644   0.192   0.405 -0.2148  0.3499  0.0238
 7496TIP3   OH243978   0.473   0.192   1.785  0.1575 -0.3988  0.2299
 7496TIP3    H143979   0.547   0.186   1.846 -1.0530 -1.2210  1.7083
 7496TIP3    H243980   0.420   0.264   1.819  1.3344  1.6781 -2.1125
 7497TIP3   OH243981   6.479   1.395  16.221 -0.2862  0.0573 -0.3432
 7497TIP3    H143982   6.471   1.454  16.146 -1.3649 -0.8633 -0.9895
 7497TIP3    H243983   6.402   1.338  16.215  0.3494 -0.9566  0.6516
 7498TIP3   OH243984   0.256   2.909   2.837 -0.4961 -0.0503 -0.1059
 7498TIP3    H143985   0.347   2.933   2.857 -0.2337 -0.5140 -0.7062
 7498TIP3    H243986   0.230   2.850   2.908  0.1745 -1.0860 -0.6881
 7499TIP3   OH243987   1.742   0.484  12.450 -0.1890  0.1726 -0.8714
 7499TIP3    H143988   1.675   0.484  12.382 -0.3484 -3.3409 -0.8881
 7499TIP3    H243989   1.707   0.426  12.518  2.3755 -0.9526 -0.4202
 7500TIP3   OH243990   4.890   1.343   2.803 -0.5142 -0.0440  0.1314
 7500TIP3    H143991   4.838   1.416   2.770 -0.6960  0.4326  1.4186
 7500TIP3    H243992   4.890   1.280   2.732 -1.2840  0.7450 -0.5934
 7501TIP3   OH243993   6.782   4.637  10.617  0.1888 -0.7127 -0.3048
 7501TIP3    H143994   6.824   4.642  10.531 -2.5304  0.4763 -1.7370
 7501TIP3    H243995   6.773   4.729  10.644 -1.1971 -0.9148  0.0106
 7502TIP3   OH243996   3.627   1.341  15.995  0.5674 -0.3010  0.3982
 7502TIP3    H143997   3.565   1.396  16.042 -1.8448 -1.1846 -1.5194
 7502TIP3    H243998   3.693   1.318  16.060 -1.3899  0.2422  2.7205
 7503TIP3   OH243999   3.553   5.641  16.881  0.2232  0.0062  0.1332
 7503TIP3    H144000   3.531   5.725  16.843 -1.0327 -0.7769 -0.9427
 7503TIP3    H244001   3.637   5.618  16.841 -0.3991 -0.1559 -1.1280
 7504TIP3   OH244002   0.084   4.683  12.568  0.1769 -0.4090  0.0156
 7504TIP3    H144003   0.118   4.646  12.487  1.0443 -1.1527  0.7003
 7504TIP3    H244004   0.136   4.761  12.583  1.8938 -1.7118  1.2239
 7505TIP3   OH244005   2.909   0.444   4.597  0.3271  0.5009  0.1614
 7505TIP3    H144006   2.871   0.397   4.671  0.1481 -0.5313 -0.5602
 7505TIP3    H244007   2.839   0.502   4.567  0.3261  0.7584  0.6520
 7506TIP3   OH244008   1.792   6.613  12.060  0.1759 -0.1282 -0.3900
 7506TIP3    H144009   1.731   6.630  12.131 -0.6667  2.5374 -1.6235
 7506TIP3    H244010   1.871   6.661  12.084 -0.3539  1.3781 -1.4782
 7507TIP3   OH244011   6.332   3.307  13.758  0.9916 -0.3910 -0.3895
 7507TIP3    H144012   6.407   3.249  13.742  0.4569 -1.4440  0.8360
 7507TIP3    H244013   6.368   3.378  13.810  0.9136 -1.5616  1.3269
 7508TIP3   OH244014   3.343   0.362  16.839 -0.3310  0.2019  0.8388
 7508TIP3    H144015   3.381   0.350  16.926 -1.6498  1.0969  1.5706
 7508TIP3    H244016   3.282   0.434  16.850  0.6776  1.4503 -1.2364
 7509TIP3   OH244017   5.808   5.565   3.207 -0.6837 -0.2199  0.5881
 7509TIP3    H144018   5.832   5.638   3.264 -1.5281  0.0777  0.5701
 7509TIP3    H244019   5.742   5.517   3.257  0.0010 -1.0909  0.6816
 7510TIP3   OH244020   5.531   0.386   3.853  0.1317 -0.1557 -0.6019
 7510TIP3    H144021   5.516   0.448   3.925 -3.5986 -1.0356 -0.4517
 7510TIP3    H244022   5.565   0.441   3.782 -1.0168  1.7054  0.2005
 7511TIP3   OH244023   3.851   0.069  14.798 -0.2335  0.4655  0.0560
 7511TIP3    H144024   3.784   0.014  14.758  0.5076  0.0383 -0.6185
 7511TIP3    H244025   3.933   0.042  14.756  0.2816  1.3839  0.4423
 7512TIP3   OH244026   2.095   2.282  15.932 -0.2997 -0.6789 -0.2837
 7512TIP3    H144027   2.131   2.308  15.848 -0.4579  0.8396  0.0966
 7512TIP3    H244028   2.002   2.305  15.927 -0.2109 -0.1257  0.4686
 7513TIP3   OH244029   2.480   4.122  16.492 -0.0256  0.1065  0.2327
 7513TIP3    H144030   2.415   4.134  16.423  0.2155 -0.6877 -0.1431
 7513TIP3    H244031   2.552   4.181  16.469 -0.5359  0.8709  0.5631
 7514TIP3   OH244032   2.561   1.155  15.742 -0.1808  0.7554 -0.0387
 7514TIP3    H144033   2.552   1.157  15.838  0.1080 -2.0699  0.1465
 7514TIP3    H244034   2.481   1.111  15.712  0.8542 -0.6699 -0.8199
 7515TIP3   OH244035   1.034   2.451   1.292 -0.2042  0.1081  0.6411
 7515TIP3    H144036   0.999   2.474   1.379 -1.2432 -0.9998  0.5328
 7515TIP3    H244037   1.001   2.520   1.234 -0.4090  0.2556  0.9315
 7516TIP3   OH244038   4.993   2.077  16.518 -0.5678  0.6345  0.1388
 7516TIP3    H144039   4.930   2.078  16.591 -0.3393  1.2497  0.3390
 7516TIP3    H244040   5.078   2.082  16.561 -0.3924  0.0473 -0.1419
 7517TIP3   OH244041   1.116   4.243  14.130  0.5231  0.2536 -0.0416
 7517TIP3    H144042   1.137   4.186  14.056 -1.9037  1.4880 -1.8300
 7517TIP3    H244043   1.201   4.274  14.161  1.7164 -1.7907 -1.0513
 7518TIP3   OH244044   5.096   0.653   3.175  0.3179 -0.6097 -0.0460
 7518TIP3    H144045   5.137   0.730   3.135  0.8569 -1.0505 -0.3554
 7518TIP3    H244046   5.166   0.588   3.179 -0.1780 -1.1427  0.0543
 7519TIP3   OH244047   6.137   3.213   2.104 -0.8957 -0.0605 -0.3595
 7519TIP3    H144048   6.171   3.171   2.025  0.3398 -0.5133  0.3775
 7519TIP3    H244049   6.214   3.222   2.161 -1.9107 -0.5347  1.1397
 7520TIP3   OH244050   6.406   3.781   5.408  0.6931 -0.0372  0.4377
 7520TIP3    H144051   6.339   3.742   5.351  1.2666  1.4334 -1.3554
 7520TIP3    H244052   6.451   3.706   5.446  0.6967 -1.1579 -1.5859
 7521TIP3   OH244053   5.559   0.010   2.025 -0.4614 -0.1499 -0.2034
 7521TIP3    H144054   5.546  -0.028   1.938 -1.4454  1.5263 -0.8375
 7521TIP3    H244055   5.607  -0.056   2.073 -1.2664 -1.7730 -1.5371
 7522TIP3   OH244056   5.639   3.358  13.776 -0.4586  0.1822  0.5136
 7522TIP3    H144057   5.639   3.282  13.718 -2.5789  0.8309 -0.4177
 7522TIP3    H244058   5.699   3.334  13.847 -0.4621 -2.0312 -0.1589
 7523TIP3   OH244059   5.668   0.927   2.390 -0.7304  0.4433  0.3694
 7523TIP3    H144060   5.674   0.890   2.302 -2.1436  0.0496  0.4230
 7523TIP3    H244061   5.749   0.900   2.433 -0.7631 -0.7378 -0.2920
 7524TIP3   OH244062   0.632   3.169  12.866  0.6042  0.0396 -0.1125
 7524TIP3    H144063   0.719   3.206  12.853  0.8163 -0.7444 -1.0522
 7524TIP3    H244064   0.612   3.185  12.958  1.7053  0.3012  0.0889
 7525TIP3   OH244065   3.110   3.369   5.117 -0.2900  0.6124  0.3121
 7525TIP3    H144066   3.201   3.385   5.140  0.6064  0.5962 -2.7900
 7525TIP3    H244067   3.103   3.273   5.113  0.7971  0.5304 -3.2228
 7526TIP3   OH244068   6.741   0.511   0.477  1.3434 -0.2891 -0.3390
 7526TIP3    H144069   6.686   0.542   0.405  0.5771 -0.9363 -0.0531
 7526TIP3    H244070   6.702   0.426   0.501  3.7845 -1.8747 -1.5967
 7527TIP3   OH244071   5.908   2.488  10.358  0.0212  0.6892  0.0856
 7527TIP3    H144072   5.859   2.555  10.405 -0.8430  0.0565  0.1102
 7527TIP3    H244073   5.843   2.445  10.303  0.5562 -0.1490  0.0890
 7528TIP3   OH244074   1.811   0.067  14.288  0.3051 -0.6989 -0.0198
 7528TIP3    H144075   1.845   0.039  14.373  0.2490 -0.3562  0.1209
 7528TIP3    H244076   1.860   0.016  14.224  0.4189 -0.8875  0.2167
 7529TIP3   OH244077   5.014   1.743  16.796  0.1301 -0.0493 -0.0351
 7529TIP3    H144078   5.033   1.707  16.709  1.2403  0.3566  0.0211
 7529TIP3    H244079   5.047   1.678  16.857  1.2676  0.5886  0.0643
 7530TIP3   OH244080   2.166   4.820   5.032  0.6262 -0.0949  0.5397
 7530TIP3    H144081   2.089   4.815   5.088 -0.2865 -1.0012 -0.7339
 7530TIP3    H244082   2.228   4.758   5.069  0.1462 -0.4760  0.7056
 7531TIP3   OH244083   0.965   6.196   1.328 -0.4213  0.7176  0.4016
 7531TIP3    H144084   1.018   6.123   1.298  0.0954  1.3798 -0.3233
 7531TIP3    H244085   0.874   6.168   1.314 -0.2555  1.7023 -3.7635
 7532TIP3   OH244086   6.114   0.764  14.373  0.5184  0.3588 -0.6168
 7532TIP3    H144087   6.044   0.819  14.338 -0.9926 -0.9721  0.1586
 7532TIP3    H244088   6.069   0.704  14.433  2.3111 -0.7009 -0.2657
 7533TIP3   OH244089   2.895   3.621   3.659  0.2753  0.2217 -0.4732
 7533TIP3    H144090   2.960   3.570   3.707  0.4930  0.4873 -0.4885
 7533TIP3    H244091   2.828   3.556   3.635  1.4564 -0.4550 -2.1146
 7534TIP3   OH244092   1.479   5.260   2.015 -0.6340  0.3135 -0.2055
 7534TIP3    H144093   1.524   5.230   2.094  1.4736  0.2845 -1.3301
 7534TIP3    H244094   1.442   5.345   2.039  2.1840  1.5646  0.1978
 7535TIP3   OH244095   0.706   0.357   6.077 -0.1478 -0.3790  0.3025
 7535TIP3    H144096   0.695   0.306   6.157  2.5593 -0.4169  0.7699
 7535TIP3    H244097   0.799   0.382   6.078  0.4993 -1.9001 -3.7169
 7536TIP3   OH244098   4.220   5.912   4.554 -0.7192  0.2147  0.0958
 7536TIP3    H144099   4.199   5.958   4.473  2.2901 -0.3136 -1.0958
 7536TIP3    H244100   4.191   5.822   4.540 -2.2968  0.6109  0.5825
 7537TIP3   OH244101   1.261   3.509   4.360  0.2656  0.4032  0.7707
 7537TIP3    H144102   1.207   3.533   4.284  0.2182 -0.0447  0.6578
 7537TIP3    H244103   1.231   3.421   4.383  2.0145 -0.5121 -0.2804
 7538TIP3   OH244104   0.049   5.961  15.116  0.4229 -0.0956 -0.6160
 7538TIP3    H144105   0.095   6.033  15.161  0.2095 -0.3959  0.1072
 7538TIP3    H244106   0.069   5.884  15.169 -0.2823 -0.3656 -0.7346
 7539TIP3   OH244107   6.793   1.505  16.987 -0.0721  0.5934  0.5106
 7539TIP3    H144108   6.736   1.575  16.954 -0.2620  0.3933  0.4089
 7539TIP3    H244109   6.844   1.547  17.057 -0.6220  0.6817  0.8703
 7540TIP3   OH244110   6.725   4.596   5.277 -0.2552  0.5686  0.2040
 7540TIP3    H144111   6.808   4.564   5.310 -0.8553 -1.9234 -0.4270
 7540TIP3    H244112   6.685   4.642   5.351  1.3658  1.2404  0.7001
 7541TIP3   OH244113   2.807   1.595  13.115  0.1558 -0.2688  0.8515
 7541TIP3    H144114   2.855   1.672  13.085  1.4662 -1.6540 -0.8429
 7541TIP3    H244115   2.850   1.571  13.197  1.7928 -0.9151 -0.1482
 7542TIP3   OH244116   1.227   4.039   0.512 -0.0137  0.2123 -0.6019
 7542TIP3    H144117   1.157   4.090   0.553 -0.0500  0.7118 -1.2627
 7542TIP3    H244118   1.254   3.977   0.580 -0.9893  0.1124 -0.2856
 7543TIP3   OH244119   5.482   1.224   5.987 -0.9688  0.2584  0.0819
 7543TIP3    H144120   5.448   1.206   6.075 -1.3582  0.5721 -0.0022
 7543TIP3    H244121   5.536   1.303   5.998 -1.9232  0.9654 -0.1617
 7544TIP3   OH244122   0.377   2.462   0.429  0.8723 -0.3340  0.0885
 7544TIP3    H144123   0.289   2.501   0.426  0.7347 -0.5528  0.9270
 7544TIP3    H244124   0.376   2.408   0.509  2.2529  0.8496  0.9450
 7545TIP3   OH244125   0.768   6.028  13.677  0.0559 -0.2715  1.0197
 7545TIP3    H144126   0.798   6.048  13.588  0.7940  1.3641  1.5900
 7545TIP3    H244127   0.848   6.013  13.727 -0.2029  1.0330  1.8723
 7546TIP3   OH244128   2.692   1.176   1.154  0.2876  0.3418 -0.4353
 7546TIP3    H144129   2.756   1.230   1.108  0.1343  1.2093  0.3372
 7546TIP3    H244130   2.652   1.123   1.085  1.6541 -0.0509 -0.9589
 7547TIP3   OH244131   3.426   1.426  15.099 -0.1697  0.2237 -0.0395
 7547TIP3    H144132   3.354   1.436  15.038  0.7108 -0.6734 -1.2914
 7547TIP3    H244133   3.385   1.416  15.185 -1.4697  0.6402 -0.5993
 7548TIP3   OH244134   2.215   1.071  13.506 -0.1139 -0.4903 -0.0907
 7548TIP3    H144135   2.193   1.164  13.508  1.2406 -0.1752  1.6338
 7548TIP3    H244136   2.144   1.028  13.554 -1.3780 -0.5454 -1.9054
 7549TIP3   OH244137   4.782   4.898  10.988 -0.0216  0.0343 -0.0533
 7549TIP3    H144138   4.696   4.909  10.949 -0.4373 -1.2531  0.4711
 7549TIP3    H244139   4.765   4.875  11.079  0.7642 -2.4186 -0.4479
 7550TIP3   OH244140   5.198   6.380  13.385 -0.3323  0.2012 -0.9604
 7550TIP3    H144141   5.243   6.463  13.367 -1.2419  0.8053 -0.5715
 7550TIP3    H244142   5.267   6.321  13.414  0.0762  1.4397  0.7515
 7551TIP3   OH244143   4.538   2.727  16.307  0.5803 -0.6329 -0.0534
 7551TIP3    H144144   4.489   2.661  16.355  1.6261 -1.1518  0.3441
 7551TIP3    H244145   4.498   2.810  16.332  0.5683 -0.9588  1.0957
 7552TIP3   OH244146   0.333   5.486   0.791 -0.1365 -0.0308 -0.4075
 7552TIP3    H144147   0.301   5.428   0.722 -0.9064 -2.2962  1.6872
 7552TIP3    H244148   0.395   5.433   0.840 -0.9664  0.8260  1.6947
 7553TIP3   OH244149   0.160   3.535  13.706 -0.1589 -0.2906  0.1593
 7553TIP3    H144150   0.174   3.492  13.622  2.3753  0.2702  0.2290
 7553TIP3    H244151   0.128   3.622  13.683 -0.3676 -0.4562 -0.1838
 7554TIP3   OH244152   6.608   1.546   5.471 -0.0343 -0.2908  0.1152
 7554TIP3    H144153   6.598   1.633   5.510  1.9650 -0.0829  0.2986
 7554TIP3    H244154   6.530   1.499   5.498 -1.1096  1.3934  0.1211
 7555TIP3   OH244155   5.610   2.458   0.423 -0.2524 -0.3654 -0.4995
 7555TIP3    H144156   5.555   2.528   0.459 -0.5463 -0.8526  0.0188
 7555TIP3    H244157   5.569   2.377   0.454  1.1053 -0.7389  0.4310
 7556TIP3   OH244158   3.347   1.114   0.690 -0.4644 -0.0794  0.1487
 7556TIP3    H144159   3.281   1.166   0.644  1.1889  0.9139 -1.2480
 7556TIP3    H244160   3.310   1.026   0.695 -1.5035  0.2271 -1.4023
 7557TIP3   OH244161   5.032   6.483  13.612  0.2617  0.0525 -0.1146
 7557TIP3    H144162   4.980   6.550  13.567  0.2512  0.1895  0.1002
 7557TIP3    H244163   5.086   6.444  13.543  1.8232  1.7110  0.0847
 7558TIP3   OH244164   4.418   2.363   1.470  0.2112 -0.4029 -0.5165
 7558TIP3    H144165   4.387   2.452   1.487  2.7973  0.4794  0.0297
 7558TIP3    H244166   4.391   2.345   1.380  0.1809  1.2047 -0.8661
 7559TIP3   OH244167   5.377   3.180   0.377 -0.1358 -0.3149  0.2902
 7559TIP3    H144168   5.451   3.122   0.359  1.3038  1.2530  0.8509
 7559TIP3    H244169   5.417   3.265   0.393 -2.2166  1.0953 -1.4676
 7560TIP3   OH244170   5.547   0.720  16.660  0.1644 -0.4010 -0.3851
 7560TIP3    H144171   5.565   0.664  16.584  0.3741 -0.8440 -0.0122
 7560TIP3    H244172   5.466   0.685  16.697  1.1388 -1.4957  0.7944
 7561TIP3   OH244173   1.084   6.630  16.244  0.3744  0.1665  0.6339
 7561TIP3    H144174   0.991   6.609  16.231  0.7312 -1.6825  0.7725
 7561TIP3    H244175   1.095   6.631  16.339  0.0945  2.5229  0.6948
 7562TIP3   OH244176   2.300   2.625  13.463 -0.6647 -0.1837  0.4240
 7562TIP3    H144177   2.249   2.566  13.519 -0.6341 -0.5141  0.1057
 7562TIP3    H244178   2.247   2.705  13.458 -0.3071  0.1482  1.5529
 7563TIP3   OH244179   6.050   5.342  16.889 -0.6703  0.2070 -0.3190
 7563TIP3    H144180   5.963   5.380  16.901 -0.4150  0.6056  0.3219
 7563TIP3    H244181   6.034   5.250  16.871 -1.2971  0.5672 -1.8130
 7564TIP3   OH244182   3.519   5.118  12.310  0.0485 -0.0566  0.0091
 7564TIP3    H144183   3.525   5.212  12.290 -2.9075 -0.0387 -1.2908
 7564TIP3    H244184   3.593   5.079  12.263  2.2615  1.7124  1.8273
 7565TIP3   OH244185   4.825   0.724  16.703 -0.8811  0.3796  0.2431
 7565TIP3    H144186   4.920   0.714  16.693 -0.7422  0.2467  1.5636
 7565TIP3    H244187   4.799   0.778  16.629 -0.1283 -1.4030 -1.4102
 7566TIP3   OH244188   4.362   4.834   5.575  1.0090  0.0770 -0.4149
 7566TIP3    H144189   4.362   4.929   5.584  0.0965  0.1290 -0.8219
 7566TIP3    H244190   4.269   4.810   5.573  1.1850 -0.6151 -2.3976
 7567TIP3   OH244191   0.219   1.441   4.549 -0.5834  0.1785  0.1236
 7567TIP3    H144192   0.130   1.449   4.514  0.0025  1.9107 -1.1409
 7567TIP3    H244193   0.260   1.374   4.494 -1.5341 -1.9237  1.8231
 7568TIP3   OH244194   1.518   5.106   5.137 -0.1699  0.7279  0.3548
 7568TIP3    H144195   1.542   5.153   5.058 -1.0187  0.2531 -0.2037
 7568TIP3    H244196   1.422   5.111   5.140 -0.2936 -0.9869  0.2431
 7569TIP3   OH244197   5.015   1.992  11.419 -0.2580 -0.1013  0.0278
 7569TIP3    H144198   5.021   2.010  11.513  1.3093  2.1455 -0.4340
 7569TIP3    H244199   4.972   2.069  11.382  0.9886 -0.0180 -1.3346
 7570TIP3   OH244200   1.955   6.733  14.455  0.5320  0.3371  0.7597
 7570TIP3    H144201   1.990   6.661  14.508  2.5469  0.7236  0.0271
 7570TIP3    H244202   2.021   6.801  14.459 -1.0392  1.9345  0.8821
 7571TIP3   OH244203   0.361   6.302  16.831  0.0357  0.0275  0.0332
 7571TIP3    H144204   0.437   6.244  16.829  0.9725  1.2028  0.7351
 7571TIP3    H244205   0.329   6.304  16.741  0.3274 -1.1038 -0.1127
 7572TIP3   OH244206   1.473   2.386   2.335 -0.1837 -0.2607 -0.2995
 7572TIP3    H144207   1.413   2.414   2.404  0.4609  2.0504 -0.5943
 7572TIP3    H244208   1.560   2.407   2.368  0.2554 -0.7459 -1.1105
 7573TIP3   OH244209   2.597   6.758  13.417  0.9157  0.0806  0.1397
 7573TIP3    H144210   2.604   6.827  13.351 -0.0178 -1.0042 -1.1631
 7573TIP3    H244211   2.555   6.686  13.371  1.3438 -1.1613  1.6183
 7574TIP3   OH244212   2.264   6.540   2.819  0.4628 -0.1846 -0.2553
 7574TIP3    H144213   2.327   6.474   2.846  0.9275  0.7393  1.0144
 7574TIP3    H244214   2.215   6.499   2.747 -0.1552 -2.4092  1.3391
 7575TIP3   OH244215   0.170   4.277  13.874 -0.1392  0.5820  0.1796
 7575TIP3    H144216   0.079   4.248  13.883  0.3542 -0.9077  0.6198
 7575TIP3    H244217   0.168   4.342  13.804 -1.6618  1.1372  0.7052
 7576TIP3   OH244218   2.704   5.408  13.284 -0.2942 -0.0286 -0.4086
 7576TIP3    H144219   2.746   5.464  13.350  0.3261 -1.9610  0.9124
 7576TIP3    H244220   2.628   5.371  13.329 -0.2831 -0.8091 -1.0208
 7577TIP3   OH244221   6.838   0.174  12.055 -0.1392  0.0561  0.1797
 7577TIP3    H144222   6.823   0.127  11.973 -1.3336 -0.0426  0.4430
 7577TIP3    H244223   6.802   0.261  12.040 -1.4320 -0.3195  0.9712
 7578TIP3   OH244224   6.457   2.358   3.969 -0.1109  0.1096 -0.3645
 7578TIP3    H144225   6.382   2.341   3.913  0.5166 -0.7316 -0.9833
 7578TIP3    H244226   6.524   2.295   3.940  0.7454  0.6648  0.3287
 7579TIP3   OH244227   5.222   5.637   5.832 -0.2862  0.3750 -0.0310
 7579TIP3    H144228   5.197   5.729   5.824  2.1951  1.0405 -0.8059
 7579TIP3    H244229   5.195   5.598   5.749  3.1471  1.6578 -1.9458
 7580TIP3   OH244230   6.399   4.314  12.597  0.4672  0.2008 -0.1106
 7580TIP3    H144231   6.418   4.403  12.628  0.8683  0.6855 -1.6639
 7580TIP3    H244232   6.371   4.267  12.676  0.0858  1.7377  0.7237
 7581TIP3   OH244233   5.017   6.285   4.952  0.4342  0.5536 -0.1927
 7581TIP3    H144234   5.045   6.193   4.962 -1.0945 -0.1050 -1.5757
 7581TIP3    H244235   4.984   6.308   5.039  0.6823 -0.2698  0.1384
 7582TIP3   OH244236   2.148   2.345  15.420  0.2813  0.2541 -0.6261
 7582TIP3    H144237   2.129   2.295  15.341  1.2150 -1.3788  0.1287
 7582TIP3    H244238   2.065   2.345  15.468 -0.9451  3.1205 -2.4789
 7583TIP3   OH244239   0.376   3.641  13.277  0.5699 -0.5240 -0.3169
 7583TIP3    H144240   0.375   3.715  13.217  0.7764 -1.4564 -1.4967
 7583TIP3    H244241   0.347   3.566  13.225  2.0095 -1.6309  0.3695
 7584TIP3   OH244242   3.022   0.438  12.315  0.6478 -0.0237  0.3441
 7584TIP3    H144243   3.049   0.529  12.331  0.6364 -0.0786  0.6884
 7584TIP3    H244244   2.941   0.446  12.265  1.3683  0.1403 -0.8331
 7585TIP3   OH244245   1.667   3.637  11.264  0.0070 -0.2090  0.0029
 7585TIP3    H144246   1.740   3.640  11.326 -1.5522  1.1003  1.9150
 7585TIP3    H244247   1.699   3.683  11.187  0.4787  2.6126  1.7416
 7586TIP3   OH244248   3.454   0.150   4.742  0.2205 -0.1108  0.1585
 7586TIP3    H144249   3.529   0.128   4.799 -0.5760 -1.9473  0.5697
 7586TIP3    H244250   3.493   0.200   4.670  1.7672 -0.5847  0.6162
 7587TIP3   OH244251   2.979   6.287   2.111  0.6894 -0.1249  0.3759
 7587TIP3    H144252   3.064   6.329   2.098  0.0623  0.9423 -0.3943
 7587TIP3    H244253   2.917   6.340   2.061 -0.3850 -1.0971  0.6152
 7588TIP3   OH244254   6.187   1.962  13.376  0.4300  0.6477 -0.0612
 7588TIP3    H144255   6.120   1.895  13.364 -1.4086  2.6240 -1.5412
 7588TIP3    H244256   6.263   1.929  13.328 -0.2580 -0.5730 -0.3500
 7589TIP3   OH244257   2.361   4.734  10.708 -0.6512 -0.2330 -0.1798
 7589TIP3    H144258   2.344   4.816  10.661 -0.0906 -0.2204 -0.3705
 7589TIP3    H244259   2.276   4.691  10.711 -0.7219 -0.2098 -1.1831
 7590TIP3   OH244260   3.544   4.422  16.615 -0.4370 -0.0851  0.0175
 7590TIP3    H144261   3.587   4.452  16.535 -1.4145 -0.8364 -0.8232
 7590TIP3    H244262   3.492   4.347  16.588 -1.2083 -0.0421  1.2592
 7591TIP3   OH244263   6.820   0.289  14.988 -0.0607  0.0119 -0.1211
 7591TIP3    H144264   6.881   0.216  14.975  0.0240  0.0997 -0.2155
 7591TIP3    H244265   6.864   0.344  15.054 -1.0505 -1.0820  1.5354
 7592TIP3   OH244266   3.614   0.494  14.218 -0.0963 -0.7748 -0.3462
 7592TIP3    H144267   3.693   0.463  14.173  1.0131  1.2246  0.1228
 7592TIP3    H244268   3.573   0.553  14.155  0.4495  0.5691  0.5301
 7593TIP3   OH244269   6.229   5.796   1.024 -0.4319 -0.1861  0.6589
 7593TIP3    H144270   6.274   5.867   1.071  1.8378 -0.9990 -0.1395
 7593TIP3    H244271   6.229   5.723   1.086 -0.2376 -0.3346  0.4812
 7594TIP3   OH244272   5.983   0.351   2.417 -0.3839  0.4110  0.5428
 7594TIP3    H144273   5.967   0.442   2.393  0.4672  0.3660 -0.2597
 7594TIP3    H244274   5.898   0.309   2.408 -0.4792  0.8155 -0.5988
 7595TIP3   OH244275   0.525   1.205   1.919 -0.5267 -0.1570 -0.6106
 7595TIP3    H144276   0.519   1.168   1.831  0.3192  1.3566 -1.3485
 7595TIP3    H244277   0.615   1.234   1.927 -0.2786 -1.2748  1.2243
 7596TIP3   OH244278   0.852   4.982  13.448  0.0534 -0.1516 -0.2260
 7596TIP3    H144279   0.940   4.976  13.412  0.0961 -0.8969 -0.0091
 7596TIP3    H244280   0.820   4.892  13.450 -1.0154  0.1842 -1.0290
 7597TIP3   OH244281   4.826   6.793  15.600  0.3514  0.1828 -0.1005
 7597TIP3    H144282   4.886   6.865  15.579 -0.9880  0.4457 -3.6276
 7597TIP3    H244283   4.764   6.833  15.661  0.5739  1.5794 -0.7281
 7598TIP3   OH244284   6.369   4.905  15.375 -0.2146 -0.3169 -0.8043
 7598TIP3    H144285   6.411   4.841  15.433 -0.9095  0.6794  0.8397
 7598TIP3    H244286   6.391   4.874  15.287  2.1232 -1.0637 -0.0485
 7599TIP3   OH244287   1.488   6.489   2.902  0.0998 -0.2299  0.9928
 7599TIP3    H144288   1.413   6.432   2.921 -0.1120  0.0536  1.0157
 7599TIP3    H244289   1.553   6.431   2.862 -0.9545 -0.0903 -1.0696
 7600TIP3   OH244290   2.308   6.403  12.525 -0.4968  0.6027  0.0852
 7600TIP3    H144291   2.320   6.477  12.585 -0.0546 -1.8628  3.3203
 7600TIP3    H244292   2.215   6.402  12.506 -0.9853  0.4601  2.2572
 7601TIP3   OH244293   4.594   2.799   5.329 -0.2809  0.5950  0.1208
 7601TIP3    H144294   4.657   2.731   5.354 -1.3186 -1.6028 -2.7034
 7601TIP3    H244295   4.642   2.881   5.343  2.1669 -0.8139  0.7762
 7602TIP3   OH244296   0.457   1.074  11.149 -0.1676  0.1581 -0.1665
 7602TIP3    H144297   0.444   1.064  11.055 -1.0484 -0.9800  0.0674
 7602TIP3    H244298   0.373   1.050  11.189  0.3993 -0.0707  0.9506
 7603TIP3   OH244299   6.076   5.248  10.531 -0.1783  0.2414 -0.3666
 7603TIP3    H144300   6.050   5.181  10.467  1.9204 -0.6041 -0.4186
 7603TIP3    H244301   6.160   5.281  10.498  0.6545  0.2206  1.6029
 7604TIP3   OH244302   4.044   6.547   2.777 -0.0791  0.2885 -0.1174
 7604TIP3    H144303   4.054   6.500   2.694 -2.4865  0.4458 -0.5725
 7604TIP3    H244304   3.983   6.494   2.827  0.4339  0.8158  1.1020
 7605TIP3   OH244305   6.360   0.096  16.405 -0.0570  0.4271  0.5939
 7605TIP3    H144306   6.444   0.115  16.448 -0.1256  0.0922  0.8882
 7605TIP3    H244307   6.294   0.136  16.461 -0.4242 -2.7245  2.6656
 7606TIP3   OH244308   0.140   6.801   3.723 -0.6115  0.3098  0.0805
 7606TIP3    H144309   0.189   6.876   3.756 -1.5737  0.4532  1.2278
 7606TIP3    H244310   0.057   6.837   3.692  0.0861  0.1173 -2.1997
 7607TIP3   OH244311   5.522   5.277   4.799  0.0114 -0.3748 -0.0616
 7607TIP3    H144312   5.569   5.218   4.859  0.4810  0.5872  0.5412
 7607TIP3    H244313   5.460   5.324   4.855 -0.8766 -0.8019 -0.6648
 7608TIP3   OH244314   6.497   3.068  16.158 -0.1040 -0.1133  0.0799
 7608TIP3    H144315   6.572   3.015  16.130  0.1260  0.3491 -0.1981
 7608TIP3    H244316   6.449   3.087  16.077  0.0890  0.5079  0.1014
 7609TIP3   OH244317   3.990   5.431  13.418 -0.5819  0.1392  0.5514
 7609TIP3    H144318   3.922   5.365  13.408 -0.6965 -0.0506  2.2345
 7609TIP3    H244319   3.943   5.511  13.442 -0.2946  0.2751  0.6679
 7610TIP3   OH244320   0.241   3.849   2.397 -0.0647  0.3022 -0.7186
 7610TIP3    H144321   0.317   3.840   2.454  0.6481 -1.7658 -1.8763
 7610TIP3    H244322   0.267   3.914   2.332  0.8510 -0.6053 -1.2803
 7611TIP3   OH244323   5.892   6.322   2.117 -0.0300  0.0155  0.2379
 7611TIP3    H144324   5.893   6.247   2.057  0.7236 -0.5482  0.9176
 7611TIP3    H244325   5.890   6.282   2.205 -2.5462  0.8212  0.6206
 7612TIP3   OH244326   2.602   0.494  14.231 -0.0371  0.1448  0.4275
 7612TIP3    H144327   2.535   0.525  14.292 -0.6439  1.6397 -0.9322
 7612TIP3    H244328   2.677   0.551  14.247  0.3845 -0.5137  0.8642
 7613TIP3   OH244329   3.540   2.610  11.385 -0.3130 -0.2855  0.3433
 7613TIP3    H144330   3.560   2.644  11.472 -1.5657  1.8426 -0.1200
 7613TIP3    H244331   3.605   2.650  11.328 -0.1784 -0.7939  0.1322
 7614TIP3   OH244332   3.029   5.012  14.209  0.3204 -0.7492 -0.3472
 7614TIP3    H144333   3.005   4.922  14.231 -0.4976 -0.5930 -0.5645
 7614TIP3    H244334   2.948   5.062  14.221  1.7234  0.9112  4.5942
 7615TIP3   OH244335   4.712   3.988  13.340  0.4983 -0.3967 -0.0404
 7615TIP3    H144336   4.791   3.941  13.365  0.8528 -0.7721 -1.7077
 7615TIP3    H244337   4.641   3.924  13.351  0.5796 -0.3974  0.4585
 7616TIP3   OH244338   6.805   2.989  12.418 -0.4692 -0.1933  0.2554
 7616TIP3    H144339   6.797   2.952  12.505  0.3061  1.7515  1.2277
 7616TIP3    H244340   6.769   3.077  12.425  2.4794  1.2331 -0.4513
 7617TIP3   OH244341   5.867   0.227  14.150 -0.3905  0.5586  0.0550
 7617TIP3    H144342   5.945   0.220  14.094 -1.2066 -0.4484 -0.9976
 7617TIP3    H244343   5.866   0.319  14.176 -0.0626  1.1240 -1.7563
 7618TIP3   OH244344   1.222   1.864   4.280 -0.5080  0.1875 -0.4046
 7618TIP3    H144345   1.157   1.915   4.328 -0.6592 -0.3152 -0.0679
 7618TIP3    H244346   1.173   1.791   4.242 -0.1154 -0.2979  0.0036
 7619TIP3   OH244347   1.482   4.641   3.593  0.0914  0.1458 -0.4654
 7619TIP3    H144348   1.521   4.715   3.545  1.2184  0.5654  1.0111
 7619TIP3    H244349   1.509   4.564   3.543 -0.8179  0.6731 -1.8489
 7620TIP3   OH244350   3.266   6.700  16.537 -0.3119 -0.5381  0.1992
 7620TIP3    H144351   3.312   6.655  16.467 -0.4829  0.3154 -0.4905
 7620TIP3    H244352   3.303   6.665  16.617  1.5081  0.0667 -0.3207
 7621TIP3   OH244353   5.119   1.091   3.705 -0.2122  0.1200 -0.9554
 7621TIP3    H144354   5.075   1.039   3.637  0.6074  0.5777 -1.8777
 7621TIP3    H244355   5.179   1.148   3.656 -1.2592  2.1334 -0.0028
 7622TIP3   OH244356   5.454   4.322  14.006  0.1018  0.3346  0.0125
 7622TIP3    H144357   5.363   4.328  13.978 -0.1378 -0.0876  0.6729
 7622TIP3    H244358   5.481   4.233  13.982  0.3352  0.4470 -0.1547
 7623TIP3   OH244359   3.806   6.076   4.504 -0.3017  0.1172  0.6321
 7623TIP3    H144360   3.795   6.035   4.418  0.5044 -1.0972  1.0745
 7623TIP3    H244361   3.761   6.016   4.564 -0.5627  0.7777  1.1053
 7624TIP3   OH244362   5.296   1.954  16.363  0.1362 -0.1090 -0.1566
 7624TIP3    H144363   5.206   1.939  16.333 -0.0168  0.6968 -0.1226
 7624TIP3    H244364   5.325   1.868  16.394 -1.9567  0.2774  3.4716
 7625TIP3   OH244365   6.677   6.405  11.961  0.0940  0.1427  0.2958
 7625TIP3    H144366   6.751   6.464  11.975 -1.3340  1.8639  1.0270
 7625TIP3    H244367   6.635   6.398  12.047 -0.8201 -0.4609 -0.1753
 7626TIP3   OH244368   5.410   3.259   2.273  0.5382 -0.3917  0.1354
 7626TIP3    H144369   5.421   3.342   2.226  1.1609 -0.8010 -0.4728
 7626TIP3    H244370   5.407   3.193   2.204 -1.2957 -0.7741  0.5345
 7627TIP3   OH244371   3.376   2.866   1.815 -0.1743 -0.1880 -0.2272
 7627TIP3    H144372   3.435   2.915   1.758 -0.7526  0.6071 -0.1563
 7627TIP3    H244373   3.416   2.779   1.822 -1.0416 -0.9752 -3.4027
 7628TIP3   OH244374   3.758   2.547   2.547  0.1949 -0.1865  0.2956
 7628TIP3    H144375   3.735   2.457   2.571 -0.6813 -0.3060 -0.9161
 7628TIP3    H244376   3.718   2.601   2.616 -2.1561 -0.5371 -0.6995
 7629TIP3   OH244377   5.673   1.277   0.281  0.0722 -0.0970  0.1020
 7629TIP3    H144378   5.709   1.244   0.364 -0.1751 -0.3243  0.1177
 7629TIP3    H244379   5.587   1.236   0.274  0.8672 -1.6198 -1.2220
 7630TIP3   OH244380   4.659   1.965   3.118 -0.4526 -0.2643  0.2249
 7630TIP3    H144381   4.564   1.962   3.124 -0.4086  0.0499  1.3358
 7630TIP3    H244382   4.684   2.045   3.165  0.2777  0.4368 -1.2947
 7631TIP3   OH244383   4.430   2.959   0.551  0.8976  0.3874  0.6099
 7631TIP3    H144384   4.517   2.945   0.588  1.1154  0.5417  0.1653
 7631TIP3    H244385   4.370   2.921   0.615  1.3012  0.1426  0.8451
 7632TIP3   OH244386   6.483   3.463  15.681 -0.0265 -0.5316 -0.4068
 7632TIP3    H144387   6.438   3.402  15.622 -0.4859 -1.5779  0.9525
 7632TIP3    H244388   6.418   3.531  15.699 -0.6915 -1.3997  0.6050
 7633TIP3   OH244389   1.911   3.759   3.187 -0.7401  0.0661  0.3698
 7633TIP3    H144390   1.936   3.825   3.252  0.8199 -0.1162 -0.0097
 7633TIP3    H244391   1.891   3.681   3.237 -2.0341  0.6298  0.7825
 7634TIP3   OH244392   1.186   4.115  13.901 -0.2174 -0.1981 -0.0105
 7634TIP3    H144393   1.261   4.153  13.854  1.0545 -1.3294  1.0172
 7634TIP3    H244394   1.114   4.120  13.839  0.6688  1.0330 -1.0027
 7635TIP3   OH244395   2.221   1.027  14.515 -0.6891  0.0098  0.2080
 7635TIP3    H144396   2.273   1.083  14.457 -0.9971 -0.4496 -0.5223
 7635TIP3    H244397   2.170   1.088  14.568 -0.4259  0.4336 -0.0202
 7636TIP3   OH244398   3.896   0.734  11.091 -1.0464 -0.1062 -0.1288
 7636TIP3    H144399   3.876   0.825  11.111 -0.3351 -0.2968  1.6211
 7636TIP3    H244400   3.990   0.726  11.106 -1.2166 -1.2747  0.3878
 7637TIP3   OH244401   2.208   0.328   4.902 -0.6082 -0.7595  0.0266
 7637TIP3    H144402   2.166   0.256   4.855  1.0565 -0.5234 -1.9289
 7637TIP3    H244403   2.138   0.393   4.911 -1.4262 -1.5096 -0.6078
 7638TIP3   OH244404   5.188   0.031  14.144 -0.2578 -0.3376 -0.3431
 7638TIP3    H144405   5.148   0.013  14.229  0.7467 -0.3863  0.1364
 7638TIP3    H244406   5.139   0.106  14.111 -1.1084 -0.7440 -0.0374
 7639TIP3   OH244407   4.418   4.221   4.070  0.1990  0.3570 -0.0975
 7639TIP3    H144408   4.448   4.130   4.061 -0.0315  0.4128 -1.7505
 7639TIP3    H244409   4.453   4.266   3.993 -0.1172  1.5562  0.4384
 7640TIP3   OH244410   3.249   1.940   0.701 -0.1304  0.3198 -0.1082
 7640TIP3    H144411   3.344   1.949   0.712  0.5676 -3.5893 -1.2351
 7640TIP3    H244412   3.232   1.976   0.614 -0.2497  3.2934  1.0340
 7641TIP3   OH244413   6.581   1.473   0.880 -0.3838  0.0720 -0.6224
 7641TIP3    H144414   6.505   1.495   0.826 -0.8000  0.1455 -0.0100
 7641TIP3    H244415   6.593   1.379   0.868 -1.5186 -0.2251  0.4841
 7642TIP3   OH244416   5.918   0.313  12.169  0.2832  0.4739 -0.0326
 7642TIP3    H144417   5.923   0.219  12.183 -1.2653  0.3891  0.0377
 7642TIP3    H244418   5.833   0.339  12.203  0.0141  1.6495 -1.4897
 7643TIP3   OH244419   6.481   0.526   1.726  0.0271  0.4428 -0.2273
 7643TIP3    H144420   6.449   0.458   1.785  0.2923 -0.7123 -1.3552
 7643TIP3    H244421   6.554   0.566   1.773 -0.0827 -0.1162  0.4383
 7644TIP3   OH244422   6.777   4.001  13.539 -0.2504 -0.1002  0.7333
 7644TIP3    H144423   6.797   4.084  13.582  1.6607  0.0958 -0.4368
 7644TIP3    H244424   6.788   4.019  13.446 -3.0583 -0.8377  0.1581
 7645TIP3   OH244425   4.191   5.668   0.923 -0.0796 -0.5793  0.1452
 7645TIP3    H144426   4.187   5.752   0.970 -0.2134 -0.0156 -0.8485
 7645TIP3    H244427   4.115   5.670   0.865  0.7022 -0.7685 -0.9080
 7646TIP3   OH244428   0.416   1.659   2.268 -0.6210  0.0128  0.6615
 7646TIP3    H144429   0.439   1.568   2.290 -1.0862  0.1730  1.9155
 7646TIP3    H244430   0.491   1.690   2.217 -0.5710 -1.1495 -0.0129
 7647TIP3   OH244431   1.585   4.304   1.445  0.0851  0.4643 -0.1845
 7647TIP3    H144432   1.576   4.280   1.538  2.0399  3.4558  0.9384
 7647TIP3    H244433   1.529   4.382   1.435 -2.4563 -1.4576 -2.4352
 7648TIP3   OH244434   2.740   4.236   5.021 -0.1126  0.1341  0.1736
 7648TIP3    H144435   2.787   4.294   5.082 -1.2712 -1.1273  2.3789
 7648TIP3    H244436   2.792   4.156   5.019  0.2076  0.3386 -1.0147
 7649TIP3   OH244437   2.234   1.616   1.265 -0.1677  0.0396 -0.3408
 7649TIP3    H144438   2.188   1.543   1.222 -0.8205  0.2800 -0.0582
 7649TIP3    H244439   2.168   1.684   1.272 -0.0605  0.0156  1.0296
 7650TIP3   OH244440   0.985   6.037   2.300 -0.0263 -0.6056  0.1756
 7650TIP3    H144441   0.903   6.077   2.271 -0.7408 -2.8204 -1.0690
 7650TIP3    H244442   1.053   6.089   2.257 -0.9093 -0.7949 -1.5180
 7651TIP3   OH244443   4.704   0.917  13.583  0.2180  0.1625 -0.6474
 7651TIP3    H144444   4.767   0.949  13.518  0.9600  1.0518  0.4654
 7651TIP3    H244445   4.748   0.930  13.667 -1.5695  1.1583  0.1970
 7652TIP3   OH244446   6.759   0.517   0.040 -0.8238  0.1391  0.5059
 7652TIP3    H144447   6.812   0.474  -0.027 -1.2574  0.8017 -0.2739
 7652TIP3    H244448   6.789   0.608   0.040  0.5723 -0.2632  2.6221
 7653TIP3   OH244449   5.067   6.377  17.186 -0.0664 -0.3517 -0.4407
 7653TIP3    H144450   5.134   6.420  17.133  0.6059 -2.2475 -1.2040
 7653TIP3    H244451   5.059   6.290  17.148 -1.8168 -0.7137  0.6691
 7654TIP3   OH244452   4.853   5.010  14.221  0.5086 -0.4633 -0.3308
 7654TIP3    H144453   4.830   4.935  14.166 -0.0832 -1.8809  1.7335
 7654TIP3    H244454   4.948   5.003  14.232  0.4761 -0.8223 -0.2740
 7655TIP3   OH244455   0.397   6.165   3.273  0.1440  0.0809 -0.6538
 7655TIP3    H144456   0.339   6.236   3.302 -1.1922 -1.0489 -0.4198
 7655TIP3    H244457   0.346   6.085   3.289  1.6375 -0.9393 -0.8204
 7656TIP3   OH244458   0.460   6.566   5.440  0.2635 -0.1804 -0.4751
 7656TIP3    H144459   0.444   6.543   5.349  0.9633 -0.4082 -0.5507
 7656TIP3    H244460   0.391   6.628   5.463 -0.3426 -0.6824 -0.9380
 7657TIP3   OH244461   0.743   1.788   6.383  0.5912  0.1943  0.1286
 7657TIP3    H144462   0.812   1.754   6.326  0.4556 -0.9795  0.6338
 7657TIP3    H244463   0.787   1.812   6.464  0.7525  1.6783 -0.3714
 7658TIP3   OH244464   2.793   1.153   5.078  0.3476 -0.5769 -0.4533
 7658TIP3    H144465   2.842   1.071   5.079 -0.8675 -1.3271 -0.2011
 7658TIP3    H244466   2.732   1.144   5.004 -2.0617 -1.3348  1.4940
 7659TIP3   OH244467   6.111   5.320   5.270  0.1098  0.2030 -0.0971
 7659TIP3    H144468   6.035   5.262   5.275  1.3953 -1.6094 -0.6651
 7659TIP3    H244469   6.091   5.390   5.333 -1.8193 -0.4398  0.0821
 7660TIP3   OH244470   2.817   3.694   2.761 -0.1207  0.1088 -0.1374
 7660TIP3    H144471   2.762   3.644   2.821 -0.1247  0.2946  0.0158
 7660TIP3    H244472   2.765   3.702   2.681 -0.6104  0.8675  0.2338
 7661TIP3   OH244473   2.282   3.428  17.101  0.3019 -0.5386 -0.5836
 7661TIP3    H144474   2.343   3.378  17.046  0.2377  0.4633 -1.6111
 7661TIP3    H244475   2.318   3.420  17.189  1.9199  0.0001 -1.1564
 7662TIP3   OH244476   2.095   2.172  15.231  0.1728 -0.0637  0.2542
 7662TIP3    H144477   2.132   2.084  15.231 -0.3973 -0.3150 -0.8003
 7662TIP3    H244478   2.117   2.208  15.145 -1.4824  0.0039 -0.1784
 7663TIP3   OH244479   1.851   3.834   4.307 -0.0100  0.4454 -0.2824
 7663TIP3    H144480   1.886   3.834   4.218  0.0457 -0.0437 -0.2630
 7663TIP3    H244481   1.908   3.895   4.354 -0.3666  1.1118 -0.7031
 7664TIP3   OH244482   4.508   5.660   4.466 -0.3595  0.1333  0.2616
 7664TIP3    H144483   4.511   5.702   4.552  0.0440  0.6745 -0.0103
 7664TIP3    H244484   4.525   5.731   4.404  2.3458 -0.7230 -0.1017
 7665TIP3   OH244485   6.021   1.981   5.329  0.0624 -0.9551  0.5988
 7665TIP3    H144486   6.012   1.984   5.234 -0.1114  0.2231  0.6385
 7665TIP3    H244487   6.094   2.040   5.348 -1.1109  0.3221  1.3201
 7666TIP3   OH244488   6.330   0.317  12.732 -0.2843  0.0694  0.1711
 7666TIP3    H144489   6.371   0.387  12.682 -0.7254 -0.6398 -1.2324
 7666TIP3    H244490   6.242   0.350  12.752 -0.7049 -0.2917 -1.0060
 7667TIP3   OH244491   4.732   0.114   1.476 -0.1421  0.0237  0.0967
 7667TIP3    H144492   4.704   0.070   1.556 -1.2622 -0.3094 -0.4575
 7667TIP3    H244493   4.710   0.206   1.490  1.6501  0.3586  1.0145
 7668TIP3   OH244494   5.113   2.475  11.106 -0.4319 -0.1718  0.0790
 7668TIP3    H144495   5.049   2.420  11.063 -0.1731  0.6057 -1.3572
 7668TIP3    H244496   5.176   2.498  11.038  0.2039  0.7995  0.9502
 7669TIP3   OH244497   0.925   6.460  13.249  0.6620 -0.1737  0.5491
 7669TIP3    H144498   0.956   6.537  13.201  1.5154 -0.7599  0.1469
 7669TIP3    H244499   1.004   6.415  13.277  0.2379 -2.2117 -1.3146
 7670TIP3   OH244500   5.559   5.900   6.178  0.4919  0.6964  0.1879
 7670TIP3    H144501   5.565   5.985   6.221 -0.9194  0.3014  1.2665
 7670TIP3    H244502   5.480   5.860   6.216  0.0700 -0.3332 -1.6480
 7671TIP3   OH244503   2.539   6.828   4.642 -0.6004 -0.1875 -0.1705
 7671TIP3    H144504   2.590   6.887   4.586 -2.3405 -0.3629 -2.0433
 7671TIP3    H244505   2.604   6.770   4.680  0.6963 -0.0535 -2.0327
 7672TIP3   OH244506   6.290   3.417   4.508 -0.3085 -0.2429  0.5105
 7672TIP3    H144507   6.273   3.327   4.533  0.5488 -0.0380  1.9506
 7672TIP3    H244508   6.260   3.469   4.582  2.6639  0.3700  1.4132
 7673TIP3   OH244509   3.280   2.736  12.741 -0.0573 -0.1522  0.0861
 7673TIP3    H144510   3.274   2.653  12.789 -2.1515  0.5833  1.2600
 7673TIP3    H244511   3.327   2.794  12.800  1.0798 -0.3703 -0.5798
 7674TIP3   OH244512   4.781   2.894   1.752 -0.0840  0.4870 -0.0446
 7674TIP3    H144513   4.856   2.845   1.719  0.3199  0.9089  0.2242
 7674TIP3    H244514   4.741   2.837   1.816  0.1165  0.3314 -0.0574
 7675TIP3   OH244515   2.139   2.310   5.665  0.4584 -0.2321  0.0582
 7675TIP3    H144516   2.183   2.395   5.665 -3.0057  1.8007 -2.1373
 7675TIP3    H244517   2.091   2.308   5.748  1.9922 -1.0017  0.9749
 7676TIP3   OH244518   0.883   5.170   0.963  0.0353 -0.2475 -0.4397
 7676TIP3    H144519   0.876   5.166   1.058 -1.6904 -2.2017 -0.5825
 7676TIP3    H244520   0.847   5.256   0.940  1.2098  0.5818  0.6853
 7677TIP3   OH244521   6.573   6.141  16.955 -0.4876 -0.0712 -0.2623
 7677TIP3    H144522   6.539   6.162  17.042 -2.4571 -0.7070 -0.8250
 7677TIP3    H244523   6.591   6.226  16.915  2.2621  0.2313  1.3537
 7678TIP3   OH244524   0.482   0.860   2.183 -0.1276 -0.0747  0.3840
 7678TIP3    H144525   0.495   0.810   2.264  2.2415  0.5627  0.4834
 7678TIP3    H244526   0.462   0.949   2.213 -1.2155 -0.2417  0.2152
 7679TIP3   OH244527   5.888   3.948  13.292 -0.0622  0.0173  0.5810
 7679TIP3    H144528   5.894   4.033  13.335 -1.1156  1.0955 -1.2773
 7679TIP3    H244529   5.807   3.909  13.325  0.5018 -0.3794  1.5545
 7680TIP3   OH244530   3.093   1.346  10.638  0.5350 -0.0750 -0.0323
 7680TIP3    H144531   3.088   1.439  10.615  1.9220 -0.6258 -3.0664
 7680TIP3    H244532   3.026   1.334  10.706 -0.7799  2.7911 -0.6882
 7681TIP3   OH244533   1.941   1.678   0.908  0.2226  0.1353 -0.4054
 7681TIP3    H144534   1.985   1.634   0.981 -0.1965  0.6953  0.1941
 7681TIP3    H244535   1.856   1.635   0.902  0.4011 -0.1683 -0.8197
 7682TIP3   OH244536   4.385   0.674  15.959 -0.4999 -0.2477 -0.1272
 7682TIP3    H144537   4.346   0.742  16.014 -0.7652 -0.7777  0.3565
 7682TIP3    H244538   4.345   0.686  15.873  1.9427  2.3798 -1.0770
 7683TIP3   OH244539   0.095   5.539  11.388  0.1576  0.1295  0.3236
 7683TIP3    H144540   0.070   5.471  11.451 -0.2735 -0.2511 -0.2497
 7683TIP3    H244541   0.050   5.618  11.420  0.1058 -0.0108  0.6058
 7684TIP3   OH244542   3.058   0.078  11.267 -0.3718 -0.2948  0.1049
 7684TIP3    H144543   3.064   0.048  11.176  0.5362  2.5105 -0.8500
 7684TIP3    H244544   2.980   0.134  11.269 -0.0286  0.1729  0.8820
 7685TIP3   OH244545   1.029   1.848   5.650 -0.1745  0.2221 -0.2740
 7685TIP3    H144546   1.077   1.788   5.708  0.2444  0.5028 -0.3217
 7685TIP3    H244547   1.039   1.934   5.692 -0.8474  0.2461 -0.1575
 7686TIP3   OH244548   0.505   5.468   1.173 -0.5428  0.4143 -0.1543
 7686TIP3    H144549   0.475   5.380   1.195  0.7614  0.3850  1.7567
 7686TIP3    H244550   0.567   5.455   1.101  0.1502 -0.3260  0.5619
 7687TIP3   OH244551   5.323   4.172  16.967 -0.1260  0.2971 -0.0888
 7687TIP3    H144552   5.334   4.265  16.982 -1.1824  0.3678  0.2896
 7687TIP3    H244553   5.290   4.137  17.050 -0.6531 -0.2457 -0.5110
 7688TIP3   OH244554   2.417   5.428  12.217 -0.0760 -0.1288 -0.0868
 7688TIP3    H144555   2.501   5.393  12.188 -1.5542 -2.2999 -2.0933
 7688TIP3    H244556   2.412   5.514  12.174  0.6839 -0.3890 -0.7285
 7689TIP3   OH244557   4.747   3.272   4.464  0.1807  0.4661  0.2284
 7689TIP3    H144558   4.730   3.178   4.478  2.2030 -0.1177 -0.8488
 7689TIP3    H244559   4.830   3.288   4.509  0.0707  1.6621  0.0411
 7690TIP3   OH244560   6.000   2.516  15.513 -0.0896 -0.0680 -0.3835
 7690TIP3    H144561   6.087   2.506  15.474  0.7061  0.1045  1.2668
 7690TIP3    H244562   5.992   2.609  15.531 -0.5329 -0.1106 -0.3643
 7691TIP3   OH244563   1.480   0.463  10.804  0.0337 -0.1376  0.0515
 7691TIP3    H144564   1.567   0.503  10.805 -0.2724  0.5341  0.1127
 7691TIP3    H244565   1.497   0.369  10.805  0.8993 -0.2875 -4.8463
 7692TIP3   OH244566   4.112   6.498  14.600 -0.2130 -1.0099 -0.0949
 7692TIP3    H144567   4.150   6.543  14.675 -1.8876 -0.5297  0.5090
 7692TIP3    H244568   4.074   6.418  14.635 -0.5415 -1.0491 -0.5295
 7693TIP3   OH244569   0.810   6.214   2.158  0.1367  0.2328 -0.5370
 7693TIP3    H144570   0.833   6.240   2.069 -0.6374 -1.3055 -1.2315
 7693TIP3    H244571   0.774   6.292   2.198 -0.1036  0.7935 -1.7928
 7694TIP3   OH244572   4.199   6.653   0.066  0.3363 -0.1387  0.5072
 7694TIP3    H144573   4.161   6.605  -0.008  0.3582  0.2120  0.2661
 7694TIP3    H244574   4.131   6.652   0.132 -0.6871  1.7588 -0.4608
 7695TIP3   OH244575   3.793   0.726   4.551 -0.3158 -0.4174 -0.2136
 7695TIP3    H144576   3.847   0.647   4.558  1.0020  0.3920 -0.8855
 7695TIP3    H244577   3.809   0.759   4.463 -3.2034 -1.0171 -1.0513
 7696TIP3   OH244578   6.194   3.388  13.440  0.0693  0.4902 -0.0039
 7696TIP3    H144579   6.114   3.418  13.397  0.2225 -0.0754 -0.6945
 7696TIP3    H244580   6.178   3.404  13.533 -0.8884  0.2963 -0.1224
 7697TIP3   OH244581   5.654   1.524  12.558 -0.1485  0.3142 -0.2099
 7697TIP3    H144582   5.729   1.483  12.602 -0.1749  0.1180 -0.3473
 7697TIP3    H244583   5.649   1.611  12.597  0.6575  0.6357 -0.7856
 7698TIP3   OH244584   0.494   5.711   0.785  0.0365 -0.3319 -0.1908
 7698TIP3    H144585   0.449   5.630   0.805 -0.6367  0.3477  1.1414
 7698TIP3    H244586   0.428   5.779   0.796  0.5410  0.3964 -1.4497
 7699TIP3   OH244587   3.395   2.317   0.466  0.2754  0.7847  0.0345
 7699TIP3    H144588   3.442   2.236   0.445 -0.4881  0.6531 -1.3122
 7699TIP3    H244589   3.367   2.306   0.556  0.0607 -0.5257 -0.1731
 7700TIP3   OH244590   6.702   5.261   6.261  0.4247  0.1604  0.0809
 7700TIP3    H144591   6.656   5.320   6.321 -0.1003  0.8903 -1.0061
 7700TIP3    H244592   6.670   5.174   6.284 -0.9375  0.5747 -0.1307
 7701TIP3   OH244593   0.105   4.909   1.878 -0.0317 -0.2805  0.1419
 7701TIP3    H144594   0.068   4.822   1.863 -0.0508 -0.1453 -0.6551
 7701TIP3    H244595   0.074   4.961   1.804  1.3653 -0.0466 -0.3070
 7702TIP3   OH244596   5.435   2.515  14.038 -0.2259  0.0269  0.0605
 7702TIP3    H144597   5.355   2.537  13.989 -1.4813  0.6137  2.2580
 7702TIP3    H244598   5.429   2.421  14.053  0.0187 -0.1038 -0.6133
 7703TIP3   OH244599   1.010   5.432  16.449  0.5994 -0.3754  0.2251
 7703TIP3    H144600   1.068   5.492  16.402 -1.3965 -0.5028 -2.6547
 7703TIP3    H244601   1.020   5.348  16.405 -0.6933 -0.7574  0.5863
 7704TIP3   OH244602   1.500   5.833   1.340 -0.4318  0.2262 -0.2880
 7704TIP3    H144603   1.511   5.802   1.430 -0.9059 -1.1794 -0.6853
 7704TIP3    H244604   1.586   5.822   1.300 -0.0248  1.5488  0.1717
 7705TIP3   OH244605   5.078   6.641   1.589  0.9303 -0.1178 -0.5128
 7705TIP3    H144606   4.982   6.641   1.591  0.9211 -0.3296 -0.9053
 7705TIP3    H244607   5.102   6.557   1.551  1.2800 -0.1620 -0.2005
 7706TIP3   OH244608   1.555   3.592  12.768  0.1354  0.0145  0.8162
 7706TIP3    H144609   1.628   3.551  12.721 -0.6329 -0.8000  0.2866
 7706TIP3    H244610   1.504   3.518  12.801 -1.8578  0.4650 -1.0317
 7707TIP3   OH244611   1.903   3.943  15.481  0.1356 -0.2730 -0.3335
 7707TIP3    H144612   1.819   3.978  15.512  1.0656  1.0087  0.8925
 7707TIP3    H244613   1.882   3.900  15.398 -1.4764  1.4038 -0.8815
 7708TIP3   OH244614   0.280   1.637   6.626  0.0833  0.3850 -0.0283
 7708TIP3    H144615   0.288   1.610   6.718  1.1577  0.3822 -0.1086
 7708TIP3    H244616   0.316   1.563   6.576 -0.4692  0.3999 -0.4514
 7709TIP3   OH244617   4.008   4.298   5.655 -0.5773  0.2240 -0.7817
 7709TIP3    H144618   4.041   4.384   5.682 -0.6766 -0.5881  2.1877
 7709TIP3    H244619   3.925   4.287   5.701 -1.0813 -1.0810 -1.9079
 7710TIP3   OH244620   1.208   3.696   6.742  0.1990  0.2750 -0.6958
 7710TIP3    H144621   1.292   3.657   6.717 -0.3155 -1.3296 -0.0355
 7710TIP3    H244622   1.200   3.774   6.686  1.8318  0.1174 -1.1922
 7711TIP3   OH244623   3.730   4.855  13.426  0.0540  0.7489 -0.5459
 7711TIP3    H144624   3.766   4.804  13.498 -1.2615 -0.2078 -0.5291
 7711TIP3    H244625   3.750   4.803  13.348 -0.8826  0.4300 -0.5794
 7712TIP3   OH244626   3.676   2.666   0.942 -0.3200 -0.1318 -0.0913
 7712TIP3    H144627   3.725   2.723   0.883  0.4272 -0.7873 -0.1178
 7712TIP3    H244628   3.728   2.586   0.947  0.0985  0.2450  2.1767
 7713TIP3   OH244629   5.816   5.464  16.065  0.1890 -0.0320  0.3933
 7713TIP3    H144630   5.831   5.430  16.153 -4.6612 -3.2428  0.3636
 7713TIP3    H244631   5.873   5.410  16.009 -1.4031 -2.6776  1.1469
 7714TIP3   OH244632   4.251   5.220   0.239 -0.8491  0.5554  0.3225
 7714TIP3    H144633   4.204   5.137   0.231 -0.5234  0.4177 -0.1550
 7714TIP3    H244634   4.321   5.202   0.302 -1.4027  0.7510  1.0063
 7715TIP3   OH244635   4.222   3.550  15.834 -0.1093 -0.1286  0.1134
 7715TIP3    H144636   4.274   3.515  15.907 -1.3547  1.2209  1.7315
 7715TIP3    H244637   4.212   3.643  15.854  0.8684  0.6801 -2.6863
 7716TIP3   OH244638   0.858   4.045   5.098 -0.5082 -0.0937  0.1075
 7716TIP3    H144639   0.835   3.964   5.143 -2.1990  1.1158  1.5287
 7716TIP3    H244640   0.777   4.071   5.053 -0.2798  1.2640  0.4386
 7717TIP3   OH244641   6.578   5.818   5.749  0.4513 -0.0354  0.3659
 7717TIP3    H144642   6.545   5.816   5.659  2.2570  0.9679 -0.3555
 7717TIP3    H244643   6.632   5.739   5.757 -0.9985 -1.0026  1.1442
 7718TIP3   OH244644   2.552   2.657  14.186  0.3818  1.0173  0.7019
 7718TIP3    H144645   2.512   2.571  14.198  0.9361  0.6957  0.2997
 7718TIP3    H244646   2.538   2.702  14.269 -0.3628  0.7301  0.7408
 7719TIP3   OH244647   1.015   5.863   4.196 -0.0752 -0.4173  0.6979
 7719TIP3    H144648   1.104   5.843   4.166  0.0720  0.5078  0.5040
 7719TIP3    H244649   1.023   5.947   4.241 -0.6132 -0.9607  1.8531
 7720TIP3   OH244650   4.912   0.940   2.086  0.2579  0.5443 -0.5834
 7720TIP3    H144651   4.865   0.857   2.080 -0.0335  0.6487  0.0774
 7720TIP3    H244652   4.858   1.001   2.036  0.6954  0.2488 -1.4288
 7721TIP3   OH244653   1.573   2.364  13.010 -1.2902 -0.1870  0.0189
 7721TIP3    H144654   1.526   2.401  13.085  0.0862 -0.1262  0.8830
 7721TIP3    H244655   1.584   2.272  13.032  1.6123  0.3613  1.3108
 7722TIP3   OH244656   1.938   4.697   0.720  0.4050 -0.5796 -0.1476
 7722TIP3    H144657   1.889   4.779   0.728 -0.4398 -0.8596 -2.0726
 7722TIP3    H244658   2.009   4.717   0.660  0.0763 -1.2895 -0.7906
 7723TIP3   OH244659   3.494   6.366   4.803 -0.6836 -0.9689 -0.1196
 7723TIP3    H144660   3.564   6.429   4.789 -0.9877 -0.7854 -0.8388
 7723TIP3    H244661   3.446   6.399   4.879  0.9916 -1.9830  1.4824
 7724TIP3   OH244662   4.592   5.153  12.185  0.1422  0.1951  0.3121
 7724TIP3    H144663   4.618   5.120  12.099  1.7224  0.4778  0.6520
 7724TIP3    H244664   4.641   5.100  12.247  1.8144  2.2492  0.8972
 7725TIP3   OH244665   6.442   1.705  14.567  0.4510  0.7054 -0.4840
 7725TIP3    H144666   6.519   1.648  14.566 -0.3807 -0.4724 -1.9115
 7725TIP3    H244667   6.432   1.733  14.476 -0.6747  1.0244 -0.2752
 7726TIP3   OH244668   5.408   4.984  15.465 -0.2006 -0.0266 -0.4579
 7726TIP3    H144669   5.367   5.047  15.405 -0.7443 -0.5208 -0.6183
 7726TIP3    H244670   5.483   4.950  15.416 -1.1773 -1.1182 -1.2558
 7727TIP3   OH244671   4.964   2.309  14.521  0.5747 -0.4419  0.3673
 7727TIP3    H144672   4.981   2.403  14.519  1.9869 -0.6849 -0.7097
 7727TIP3    H244673   5.046   2.271  14.553  1.1220 -1.4759 -2.0449
 7728TIP3   OH244674   5.419   3.825  16.064  0.5727  0.0852  0.2897
 7728TIP3    H144675   5.482   3.754  16.053 -0.1221 -0.3900 -0.8490
 7728TIP3    H244676   5.348   3.804  16.002  0.4587  1.8795 -0.2495
 7729TIP3   OH244677   2.338   3.992  11.566  0.0172 -0.5145 -0.3724
 7729TIP3    H144678   2.351   4.056  11.637 -1.0155  0.0724 -0.6876
 7729TIP3    H244679   2.314   3.911  11.612 -1.1913  0.0030 -0.0385
 7730TIP3   OH244680   4.810   1.547   5.192 -0.1158 -0.0832 -0.0652
 7730TIP3    H144681   4.820   1.464   5.239 -1.5788  0.5286  1.4234
 7730TIP3    H244682   4.716   1.563   5.190  0.0661  1.0384 -1.2773
 7731TIP3   OH244683   1.857   3.172  12.407 -0.7698  0.3719  0.3739
 7731TIP3    H144684   1.896   3.165  12.494 -1.9458  0.4800  0.9293
 7731TIP3    H244685   1.921   3.131  12.349  0.9168  1.9650  1.0007
 7732TIP3   OH244686   4.709   1.745  12.892 -0.1097 -0.0562 -0.2433
 7732TIP3    H144687   4.792   1.759  12.939  0.3658  0.6076 -1.2465
 7732TIP3    H244688   4.716   1.655  12.860  0.6109  0.2655 -1.0342
 7733TIP3   OH244689   1.482   1.252   1.022 -0.0543 -0.2054  0.2230
 7733TIP3    H144690   1.396   1.242   1.064  0.2438 -1.4048  0.5931
 7733TIP3    H244691   1.544   1.218   1.087  0.6996  0.5619 -0.0805
 7734TIP3   OH244692   4.293   1.464   5.585 -0.5400 -0.6767  0.0592
 7734TIP3    H144693   4.229   1.518   5.631 -0.2799 -1.7644  1.8038
 7734TIP3    H244694   4.363   1.526   5.561 -1.3023  0.1587 -0.0456
 7735TIP3   OH244695   5.644   3.458  12.506 -0.0376 -0.1913  0.4607
 7735TIP3    H144696   5.681   3.380  12.464  3.7124  0.7830  1.5089
 7735TIP3    H244697   5.550   3.441  12.510  0.0411 -2.7337 -3.1469
 7736TIP3   OH244698   0.663   1.897   4.129 -0.3026 -0.5161 -0.2092
 7736TIP3    H144699   0.577   1.863   4.154 -0.1999 -0.5230  0.1474
 7736TIP3    H244700   0.646   1.984   4.093 -0.5034 -0.6947 -0.5455
 7737TIP3   OH244701   1.024   2.560   6.761  0.2861  0.4900  0.3322
 7737TIP3    H144702   1.096   2.593   6.814  0.9818 -1.3832  0.6164
 7737TIP3    H244703   0.948   2.613   6.787  1.3925  2.0580  0.4947
 7738TIP3   OH244704   0.052   3.537   4.751 -0.8135  0.3674  0.1367
 7738TIP3    H144705   0.051   3.630   4.730  0.9539  0.0169 -1.9371
 7738TIP3    H244706  -0.025   3.523   4.805 -0.8564  3.0985  0.9109
 7739TIP3   OH244707   2.770   0.807   0.837  0.9979 -0.6573  0.5785
 7739TIP3    H144708   2.676   0.795   0.823  1.4426 -0.7793 -3.8355
 7739TIP3    H244709   2.782   0.902   0.842  0.6828 -0.6286  0.7956
 7740TIP3   OH244710   2.313   1.592   1.786 -0.3793  0.4887 -0.0217
 7740TIP3    H144711   2.340   1.674   1.745  1.1870  0.9863  1.8991
 7740TIP3    H244712   2.390   1.535   1.779 -0.6177  0.0469  0.8046
 7741TIP3   OH244713   5.530   1.964   4.265  0.2530  0.4637  0.4961
 7741TIP3    H144714   5.437   1.987   4.261  0.1423 -0.0479 -0.1223
 7741TIP3    H244715   5.571   2.018   4.196  0.1528 -0.4481 -0.2877
 7742TIP3   OH244716   3.882   3.684  11.956 -0.1910  0.0180 -0.0354
 7742TIP3    H144717   3.906   3.611  12.013 -0.0853 -0.6112 -0.8750
 7742TIP3    H244718   3.963   3.733  11.944 -0.2012  0.1213  0.3053
 7743TIP3   OH244719   5.186   3.767  12.700 -0.1535 -0.3541  0.5114
 7743TIP3    H144720   5.276   3.737  12.712 -0.5998 -1.4259  1.3545
 7743TIP3    H244721   5.174   3.769  12.605  1.3425  1.7281  0.2650
 7744TIP3   OH244722   2.114   2.861   5.313  0.0211 -0.3743  0.0533
 7744TIP3    H144723   2.075   2.845   5.399  0.7740 -0.2291  0.4286
 7744TIP3    H244724   2.170   2.937   5.326 -0.9106  0.5155 -0.8994
 7745TIP3   OH244725   1.324   6.696   0.996  0.1723  0.4791  0.3841
 7745TIP3    H144726   1.348   6.604   1.001  1.8555  0.7114 -1.8300
 7745TIP3    H244727   1.259   6.701   0.927  0.4178  0.9847  0.1794
 7746TIP3   OH244728   0.426   2.821  13.449  0.0534  0.2788 -0.3657
 7746TIP3    H144729   0.394   2.815  13.359  0.1073 -1.1262 -0.3172
 7746TIP3    H244730   0.445   2.914  13.462 -0.3142  0.5550 -1.6778
 7747TIP3   OH244731   4.418   6.665  14.682 -0.5010  0.1349 -0.6148
 7747TIP3    H144732   4.371   6.588  14.715  0.7363 -0.1275  0.6605
 7747TIP3    H244733   4.476   6.630  14.614  1.5450 -0.5350  1.3145
 7748TIP3   OH244734   0.580   3.914   0.178 -0.0271 -0.3116 -0.1424
 7748TIP3    H144735   0.607   3.863   0.255 -2.4182 -2.5845 -0.6321
 7748TIP3    H244736   0.536   3.850   0.122 -2.2642  2.1040 -1.3513
 7749TIP3   OH244737   4.227   0.766  16.842 -0.2300  0.5711  0.3210
 7749TIP3    H144738   4.209   0.719  16.924  0.4951  0.5515  0.4747
 7749TIP3    H244739   4.142   0.798  16.813 -0.4294  0.9631  1.3163
 7750TIP3   OH244740   3.793   3.463   3.542  0.7077  0.2288 -0.3865
 7750TIP3    H144741   3.865   3.525   3.527  1.0255  0.2750  1.1602
 7750TIP3    H244742   3.831   3.377   3.524  1.0537  0.2854  0.0396
 7751TIP3   OH244743   1.366   1.194  11.285 -0.3175 -0.2601 -0.1215
 7751TIP3    H144744   1.366   1.269  11.225 -0.2313 -0.3498 -0.2328
 7751TIP3    H244745   1.306   1.131  11.245 -0.6182 -0.1338  0.1208
 7752TIP3   OH244746   0.081   0.351   2.267 -0.3361  0.2290  0.1752
 7752TIP3    H144747  -0.014   0.352   2.261 -0.4253  0.0906  1.3044
 7752TIP3    H244748   0.102   0.413   2.336  0.3318 -0.3815  0.5433
 7753TIP3   OH244749   5.688   5.298   0.898 -0.0176  0.0165  0.4952
 7753TIP3    H144750   5.741   5.258   0.968 -1.4630  0.4032  1.8705
 7753TIP3    H244751   5.642   5.224   0.859 -0.3111 -0.0411  0.9406
 7754TIP3   OH244752   5.202   4.319   0.518 -0.1531  0.1104  0.3128
 7754TIP3    H144753   5.154   4.294   0.597 -0.4222 -0.0289  0.1061
 7754TIP3    H244754   5.183   4.412   0.507  1.4563  0.6391  1.5137
 7755TIP3   OH244755   3.908   2.994  11.054 -0.4554  0.1265 -0.2646
 7755TIP3    H144756   3.953   2.975  10.972 -1.2463 -1.1719 -0.4382
 7755TIP3    H244757   3.923   2.916  11.108 -1.5159  0.1483  0.0882
 7756TIP3   OH244758   5.723   5.528  14.419 -0.0481  0.0743 -0.0448
 7756TIP3    H144759   5.805   5.499  14.459 -0.1686 -0.6230 -0.2838
 7756TIP3    H244760   5.667   5.450  14.419  0.4941 -0.4589 -2.9824
 7757TIP3   OH244761   3.667   1.166  16.525  0.5207  0.0417 -0.8916
 7757TIP3    H144762   3.605   1.095  16.508 -1.7180  1.9421 -1.0983
 7757TIP3    H244763   3.734   1.126  16.580 -1.9188 -1.6941  1.0547
 7758TIP3   OH244764   4.313   2.340  12.555  0.2346  0.0394 -0.0388
 7758TIP3    H144765   4.406   2.328  12.536  0.0090 -0.0294 -1.1681
 7758TIP3    H244766   4.277   2.252  12.554  0.4883 -0.1690  2.4585
 7759TIP3   OH244767   2.718   2.049  12.985 -0.9737 -0.0379  0.5691
 7759TIP3    H144768   2.696   1.965  12.944 -1.6181  1.2758 -1.9794
 7759TIP3    H244769   2.790   2.028  13.044 -1.2286 -2.4057  0.1691
 7760TIP3   OH244770   0.947   0.361  14.580 -0.1604  0.1379  0.2679
 7760TIP3    H144771   0.869   0.359  14.524 -1.4436  0.0214  1.9802
 7760TIP3    H244772   0.973   0.269  14.588  0.1576  0.1732 -0.2714
 7761TIP3   OH244773   0.527   2.757  15.372 -0.0729  0.2787 -0.7343
 7761TIP3    H144774   0.436   2.760  15.344 -0.4309  1.5314  0.4494
 7761TIP3    H244775   0.534   2.825  15.439  1.7516  0.2533 -0.8416
 7762TIP3   OH244776   0.842   5.798  16.319  0.1809 -0.0444  0.1559
 7762TIP3    H144777   0.843   5.748  16.400 -1.0724 -0.5455 -0.1112
 7762TIP3    H244778   0.927   5.841  16.316 -0.5909  1.9811  2.9811
 7763TIP3   OH244779   3.391   3.416   5.041 -0.3255  0.3706  0.3604
 7763TIP3    H144780   3.370   3.505   5.069 -1.1677 -0.4200  2.5193
 7763TIP3    H244781   3.433   3.377   5.118 -1.7753 -1.6691  0.1969
 7764TIP3   OH244782   5.627   4.133  15.031  0.0139 -0.3521  0.4716
 7764TIP3    H144783   5.661   4.217  15.001  0.3892 -1.3592 -2.1641
 7764TIP3    H244784   5.694   4.100  15.092  0.6709  0.4888  0.2080
 7765TIP3   OH244785   4.442   6.326  17.143  0.2572 -0.3018 -0.0327
 7765TIP3    H144786   4.441   6.234  17.172  1.8447 -0.5983 -0.8039
 7765TIP3    H244787   4.535   6.346  17.133 -0.1322  0.5700 -2.4512
 7766TIP3   OH244788   0.018   6.349   6.289  0.1848 -0.5001  0.2819
 7766TIP3    H144789   0.053   6.259   6.288  0.4142 -0.4279  1.1191
 7766TIP3    H244790  -0.065   6.342   6.243  0.9439 -0.8169 -1.1163
 7767TIP3   OH244791   3.785   1.359  13.209 -0.6578  0.4961  1.1078
 7767TIP3    H144792   3.763   1.403  13.291  1.2505  0.8895  1.4665
 7767TIP3    H244793   3.877   1.382  13.193 -1.3506  1.6781 -1.9415
 7768TIP3   OH244794   2.083   1.210  14.263 -0.0832 -0.4492 -0.5820
 7768TIP3    H144795   2.139   1.282  14.234  0.1101  0.4852  1.9242
 7768TIP3    H244796   1.995   1.248  14.265 -0.0617 -0.4295  0.2132
 7769TIP3   OH244797   5.111   2.163   1.900  0.1922  0.4576 -0.5021
 7769TIP3    H144798   5.134   2.255   1.914  1.2567  0.8437 -3.8950
 7769TIP3    H244799   5.111   2.125   1.988  0.7023  3.4521  0.9275
 7770TIP3   OH244800   2.805   2.019   2.694  0.3607  0.3800  0.0747
 7770TIP3    H144801   2.757   2.058   2.622  0.7069 -1.1137 -1.0150
 7770TIP3    H244802   2.845   1.940   2.657  0.2968 -0.6070  1.9713
 7771TIP3   OH244803   1.413   6.586  13.242  0.7194  0.2220 -0.3022
 7771TIP3    H144804   1.467   6.513  13.211  1.1169  0.3031  0.1900
 7771TIP3    H244805   1.368   6.617  13.164  1.7743  0.4888 -0.8197
 7772TIP3   OH244806   4.579   5.047   5.876  0.0521  0.0309  0.0367
 7772TIP3    H144807   4.561   5.140   5.890 -0.2065  0.0887 -0.6206
 7772TIP3    H244808   4.497   5.003   5.902 -0.1679  0.0754 -0.5646
 7773TIP3   OH244809   3.073   2.200   4.274  0.2325 -0.9903 -0.4619
 7773TIP3    H144810   2.992   2.165   4.312 -1.7699  2.4206 -1.1886
 7773TIP3    H244811   3.059   2.192   4.179  1.1840 -1.1904 -0.5921
 7774TIP3   OH244812   5.225   1.265   6.396 -0.4862  0.3382 -0.0169
 7774TIP3    H144813   5.157   1.200   6.378 -1.6118  1.4241  0.1818
 7774TIP3    H244814   5.303   1.214   6.416 -0.7994 -0.9504 -1.8369
 7775TIP3   OH244815   5.301   6.837   2.777  0.3388  0.1489  0.3662
 7775TIP3    H144816   5.347   6.766   2.822 -1.3441 -0.4015  1.2865
 7775TIP3    H244817   5.261   6.888   2.847 -1.7080 -0.2811 -0.4293
 7776TIP3   OH244818   6.759   2.331  12.287 -0.4869 -0.0471  0.1326
 7776TIP3    H144819   6.771   2.250  12.238  1.4320  0.1063  0.2519
 7776TIP3    H244820   6.664   2.345  12.289 -0.7865 -1.7182 -0.7862
 7777TIP3   OH244821   2.211   2.393  11.752  0.0358  0.0332 -0.8592
 7777TIP3    H144822   2.214   2.356  11.840 -1.7427 -1.4496 -1.3541
 7777TIP3    H244823   2.265   2.472  11.757 -1.8625  1.3350  2.2101
 7778TIP3   OH244824   0.625   6.811   5.984 -0.2346 -0.4592  0.2511
 7778TIP3    H144825   0.681   6.733   5.986 -0.0316 -0.3348 -0.3226
 7778TIP3    H244826   0.607   6.830   6.076 -0.3799 -1.2485  0.3932
 7779TIP3   OH244827   2.807   3.884  16.906  0.3332  0.0338  0.1608
 7779TIP3    H144828   2.851   3.813  16.953  1.5000  1.2737  1.0334
 7779TIP3    H244829   2.812   3.958  16.967 -1.4795  0.6789 -0.4335
 7780TIP3   OH244830   1.701   5.551   6.859 -0.4551  0.3947  0.7365
 7780TIP3    H144831   1.622   5.553   6.914 -0.3281  0.7517  0.9069
 7780TIP3    H244832   1.685   5.617   6.792 -1.0410 -0.7362 -0.2625
 7781TIP3   OH244833   6.343   5.459   2.675 -0.5223 -0.2502  0.2237
 7781TIP3    H144834   6.346   5.555   2.669  0.7847 -0.3755 -1.7861
 7781TIP3    H244835   6.273   5.442   2.739 -2.2283  1.9913 -0.8738
 7782TIP3   OH244836   3.304   3.423  11.429  0.1326  0.4646  0.2469
 7782TIP3    H144837   3.374   3.358  11.440 -0.9381 -1.0101 -1.1168
 7782TIP3    H244838   3.321   3.488  11.496  2.2364 -0.3628  0.5928
 7783TIP3   OH244839   0.254   2.075   4.972  0.1120 -0.2062 -0.1666
 7783TIP3    H144840   0.335   2.045   5.011  0.0634 -1.7872 -1.1750
 7783TIP3    H244841   0.260   2.170   4.972  0.8292 -0.2089  2.0693
 7784TIP3   OH244842   4.868   0.215   5.011 -0.4548 -0.1617 -0.3970
 7784TIP3    H144843   4.805   0.148   5.037 -1.0624  0.0159 -1.3832
 7784TIP3    H244844   4.908   0.182   4.931 -0.6534  0.5703 -0.8105
 7785TIP3   OH244845   5.734   4.726   2.671 -0.6941  0.5177  0.5229
 7785TIP3    H144846   5.667   4.686   2.726  2.0524 -2.9189  1.7630
 7785TIP3    H244847   5.801   4.756   2.733  0.1661  1.3655 -0.7588
 7786TIP3   OH244848   1.715   0.898   0.093  0.1066  0.5150 -0.1494
 7786TIP3    H144849   1.749   0.988   0.098 -0.8007  0.8035  1.8316
 7786TIP3    H244850   1.755   0.854   0.168 -1.2440 -0.0877  0.2334
 7787TIP3   OH244851   4.730   5.510  15.029 -0.0810  0.6782 -0.0522
 7787TIP3    H144852   4.717   5.560  15.109 -0.1004  2.3346 -1.0301
 7787TIP3    H244853   4.649   5.523  14.979  0.1861  0.2167 -0.6221
 7788TIP3   OH244854   0.460   1.045  14.343  0.5262 -0.0104 -0.0794
 7788TIP3    H144855   0.529   0.981  14.324  1.0349  0.6632 -0.5340
 7788TIP3    H244856   0.499   1.130  14.322 -0.2515  0.4287  0.2108
 7789TIP3   OH244857   4.595   5.760   5.594  0.3619  0.7526  0.2708
 7789TIP3    H144858   4.577   5.815   5.517 -0.4256 -0.6628 -0.6047
 7789TIP3    H244859   4.689   5.746   5.592  0.8047  3.0743  1.2615
 7790TIP3   OH244860   0.986   4.483  16.728  0.4109 -0.7214 -0.1198
 7790TIP3    H144861   0.911   4.437  16.766  1.1098 -0.9037  1.0876
 7790TIP3    H244862   0.957   4.573  16.719 -0.6859 -1.1961 -1.7144
 7791TIP3   OH244863   2.068   5.620   1.790 -0.3370 -0.4904  0.0402
 7791TIP3    H144864   2.002   5.595   1.854  0.3991 -0.0647  0.9822
 7791TIP3    H244865   2.150   5.586   1.826 -0.1411 -1.9173 -1.6020
 7792TIP3   OH244866   5.664   5.575  10.824 -0.1675  0.2087 -0.7506
 7792TIP3    H144867   5.709   5.640  10.769 -0.4904  0.0462 -1.2120
 7792TIP3    H244868   5.572   5.601  10.821 -0.1611  0.3193 -0.1132
 7793TIP3   OH244869   1.190   2.028   3.412  0.5330 -0.1928  0.1277
 7793TIP3    H144870   1.239   2.072   3.482  0.0643 -1.0502  1.0236
 7793TIP3    H244871   1.115   2.086   3.395  0.7321  0.0957  0.2279
 7794TIP3   OH244872   2.032   5.494   4.101 -0.1613 -0.2647 -0.2198
 7794TIP3    H144873   1.998   5.435   4.169 -2.5799  1.0108 -0.1910
 7794TIP3    H244874   2.079   5.562   4.150  1.5669 -1.4216 -0.1746
 7795TIP3   OH244875   4.063   1.089   1.437  0.1276  0.0302 -0.0944
 7795TIP3    H144876   4.043   1.181   1.457 -0.5527 -0.5525  2.2782
 7795TIP3    H244877   3.985   1.056   1.392  0.4770  0.6517 -1.1883
 7796TIP3   OH244878   3.883   2.686  11.920  0.0692 -0.4155 -0.2002
 7796TIP3    H144879   3.915   2.600  11.945  0.0181 -0.0967  1.0327
 7796TIP3    H244880   3.795   2.670  11.886 -0.6822 -0.6855  1.7470
 7797TIP3   OH244881   3.255   3.924   5.447  0.3098  0.2473 -0.0458
 7797TIP3    H144882   3.270   3.900   5.356  2.7896  1.3854 -0.0333
 7797TIP3    H244883   3.227   4.016   5.444 -1.9427 -0.3700  0.2760
 7798TIP3   OH244884   6.050   3.470   6.503 -0.9645 -0.3632 -0.5653
 7798TIP3    H144885   6.031   3.546   6.559  2.6088  0.4980 -0.2890
 7798TIP3    H244886   6.069   3.508   6.417  2.5231 -0.5581 -0.0378
 7799TIP3   OH244887   3.895   6.198  13.878 -0.2181  0.2925 -0.2240
 7799TIP3    H144888   3.865   6.233  13.794  0.6506 -1.4561 -1.3262
 7799TIP3    H244889   3.976   6.246  13.896 -0.1539  0.3391 -0.6235
 7800TIP3   OH244890   5.446   1.702   4.081 -0.7457 -0.2224  0.0804
 7800TIP3    H144891   5.496   1.694   4.000  0.4825 -0.3185  0.8316
 7800TIP3    H244892   5.436   1.796   4.094  0.2571 -0.1660  0.5235
 7801TIP3   OH244893   3.285   1.449  11.384  0.0016  0.3742  0.0358
 7801TIP3    H144894   3.209   1.504  11.403  0.5999  1.1834  0.1303
 7801TIP3    H244895   3.352   1.477  11.446  0.8026  0.5644 -0.8941
 7802TIP3   OH244896   3.575   4.786   4.456 -0.0669 -0.1486  0.1479
 7802TIP3    H144897   3.579   4.690   4.451  0.0678 -0.0909 -1.3128
 7802TIP3    H244898   3.624   4.808   4.535 -1.4461 -1.3577  1.3932
 7803TIP3   OH244899   6.772   0.741   4.786 -0.0294 -0.1364 -0.4376
 7803TIP3    H144900   6.687   0.776   4.759 -0.1695 -0.2162 -0.1004
 7803TIP3    H244901   6.757   0.705   4.873  0.2109 -0.6859 -0.6210
 7804TIP3   OH244902   2.306   5.806   5.643 -0.2871 -0.1195  0.4783
 7804TIP3    H144903   2.396   5.811   5.675  0.1683  1.1103 -0.9058
 7804TIP3    H244904   2.304   5.727   5.589 -0.3041 -0.6307  1.2017
 7805TIP3   OH244905   1.626   3.596   1.964  0.3705 -1.0454  0.0997
 7805TIP3    H144906   1.582   3.527   1.915 -0.1366 -1.8250  1.6065
 7805TIP3    H244907   1.554   3.647   2.003  0.7372  0.2376 -0.7992
 7806TIP3   OH244908   4.711   2.832  13.082  0.0878  0.2930  0.3761
 7806TIP3    H144909   4.721   2.927  13.077 -0.4312  0.3227 -0.3300
 7806TIP3    H244910   4.792   2.798  13.044  0.4646  0.4396  1.0289
 7807TIP3   OH244911   3.134   0.652  13.423  0.4505 -0.4260  0.3831
 7807TIP3    H144912   3.107   0.726  13.477  0.5955  0.5116 -0.7922
 7807TIP3    H244913   3.096   0.575  13.466 -0.8584  0.4693  0.8753
 7808TIP3   OH244914   2.432   1.297  16.109 -0.3013 -0.1753 -0.0433
 7808TIP3    H144915   2.515   1.261  16.077 -0.6886  0.4512 -1.8622
 7808TIP3    H244916   2.436   1.287  16.204  2.3629  0.8983  0.0313
 7809TIP3   OH244917   3.147   1.332  15.718 -0.2084  0.4114  0.3627
 7809TIP3    H144918   3.235   1.310  15.687  0.3513  0.2446  2.0106
 7809TIP3    H244919   3.137   1.283  15.799 -2.3367 -0.5873 -0.4155
 7810TIP3   OH244920   0.767   0.629  12.425 -0.2910  0.1509 -0.2636
 7810TIP3    H144921   0.782   0.598  12.514  1.0247 -3.8951 -1.6790
 7810TIP3    H244922   0.757   0.549  12.373 -1.5938  2.3317 -3.7045
 7811TIP3   OH244923   1.574   3.722  11.777 -0.4404 -0.1515 -0.1704
 7811TIP3    H144924   1.485   3.731  11.812 -1.0385  0.3074 -1.7150
 7811TIP3    H244925   1.563   3.729  11.682  1.2744  0.0500 -0.3830
 7812TIP3   OH244926   2.826   4.120  12.311 -0.0197 -0.3525 -0.5486
 7812TIP3    H144927   2.739   4.147  12.283  0.1942  0.2956 -0.5873
 7812TIP3    H244928   2.848   4.179  12.383 -0.0976 -1.2828  0.2630
 7813TIP3   OH244929   2.457   2.634   3.816  0.2989 -0.1639 -0.1872
 7813TIP3    H144930   2.490   2.548   3.842 -2.1450 -2.2385 -3.2266
 7813TIP3    H244931   2.362   2.622   3.812  0.0640  1.5968 -3.8465
 7814TIP3   OH244932   1.775   0.803  16.298 -0.3532  0.2344  0.0284
 7814TIP3    H144933   1.836   0.772  16.231 -1.5250 -0.8164 -0.6113
 7814TIP3    H244934   1.722   0.726  16.318 -0.7200  0.8243  1.3974
 7815TIP3   OH244935   6.738   2.232   0.170  0.3160 -0.1870  0.7111
 7815TIP3    H144936   6.821   2.230   0.218  0.5884 -0.5198  0.2342
 7815TIP3    H244937   6.701   2.144   0.182 -0.5336  0.3079  1.8842
 7816TIP3   OH244938   1.319   5.626   0.993 -0.3545  0.3151  0.4646
 7816TIP3    H144939   1.381   5.698   0.979 -0.5815  0.4618  0.2161
 7816TIP3    H244940   1.327   5.606   1.086 -0.5738  0.9213  0.6193
 7817TIP3   OH244941   1.211   5.329   4.241  0.2166  0.5489 -0.0604
 7817TIP3    H144942   1.231   5.260   4.178 -0.0473  0.1807  0.2587
 7817TIP3    H244943   1.129   5.367   4.210  0.3047  0.6442 -0.1747
 7818TIP3   OH244944   6.139   4.607  15.108 -0.3926  0.3039  0.4546
 7818TIP3    H144945   6.081   4.532  15.095  0.2436 -0.1677  0.3262
 7818TIP3    H244946   6.224   4.579  15.075 -0.4191  1.5058 -0.7176
 7819TIP3   OH244947   1.473   2.341  14.971  0.2910 -0.2946 -0.1103
 7819TIP3    H144948   1.432   2.428  14.961 -1.1811 -0.9872 -0.4415
 7819TIP3    H244949   1.431   2.288  14.904 -0.4103 -1.8091  1.4675
 7820TIP3   OH244950   3.430   1.669  13.463 -0.2364 -0.2199  0.2400
 7820TIP3    H144951   3.473   1.596  13.418 -2.0135  0.3368 -2.5654
 7820TIP3    H244952   3.349   1.630  13.498 -0.4885  0.0763 -0.0104
 7821TIP3   OH244953   5.825   0.104  16.224 -0.3634  0.5771  0.1724
 7821TIP3    H144954   5.743   0.057  16.235  0.7779 -1.7716 -0.5823
 7821TIP3    H244955   5.811   0.188  16.266 -2.6154 -0.3533  1.4371
 7822TIP3   OH244956   2.796   5.591   2.922 -1.1176 -0.2669  0.1438
 7822TIP3    H144957   2.793   5.668   2.979  0.5363 -0.7534  0.9495
 7822TIP3    H244958   2.852   5.617   2.849 -1.2883 -0.4179 -0.0424
 7823TIP3   OH244959   4.320   4.710  11.299 -0.0920 -0.0480  0.0946
 7823TIP3    H144960   4.267   4.771  11.351 -1.1550 -1.0679  0.2735
 7823TIP3    H244961   4.369   4.765  11.238 -1.3629  0.9624 -0.0508
 7824TIP3   OH244962   6.351   2.247   5.085  0.4239 -0.1296 -0.4156
 7824TIP3    H144963   6.332   2.323   5.140  1.4234  0.0443 -0.2964
 7824TIP3    H244964   6.430   2.208   5.123  0.7435 -0.3986 -1.3196
 7825TIP3   OH244965   4.944   3.380  15.918 -0.0375  0.1192 -0.0444
 7825TIP3    H144966   4.854   3.411  15.929 -0.2633 -0.5701  0.0846
 7825TIP3    H244967   4.997   3.441  15.970 -0.3207  1.0544 -0.8300
 7826TIP3   OH244968   3.655   0.198   5.575  0.0491  0.1443 -0.5965
 7826TIP3    H144969   3.588   0.149   5.623  0.4069  0.6139  0.4057
 7826TIP3    H244970   3.715   0.130   5.544 -0.3185 -0.1906 -0.5931
 7827TIP3   OH244971   5.780   2.328  13.517  0.0832 -0.6278 -0.1546
 7827TIP3    H144972   5.875   2.337  13.528  0.3706 -1.0846 -1.9621
 7827TIP3    H244973   5.763   2.357  13.427 -1.0146 -3.4776 -0.9647
 7828TIP3   OH244974   4.066   6.043  14.320  0.4131 -0.2378 -0.1973
 7828TIP3    H144975   4.050   5.991  14.399  1.3866  2.1891  1.6994
 7828TIP3    H244976   4.159   6.065  14.325  0.0524  1.5842 -0.9766
 7829TIP3   OH244977   0.925   5.866   0.736 -0.2642  0.3819  0.3916
 7829TIP3    H144978   0.849   5.924   0.737 -0.8718 -0.3878  0.1963
 7829TIP3    H244979   0.890   5.781   0.763  0.5869  0.0805  0.5740
 7830TIP3   OH244980   6.054   3.871  12.882  0.1350 -0.5187 -0.1999
 7830TIP3    H144981   6.128   3.862  12.942  0.2075  0.5901 -0.1095
 7830TIP3    H244982   6.089   3.842  12.797  0.7208  0.0961 -0.1819
 7831TIP3   OH244983   4.073   4.897  15.146 -0.0463 -0.0599 -0.1526
 7831TIP3    H144984   3.987   4.926  15.176  0.0368  0.3538 -0.2996
 7831TIP3    H244985   4.111   4.851  15.220 -1.1110 -1.8387 -0.6547
 7832TIP3   OH244986   3.422   5.808   1.816 -0.5498 -0.5061  0.0983
 7832TIP3    H144987   3.412   5.864   1.894 -2.1643 -0.2291 -0.2713
 7832TIP3    H244988   3.334   5.802   1.780  0.3554  0.4395 -2.4663
 7833TIP3   OH244989   4.444   4.986  13.488 -0.2723 -0.0226 -0.4254
 7833TIP3    H144990   4.392   4.944  13.420 -2.0194  1.9995 -0.4434
 7833TIP3    H244991   4.381   5.038  13.538  1.2873  0.1718  1.4747
 7834TIP3   OH244992   1.830   3.856   5.627 -0.0535 -0.9705 -0.2275
 7834TIP3    H144993   1.831   3.761   5.617  1.7246 -1.3294  2.3636
 7834TIP3    H244994   1.765   3.873   5.695  2.2399 -0.8134  2.0601
 7835TIP3   OH244995   4.353   5.833   3.394 -0.4056  0.2651  0.3530
 7835TIP3    H144996   4.301   5.907   3.426  0.4414  0.1677  2.0589
 7835TIP3    H244997   4.289   5.766   3.372 -1.2192  1.5675 -1.5291
 7836TIP3   OH244998   3.861   5.177   4.318 -0.3536 -0.0207 -0.2160
 7836TIP3    H144999   3.821   5.205   4.400 -4.7376 -2.0373 -1.3583
 7836TIP3    H245000   3.925   5.111   4.344 -0.1170  0.8802  1.6561
 7837TIP3   OH245001   4.463   1.512  16.033  0.3217 -0.2594  0.1344
 7837TIP3    H145002   4.432   1.461  15.958  0.9962  1.3331 -1.2775
 7837TIP3    H245003   4.385   1.555  16.067  0.4507  1.4754 -1.6284
 7838TIP3   OH245004   4.049   0.345  12.531  0.2611  0.5401 -0.0743
 7838TIP3    H145005   4.049   0.406  12.457 -1.9492  0.2337 -0.4178
 7838TIP3    H245006   4.039   0.259  12.490 -0.5284  0.3276  0.5415
 7839TIP3   OH245007   6.691   3.150   2.817  0.1122 -0.0592  0.3288
 7839TIP3    H145008   6.688   3.063   2.777 -0.9311  0.6985 -1.3454
 7839TIP3    H245009   6.654   3.137   2.904  1.3977 -1.5633  0.6913
 7840TIP3   OH245010   5.247   0.056   1.734 -0.1196  0.0984 -0.2452
 7840TIP3    H145011   5.154   0.037   1.741 -0.0153 -0.2150  0.3409
 7840TIP3    H245012   5.271   0.092   1.819  0.0275  1.3911 -0.8173
 7841TIP3   OH245013   5.383   1.209   2.521 -0.7724 -0.0511  0.0971
 7841TIP3    H145014   5.323   1.188   2.449 -1.1789  1.5064 -0.0549
 7841TIP3    H245015   5.470   1.203   2.482 -0.9117 -0.6755 -0.1291
 7842TIP3   OH245016   1.698   1.811  15.707  0.1182  0.4642 -0.2074
 7842TIP3    H145017   1.710   1.813  15.802  0.4143 -0.0247 -0.2342
 7842TIP3    H245018   1.786   1.815  15.671  0.0494 -0.0498 -0.4476
 7843TIP3   OH245019   6.133   4.898  12.928 -0.0836 -0.2602 -0.2862
 7843TIP3    H145020   6.061   4.916  12.988  0.0018  1.1415 -0.5672
 7843TIP3    H245021   6.145   4.980  12.879  1.1522 -0.7269 -0.8218
 7844TIP3   OH245022   2.732   0.832   1.361 -0.0197  0.0540 -0.3439
 7844TIP3    H145023   2.770   0.912   1.398  0.2773  0.8923 -2.3381
 7844TIP3    H245024   2.781   0.817   1.280 -0.1112 -2.1402 -0.0528
 7845TIP3   OH245025   1.101   4.414  13.677  0.2708 -0.3328  0.4095
 7845TIP3    H145026   1.077   4.360  13.602  0.4273 -0.2197  0.2782
 7845TIP3    H245027   1.183   4.376  13.709 -0.3831 -1.1045  1.2337
 7846TIP3   OH245028   1.000   5.244  11.728  0.5329 -0.0063  0.4769
 7846TIP3    H145029   0.947   5.309  11.682  0.5016  0.2644  0.8894
 7846TIP3    H245030   0.944   5.168  11.735  0.6393 -0.1572 -0.1890
 7847TIP3   OH245031   0.443   5.594  16.347 -0.6028  0.1261  0.3057
 7847TIP3    H145032   0.507   5.525  16.333 -2.4196 -2.0026  1.7329
 7847TIP3    H245033   0.474   5.642  16.424  1.4644  2.0431 -1.5701
 7848TIP3   OH245034   5.518   3.837  11.448  0.9080 -0.0494 -0.2570
 7848TIP3    H145035   5.593   3.895  11.463  0.7382  0.6228 -1.8131
 7848TIP3    H245036   5.520   3.776  11.521  1.2576  1.7351  1.2870
 7849TIP3   OH245037   1.038   2.110   5.274  0.0833 -0.1392 -0.2233
 7849TIP3    H145038   1.072   2.138   5.359  0.9182  1.7151 -1.1298
 7849TIP3    H245039   1.112   2.116   5.214 -1.2271  1.8006 -1.7760
 7850TIP3   OH245040   4.119   3.574   0.752  0.0523  0.0610 -0.4906
 7850TIP3    H145041   4.082   3.535   0.831 -0.2782  1.7868  0.2540
 7850TIP3    H245042   4.147   3.661   0.779  1.4345  0.1024 -1.9035
 7851TIP3   OH245043   6.124   1.074  16.809 -1.0970  0.4936 -0.0068
 7851TIP3    H145044   6.031   1.087  16.788 -1.3677  0.0759  0.8440
 7851TIP3    H245045   6.149   1.154  16.856 -1.4146  0.0556  0.9455
 7852TIP3   OH245046   1.334   0.438   0.742  0.4210 -0.2041  0.2111
 7852TIP3    H145047   1.393   0.364   0.752  2.4332  1.2922  0.1126
 7852TIP3    H245048   1.247   0.401   0.754  1.0921 -3.1040 -2.5447
 7853TIP3   OH245049   3.861   3.678   3.730 -0.2527  0.1997  0.7564
 7853TIP3    H145050   3.944   3.629   3.729 -0.3303  0.0387 -1.1129
 7853TIP3    H245051   3.885   3.765   3.696 -1.0532 -0.2949 -1.2206
 7854TIP3   OH245052   2.940   2.618  13.738 -0.3003 -0.0163 -0.1930
 7854TIP3    H145053   2.971   2.708  13.750 -0.2226 -0.0856  0.1317
 7854TIP3    H245054   2.943   2.604  13.643  1.4602 -0.3050 -0.1347
 7855TIP3   OH245055   5.117   3.467  16.703  0.1780  0.5897 -0.5156
 7855TIP3    H145056   5.133   3.387  16.654  1.8981 -0.3141  1.3858
 7855TIP3    H245057   5.031   3.456  16.742  1.3317 -1.5261  1.6982
 7856TIP3   OH245058   0.379   3.964   2.062  0.0609  0.2426 -0.3469
 7856TIP3    H145059   0.354   3.932   1.975  1.5223  1.1137 -1.1249
 7856TIP3    H245060   0.302   4.012   2.092 -0.3617  0.1913 -1.3026
 7857TIP3   OH245061   4.948   6.599  14.216  0.0232 -0.1896 -0.6140
 7857TIP3    H145062   4.947   6.656  14.292  0.7180 -0.1282 -0.6539
 7857TIP3    H245063   5.040   6.580  14.200 -0.2195 -3.3946  0.9766
 7858TIP3   OH245064   2.087   6.465  15.777  0.0901 -0.6321  0.0734
 7858TIP3    H145065   2.014   6.525  15.762 -1.7493 -2.4013  1.4794
 7858TIP3    H245066   2.092   6.457  15.872  1.4200 -1.4024 -0.0469
 7859TIP3   OH245067   0.879   6.335  14.310 -0.5642  0.0107 -0.5700
 7859TIP3    H145068   0.819   6.318  14.383 -0.5799 -0.1698 -0.6234
 7859TIP3    H245069   0.840   6.409  14.263 -0.3896  0.3288 -0.2136
 7860TIP3   OH245070   5.514   5.380   5.472 -0.2056 -0.2297  0.5210
 7860TIP3    H145071   5.590   5.395   5.416 -0.0243  0.2471  0.8948
 7860TIP3    H245072   5.543   5.312   5.534 -0.2671 -0.4450  0.3164
 7861TIP3   OH245073   3.400   0.723  14.574 -0.5750  0.9395 -0.4012
 7861TIP3    H145074   3.446   0.655  14.623  1.1400  2.0115 -0.4615
 7861TIP3    H245075   3.326   0.747  14.629 -0.5402 -0.1405  0.1438
 7862TIP3   OH245076   0.122   3.789  13.647 -0.5455 -0.3343 -0.2034
 7862TIP3    H145077   0.046   3.839  13.616 -1.3331 -1.9176 -0.9411
 7862TIP3    H245078   0.135   3.818  13.737 -1.6047  0.4456 -0.2824
 7863TIP3   OH245079   4.169   3.274   4.687  0.0565  0.0848 -0.2724
 7863TIP3    H145080   4.202   3.191   4.654  1.3775  0.7441 -0.6925
 7863TIP3    H245081   4.180   3.268   4.782  1.1934  0.1951 -0.3880
 7864TIP3   OH245082   4.251   6.133  15.289 -0.6822 -0.1095 -0.1357
 7864TIP3    H145083   4.223   6.210  15.339 -1.1111 -0.0171 -0.5215
 7864TIP3    H245084   4.180   6.116  15.228  0.1307  0.2035 -1.2041
 7865TIP3   OH245085   4.879   1.885   4.798 -0.4593  0.1611  0.1060
 7865TIP3    H145086   4.817   1.937   4.747  0.8167  0.4482 -1.2455
 7865TIP3    H245087   4.831   1.806   4.820 -1.2070  0.1978 -1.2453
 7866TIP3   OH245088   5.695   4.206   3.267  0.1284 -0.4769 -0.6875
 7866TIP3    H145089   5.775   4.154   3.261 -0.3145 -1.0648 -1.7800
 7866TIP3    H245090   5.637   4.154   3.322  0.6654  0.2139  0.5844
 7867TIP3   OH245091   3.304   4.854  16.753 -0.3272  0.3955 -0.1390
 7867TIP3    H145092   3.227   4.797  16.754  0.0654 -0.3076 -2.7100
 7867TIP3    H245093   3.377   4.795  16.770 -0.2642  1.0151  2.0138
 7868TIP3   OH245094   5.006   0.294   2.337  0.0196  0.1514  0.2023
 7868TIP3    H145095   5.012   0.377   2.383  0.7965  0.8235 -1.0429
 7868TIP3    H245096   4.912   0.282   2.321  0.0279  2.0549 -1.7408
 7869TIP3   OH245097   2.577   0.639  13.961 -0.2102  0.6641 -0.0641
 7869TIP3    H145098   2.486   0.656  13.936 -0.9701 -2.0928  0.5203
 7869TIP3    H245099   2.571   0.581  14.037  2.0619  0.4824  0.0501
 7870TIP3   OH245100   5.707   1.404   0.554 -0.4112 -0.3239  0.4051
 7870TIP3    H145101   5.726   1.320   0.596 -0.1264  0.0519  1.0499
 7870TIP3    H245102   5.775   1.462   0.587  0.0154 -0.0878 -0.8377
 7871TIP3   OH245103   2.750   1.197  15.309  0.2381  0.4586  0.0904
 7871TIP3    H145104   2.699   1.126  15.269 -1.1518  1.8705 -0.7397
 7871TIP3    H245105   2.694   1.274  15.302  1.8853  1.7552  0.5531
 7872TIP3   OH245106   2.806   1.106   4.666  0.0734  0.0269  0.2215
 7872TIP3    H145107   2.733   1.065   4.619  1.1442 -1.3959 -0.2968
 7872TIP3    H245108   2.844   1.034   4.717  2.1848  0.2548 -0.9029
 7873TIP3   OH245109   2.901   3.729  12.092  0.0910 -0.5108 -0.1843
 7873TIP3    H145110   2.984   3.753  12.051  0.4340 -0.0258  0.7706
 7873TIP3    H245111   2.884   3.640  12.061  1.8020 -1.2531  0.8815
 7874TIP3   OH245112   5.557   2.562  15.872 -0.4303  0.2349 -0.0435
 7874TIP3    H145113   5.462   2.548  15.867 -0.3743 -0.4616  0.5107
 7874TIP3    H245114   5.573   2.579  15.965 -0.0485  0.6831 -0.1899
 7875TIP3   OH245115   4.434   5.095   3.135  0.0330 -0.0871 -0.9449
 7875TIP3    H145116   4.349   5.069   3.170 -0.1488  0.1058 -1.2320
 7875TIP3    H245117   4.498   5.062   3.198 -0.2431 -0.4185 -0.8347
 7876TIP3   OH245118   4.261   5.453  16.016 -0.0187  0.3679  0.0934
 7876TIP3    H145119   4.187   5.404  16.051  0.7051 -1.2165 -0.5212
 7876TIP3    H245120   4.266   5.531  16.071  0.1678 -1.3112  2.6035
 7877TIP3   OH245121   6.035   2.107   5.793 -0.3971 -0.7700 -0.1916
 7877TIP3    H145122   6.064   2.177   5.852 -0.7763 -1.8741  1.3355
 7877TIP3    H245123   6.109   2.047   5.789 -0.9017 -1.4413  0.3464
 7878TIP3   OH245124   5.867   5.151   5.240 -0.1664 -0.3830  0.5106
 7878TIP3    H145125   5.881   5.100   5.161  1.3965 -2.0921  1.8091
 7878TIP3    H245126   5.874   5.088   5.311  0.3028  1.3904  2.1351
 7879TIP3   OH245127   3.431   0.158   3.064  0.0560 -0.5610 -0.1095
 7879TIP3    H145128   3.392   0.234   3.109  3.3382  1.2829 -0.1119
 7879TIP3    H245129   3.448   0.095   3.135  1.2238  0.5218  0.5989
 7880TIP3   OH245130   4.809   0.333   4.687 -0.5814 -0.9037 -0.0505
 7880TIP3    H145131   4.837   0.242   4.675 -1.1539 -1.2725  1.2090
 7880TIP3    H245132   4.886   0.377   4.723 -1.1253 -1.5874  2.0723
 7881TIP3   OH245133   6.616   6.294   6.148  0.2770 -0.5245  0.1977
 7881TIP3    H145134   6.581   6.206   6.165 -0.6261 -0.1223  0.5195
 7881TIP3    H245135   6.615   6.302   6.052 -0.9254 -0.3825  0.2062
 7882TIP3   OH245136   1.947   4.113   2.931 -0.6355 -0.4405 -0.2045
 7882TIP3    H145137   1.876   4.102   2.994 -0.9654  0.7418 -0.3446
 7882TIP3    H245138   1.955   4.208   2.920  0.6884 -0.5638 -0.5122
 7883TIP3   OH245139   0.833   5.946  17.088 -0.2688 -0.1593 -0.0729
 7883TIP3    H145140   0.758   5.965  17.144 -1.1536  0.3228 -1.3682
 7883TIP3    H245141   0.798   5.884  17.023  1.5816 -3.4857  1.8324
 7884TIP3   OH245142   3.531   4.661  15.060 -0.1527  0.2427  0.4025
 7884TIP3    H145143   3.617   4.703  15.062 -0.4800  0.8991  1.0709
 7884TIP3    H245144   3.470   4.731  15.082 -0.7721 -0.4471  0.9066
 7885TIP3   OH245145   3.796   6.740   5.256  0.1344 -0.4084 -0.2600
 7885TIP3    H145146   3.829   6.652   5.239 -0.6252 -0.3967 -1.9226
 7885TIP3    H245147   3.825   6.759   5.346 -0.7474 -2.8345  0.6225
 7886TIP3   OH245148   3.592   2.921   2.891  0.0986 -0.2212 -0.0201
 7886TIP3    H145149   3.683   2.951   2.900  0.7645 -1.9404 -0.5640
 7886TIP3    H245150   3.558   2.970   2.817  0.4652  0.6592  0.3695
 7887TIP3   OH245151   3.201   6.584  15.676  0.0563 -0.3357 -0.3376
 7887TIP3    H145152   3.266   6.515  15.664  2.1690  1.2159  1.3506
 7887TIP3    H245153   3.221   6.647  15.607 -0.4493 -0.3851 -0.5322
 7888TIP3   OH245154   5.498   3.201   6.463 -0.5525  0.3807  0.4176
 7888TIP3    H145155   5.564   3.227   6.527 -0.6822  0.0639  0.6859
 7888TIP3    H245156   5.449   3.131   6.507  0.6888 -1.3450 -0.8079
 7889TIP3   OH245157   1.894   6.482  10.660 -0.1014 -0.2320 -0.4252
 7889TIP3    H145158   1.834   6.408  10.663  1.4009 -1.4821 -0.5850
 7889TIP3    H245159   1.919   6.496  10.751 -1.1785  0.7934 -0.2553
 7890TIP3   OH245160   6.739   2.220  13.031 -0.1992  0.2802 -0.1307
 7890TIP3    H145161   6.715   2.283  12.963 -0.4706  0.0629 -0.2363
 7890TIP3    H245162   6.715   2.135  12.995  0.7774  0.0489 -0.2665
 7891TIP3   OH245163   2.411   1.822  16.118  0.7605  0.3857  0.3015
 7891TIP3    H145164   2.364   1.841  16.200  0.2479 -0.4841  0.2307
 7891TIP3    H245165   2.471   1.751  16.141  0.0214 -0.4468 -0.2470
 7892TIP3   OH245166   4.552   2.124  14.385 -0.3583 -0.6415 -0.0647
 7892TIP3    H145167   4.592   2.052  14.337  0.2866 -0.0297 -0.4513
 7892TIP3    H245168   4.478   2.152  14.330  0.7117  0.4252 -1.0040
 7893TIP3   OH245169   3.945   1.788  11.917  0.3428  0.3803  0.1138
 7893TIP3    H145170   3.871   1.743  11.957 -0.1427 -1.0780 -2.1954
 7893TIP3    H245171   3.906   1.846  11.852  1.0427  3.4614  2.2160
 7894TIP3   OH245172   2.444   5.886  15.530  0.1613  0.3121  0.0546
 7894TIP3    H145173   2.376   5.954  15.522 -1.0199 -1.0013 -1.8757
 7894TIP3    H245174   2.522   5.926  15.492  0.0777  1.2766  0.8329
 7895TIP3   OH245175   6.188   6.392  16.398 -0.2757 -0.0437 -0.0018
 7895TIP3    H145176   6.237   6.354  16.324 -0.3286 -1.0605  0.4731
 7895TIP3    H245177   6.107   6.342  16.401 -0.6988  0.6463  0.1493
 7896TIP3   OH245178   2.616   3.856  14.438 -0.3744 -0.1372  0.3367
 7896TIP3    H145179   2.531   3.832  14.474 -0.8169  1.6766  0.5935
 7896TIP3    H245180   2.680   3.807  14.490 -1.1818 -0.3262  1.1608
 7897TIP3   OH245181   2.107   3.671  11.273 -0.7594 -0.0713 -0.0326
 7897TIP3    H145182   2.126   3.764  11.270  0.5549 -0.3395 -1.3042
 7897TIP3    H245183   2.103   3.649  11.366  0.3160  0.9790  0.2740
 7898TIP3   OH245184   6.785   6.783   6.080 -0.1014  0.7708 -0.1166
 7898TIP3    H145185   6.703   6.828   6.097  0.8462  3.1888 -1.4684
 7898TIP3    H245186   6.789   6.774   5.985  1.3713  1.1130 -0.1161
 7899TIP3   OH245187   6.357   3.194   1.027 -0.1079  0.0547 -0.6081
 7899TIP3    H145188   6.383   3.266   0.969  0.4810 -0.7732 -1.4132
 7899TIP3    H245189   6.291   3.146   0.977 -1.7234  0.9339  0.5848
 7900TIP3   OH245190   2.017   0.887  12.945 -0.0675  0.5768  0.3969
 7900TIP3    H145191   2.012   0.887  13.040 -2.5282 -2.1604  0.3817
 7900TIP3    H245192   1.942   0.940  12.917 -1.2615 -1.2086  0.0575
 7901TIP3   OH245193   4.223   1.749  16.584 -0.3659  0.6640 -0.7353
 7901TIP3    H145194   4.254   1.732  16.495  1.7422  1.6580 -0.2363
 7901TIP3    H245195   4.269   1.685  16.639 -0.9072  0.7069 -0.2121
 7902TIP3   OH245196   0.291   0.984  16.126 -0.5111  0.2153  0.1988
 7902TIP3    H145197   0.348   0.949  16.195 -0.1993  0.8432  0.2677
 7902TIP3    H245198   0.222   1.031  16.174 -1.1225 -0.5862  0.1192
 7903TIP3   OH245199   3.153   0.313  15.837  0.3332  0.1432  0.4441
 7903TIP3    H145200   3.087   0.245  15.824  1.8052 -1.3594  0.6384
 7903TIP3    H245201   3.235   0.274  15.808  0.5968  3.5750 -4.7712
 7904TIP3   OH245202   4.769   4.849   6.267 -0.3451  0.2145 -0.1743
 7904TIP3    H145203   4.776   4.754   6.274 -0.4620  0.2365  0.2699
 7904TIP3    H245204   4.676   4.866   6.253 -0.2660  0.2425 -0.7131
 7905TIP3   OH245205   6.036   5.501   3.590  0.0763  0.2384 -0.4308
 7905TIP3    H145206   6.091   5.511   3.513 -1.4613 -1.7132 -1.8907
 7905TIP3    H245207   6.036   5.407   3.608 -0.6897  0.5002  1.1204
 7906TIP3   OH245208   5.134   3.909   0.107 -0.4737 -0.1956  0.2333
 7906TIP3    H145209   5.105   3.895   0.017  1.6101 -0.1177 -0.5089
 7906TIP3    H245210   5.089   3.989   0.134 -1.3767 -0.3982 -0.6017
 7907TIP3   OH245211   3.155   5.879  13.610  0.2418  0.7192 -0.3547
 7907TIP3    H145212   3.224   5.874  13.677  0.2714  0.7810 -0.3812
 7907TIP3    H245213   3.078   5.911  13.657 -0.3909 -1.3897  0.1583
 7908TIP3   OH245214   6.076   6.167  13.259 -0.8429  0.1561 -0.1493
 7908TIP3    H145215   5.994   6.122  13.282 -0.5163 -0.4547 -0.1547
 7908TIP3    H245216   6.116   6.110  13.193 -1.1154  1.2085 -1.2442
 7909TIP3   OH245217   2.072   3.832  16.551  0.1485 -0.6059 -0.5757
 7909TIP3    H145218   2.160   3.854  16.520 -0.2906  0.0052 -1.4368
 7909TIP3    H245219   2.014   3.859  16.480 -0.7395 -1.0136 -0.0246
 7910TIP3   OH245220   2.062   2.250  12.574  0.8951  0.3522  0.9181
 7910TIP3    H145221   2.051   2.181  12.638  0.3783  0.9176  1.4491
 7910TIP3    H245222   2.141   2.296  12.601  1.0278  0.2037  0.7843
 7911TIP3   OH245223   4.294   6.409   2.207  1.1011  0.0253 -0.1080
 7911TIP3    H145224   4.242   6.488   2.192  0.7448 -0.3415 -0.8638
 7911TIP3    H245225   4.235   6.336   2.185  1.3656 -0.4692  0.7407
 7912TIP3   OH245226   4.518   4.745   5.168  0.5013 -0.6129 -0.0441
 7912TIP3    H145227   4.435   4.707   5.196 -0.8553  2.9426  1.3444
 7912TIP3    H245228   4.503   4.775   5.079  1.1103 -1.9772 -0.6306
 7913TIP3   OH245229   4.805   1.946  11.673  0.2424  0.0602 -0.1027
 7913TIP3    H145230   4.819   1.937  11.767 -1.5992  2.0738  0.4365
 7913TIP3    H245231   4.714   1.917  11.659  0.8425 -1.3316 -1.4976
 7914TIP3   OH245232   5.177   2.456   3.916  0.0178 -0.3907  0.3475
 7914TIP3    H145233   5.121   2.382   3.940  1.7411 -1.5832  0.8586
 7914TIP3    H245234   5.212   2.488   3.999 -1.5003  1.7209  0.2375
 7915TIP3   OH245235   5.159   0.699  16.593  0.1897  1.1543  0.3974
 7915TIP3    H145236   5.099   0.676  16.522  0.1061 -0.8377  1.0424
 7915TIP3    H245237   5.225   0.630  16.591 -0.0100  0.8347  2.4484
 7916TIP3   OH245238   3.447   4.736  12.774 -0.0324 -0.5014  0.5476
 7916TIP3    H145239   3.489   4.660  12.813 -0.1655 -0.4932  0.7106
 7916TIP3    H245240   3.518   4.795  12.750  0.1243 -1.0159 -0.3001
 7917TIP3   OH245241   4.320   6.343  10.987  0.2160  0.6302  0.2969
 7917TIP3    H145242   4.396   6.399  10.969  0.2356  1.3319  2.3242
 7917TIP3    H245243   4.249   6.384  10.937  0.9848  0.3918 -1.0377
 7918TIP3   OH245244   2.847   3.068  14.523  0.1835  0.6552 -0.3700
 7918TIP3    H145245   2.785   2.996  14.517 -0.3544  0.8209  2.1384
 7918TIP3    H245246   2.801   3.142  14.484  0.2461 -0.0080 -1.7845
 7919TIP3   OH245247   1.795   6.264   2.135  0.4133 -0.0322 -0.2952
 7919TIP3    H145248   1.825   6.192   2.079 -0.3047 -0.1307 -0.5685
 7919TIP3    H245249   1.856   6.265   2.208  3.0417  1.7822 -2.3122
 7920TIP3   OH245250   2.932   1.484  15.355  0.0171  0.4338 -0.0447
 7920TIP3    H145251   2.852   1.462  15.307  0.6823  0.3902 -1.1644
 7920TIP3    H245252   2.944   1.411  15.416  0.7577 -1.0435 -1.8692
 7921TIP3   OH245253   4.084   5.033   4.727  0.6023 -0.6687  0.1860
 7921TIP3    H145254   4.074   5.040   4.822 -0.1559 -0.3186  0.0830
 7921TIP3    H245255   4.049   4.947   4.705  1.2987 -0.9878  0.2832
 7922TIP3   OH245256   3.305   5.674   5.561  0.3583  0.3456  0.1849
 7922TIP3    H145257   3.370   5.605   5.552 -0.5678 -0.7748  1.6758
 7922TIP3    H245258   3.309   5.701   5.652  0.0456  1.6304 -0.1515
 7923TIP3   OH245259   5.039   3.273   0.255  0.2025 -0.2633 -0.0841
 7923TIP3    H145260   5.079   3.335   0.194  1.1998 -1.2621 -0.4743
 7923TIP3    H245261   4.950   3.262   0.221 -0.7296  2.4463  1.1573
 7924TIP3   OH245262   6.840   3.729  13.380  0.4028 -0.2645 -0.5413
 7924TIP3    H145263   6.864   3.804  13.325 -0.6861 -0.2143 -0.9911
 7924TIP3    H245264   6.906   3.727  13.449  0.0959  1.5159 -0.1424
 7925TIP3   OH245265   5.081   2.233   3.346  0.8456  0.2486 -0.1040
 7925TIP3    H145266   5.063   2.322   3.317  0.8461  0.4196  0.4141
 7925TIP3    H245267   5.072   2.236   3.441 -2.2251 -0.9528 -0.2420
 7926TIP3   OH245268   1.513   3.838   2.356  0.5891  0.3338 -0.5019
 7926TIP3    H145269   1.430   3.793   2.347  0.1293  1.0417  0.0491
 7926TIP3    H245270   1.570   3.775   2.400  0.4067 -0.2167 -1.0451
 7927TIP3   OH245271   3.836   3.008   2.802  0.2803  0.0087  0.1904
 7927TIP3    H145272   3.807   3.058   2.726 -0.6361  1.4926  1.4679
 7927TIP3    H245273   3.892   2.939   2.765  0.0667  0.8251 -1.7838
 7928TIP3   OH245274   0.343   4.454   2.249  0.2351  0.1840  0.3780
 7928TIP3    H145275   0.406   4.385   2.272  1.5389  1.2481  0.1462
 7928TIP3    H245276   0.391   4.509   2.187 -0.8953  1.1224  0.3170
 7929TIP3   OH245277   6.493   0.475  17.055  0.1912  0.1511 -0.1259
 7929TIP3    H145278   6.567   0.510  17.104  0.0951  2.1193 -1.2981
 7929TIP3    H245279   6.418   0.486  17.113  0.3656  0.8194 -0.0197
 7930TIP3   OH245280   6.160   5.160   3.910  0.1579 -0.1646 -0.3952
 7930TIP3    H145281   6.215   5.110   3.971 -0.2345  0.7496  0.7498
 7930TIP3    H245282   6.088   5.192   3.964  0.5258  1.8336 -1.0251
 7931TIP3   OH245283   6.766   5.266  13.541 -1.1735  0.1806  0.0259
 7931TIP3    H145284   6.786   5.260  13.634  1.3208  0.1974 -0.4508
 7931TIP3    H245285   6.782   5.178  13.507 -1.5446  0.3026 -0.4796
 7932TIP3   OH245286   0.075   2.372   2.151  0.2665 -0.0132 -0.2820
 7932TIP3    H145287   0.160   2.342   2.117  1.6070  3.1558 -0.1562
 7932TIP3    H245288   0.015   2.363   2.077  2.0268  2.3690 -2.1709
 7933TIP3   OH245289   6.768   0.837  16.244  0.5843  0.6415 -0.7844
 7933TIP3    H145290   6.685   0.791  16.254 -0.2682  2.1528 -0.5415
 7933TIP3    H245291   6.830   0.788  16.297 -0.1676 -0.4606 -0.8969
 7934TIP3   OH245292   0.120   6.035   4.776 -0.2700  1.0904 -0.3306
 7934TIP3    H145293   0.166   5.978   4.715 -0.3931  1.5188 -0.8368
 7934TIP3    H245294   0.080   5.976   4.839 -0.4572  0.6132 -0.8872
 7935TIP3   OH245295   1.743   0.905   4.734 -0.3256  0.1327 -0.6393
 7935TIP3    H145296   1.675   0.844   4.704 -3.0356  2.0643  1.0912
 7935TIP3    H245297   1.737   0.978   4.673 -1.8118  1.4927  1.0136
 7936TIP3   OH245298   6.079   6.050  13.889  0.1066  0.1567  0.3067
 7936TIP3    H145299   6.127   5.974  13.858  0.1805 -0.2163  1.3016
 7936TIP3    H245300   6.134   6.125  13.865  0.6676 -0.1930  0.5018
 7937TIP3   OH245301   3.745   0.329   1.326  0.1159 -0.4161  0.0096
 7937TIP3    H145302   3.784   0.366   1.247  0.0797  1.1339  0.6650
 7937TIP3    H245303   3.716   0.242   1.301 -1.1682  0.5539 -2.0912
 7938TIP3   OH245304   3.919   0.440  12.777  0.7336  0.1710 -0.0594
 7938TIP3    H145305   3.902   0.526  12.740  0.3572 -0.1803 -0.7225
 7938TIP3    H245306   3.943   0.385  12.702  1.6547 -0.1370  0.4396
 7939TIP3   OH245307   4.964   4.802  11.373 -0.6465 -0.1239 -0.0602
 7939TIP3    H145308   5.032   4.735  11.370  2.2794  2.6636 -2.7839
 7939TIP3    H245309   4.912   4.786  11.294  0.0079  0.7068 -0.6712
 7940TIP3   OH245310   1.485   0.421   1.456  0.3803 -0.3084 -0.2829
 7940TIP3    H145311   1.526   0.336   1.441 -0.5238 -1.0457  1.2369
 7940TIP3    H245312   1.426   0.407   1.530 -1.1188  1.2076 -1.1181
 7941TIP3   OH245313   2.489   2.937   1.758 -0.3469  0.9536 -0.5159
 7941TIP3    H145314   2.435   2.958   1.834  0.8234  0.6367  0.4269
 7941TIP3    H245315   2.565   2.996   1.765  0.1405  0.4058 -1.0179
 7942TIP3   OH245316   0.075   5.685   1.962  0.0333 -0.0865  0.3350
 7942TIP3    H145317   0.107   5.608   2.010 -2.1678 -1.5603 -0.3773
 7942TIP3    H245318   0.025   5.734   2.027 -0.7261 -0.6757  0.2156
 7943TIP3   OH245319   2.206   4.689  13.940 -0.0930  0.0431 -0.5824
 7943TIP3    H145320   2.179   4.597  13.936  0.8169 -0.2867  0.2243
 7943TIP3    H245321   2.299   4.687  13.918 -0.0091  0.7442 -0.3145
 7944TIP3   OH245322   1.144   2.647  12.831  0.6278 -0.0036 -0.0754
 7944TIP3    H145323   1.145   2.633  12.736  1.6603 -0.5147 -0.0054
 7944TIP3    H245324   1.059   2.614  12.859  0.7203 -0.7938 -0.6982
 7945TIP3   OH245325   0.531   5.904   1.482 -0.1121  0.4089 -0.3142
 7945TIP3    H145326   0.577   5.827   1.516  0.5675  0.7606 -0.4292
 7945TIP3    H245327   0.544   5.900   1.387 -0.1600  0.6096 -0.3299
 7946TIP3   OH245328   6.299   2.211  14.503  0.1598  0.1558  0.4255
 7946TIP3    H145329   6.394   2.224  14.494  0.2776 -1.1545 -0.4817
 7946TIP3    H245330   6.282   2.128  14.459 -1.4263  0.3697  0.5861
 7947TIP3   OH245331   0.863   4.039   2.407 -0.0650 -0.1063 -0.0161
 7947TIP3    H145332   0.951   4.031   2.444  0.2865 -0.3952 -0.8979
 7947TIP3    H245333   0.875   4.086   2.325 -0.7733  0.1177  0.0042
 7948TIP3   OH245334   2.058   0.649   1.600 -0.1922  0.4851 -0.2244
 7948TIP3    H145335   2.087   0.729   1.555  0.9222 -0.9614 -2.2360
 7948TIP3    H245336   2.011   0.600   1.533 -0.7703 -0.6082  0.9543
 7949TIP3   OH245337   1.983   6.582  10.936  0.3300 -0.0555 -0.3047
 7949TIP3    H145338   2.074   6.596  10.959 -0.2914  1.6537  1.3726
 7949TIP3    H245339   1.939   6.664  10.960 -2.2619 -2.0365  2.4129
 7950TIP3   OH245340   4.566   4.724  16.527  0.0037  0.0374 -0.0066
 7950TIP3    H145341   4.630   4.664  16.489 -0.0907 -0.2745  0.3306
 7950TIP3    H245342   4.610   4.762  16.603 -0.1471 -0.0330  0.1146
 7951TIP3   OH245343   2.484   6.203   4.870  0.1376 -0.0482  0.0690
 7951TIP3    H145344   2.521   6.122   4.904  1.5156 -0.7145 -2.7150
 7951TIP3    H245345   2.546   6.271   4.898 -0.4337 -0.0641  1.4635
 7952TIP3   OH245346   2.614   4.688  15.564  0.0314  0.6267 -0.3995
 7952TIP3    H145347   2.691   4.744  15.552  0.7410 -0.1351  0.4483
 7952TIP3    H245348   2.632   4.611  15.510  0.3739 -0.0282  0.6246
 7953TIP3   OH245349   5.971   0.057  12.242 -0.3838 -0.6922 -0.3137
 7953TIP3    H145350   6.063   0.048  12.266 -0.1223  2.0078 -0.0153
 7953TIP3    H245351   5.925  -0.003  12.301  1.0429 -1.0700  0.4707
 7954TIP3   OH245352   2.498   5.400   2.055  0.0524  0.2580  0.0207
 7954TIP3    H145353   2.492   5.400   2.150 -0.5592 -1.2456 -0.0010
 7954TIP3    H245354   2.583   5.439   2.036  0.4059  0.0814  1.1973
 7955TIP3   OH245355   4.199   4.378  15.760 -0.7697  0.1952 -0.3723
 7955TIP3    H145356   4.181   4.310  15.695 -0.3781  0.8330 -1.1619
 7955TIP3    H245357   4.294   4.372  15.775 -0.8767 -0.0452  0.2626
 7956TIP3   OH245358   0.894   0.653  11.152 -0.2838 -0.3251 -0.4117
 7956TIP3    H145359   0.815   0.609  11.120 -0.3114  0.2038 -1.0682
 7956TIP3    H245360   0.931   0.696  11.075  1.2567 -1.4788 -0.3523
 7957TIP3   OH245361   4.929   2.081  13.997 -0.0439 -0.0604 -0.3584
 7957TIP3    H145362   4.895   2.105  13.911  3.4210  1.5380 -1.4468
 7957TIP3    H245363   5.015   2.043  13.980 -0.2632 -2.0550  2.2974
 7958TIP3   OH245364   1.264   0.321   6.141  0.4129 -0.2269  0.0591
 7958TIP3    H145365   1.306   0.307   6.226  0.9216  0.7550 -0.0248
 7958TIP3    H245366   1.333   0.305   6.077 -0.1105 -1.5236 -0.2170
 7959TIP3   OH245367   0.052   0.365  14.482  0.2564  0.4083 -0.4524
 7959TIP3    H145368   0.107   0.435  14.519 -0.2411  0.4980  0.1318
 7959TIP3    H245369   0.022   0.316  14.558 -0.4210  0.3206 -0.7757
 7960TIP3   OH245370   6.000   1.427  17.150  0.1069  0.0700  0.4944
 7960TIP3    H145371   6.046   1.373  17.214 -0.3524  0.7613  1.4303
 7960TIP3    H245372   5.908   1.414  17.170 -0.0089  1.0848  0.6318
 7961TIP3   OH245373   6.437   6.024  15.367 -0.9092  0.1587 -1.0150
 7961TIP3    H145374   6.353   6.034  15.323 -0.7754 -0.5569 -1.4620
 7961TIP3    H245375   6.420   5.964  15.439 -1.0233  0.9418 -0.3833
 7962TIP3   OH245376   5.834   1.522  14.694  0.3818 -0.5420 -0.3476
 7962TIP3    H145377   5.895   1.596  14.692 -0.0076 -0.2182 -1.9499
 7962TIP3    H245378   5.750   1.562  14.720  0.5519 -0.7593  0.5715
 7963TIP3   OH245379   0.708   0.189  10.428 -0.0697 -0.1370 -0.7455
 7963TIP3    H145380   0.774   0.258  10.418  0.0106 -0.1279 -0.2196
 7963TIP3    H245381   0.758   0.108  10.435  0.1420  0.1264  2.5528
 7964TIP3   OH245382   1.030   4.468  14.504 -0.3227 -0.6397 -0.1443
 7964TIP3    H145383   1.038   4.506  14.592  0.7394 -0.6324 -0.2283
 7964TIP3    H245384   1.039   4.374  14.518 -1.2192 -0.7342 -0.1354
 7965TIP3   OH245385   5.337   2.810  12.871 -0.0160 -0.1874  0.2732
 7965TIP3    H145386   5.292   2.751  12.931  0.4001 -0.5301  0.2527
 7965TIP3    H245387   5.273   2.830  12.804  0.7025 -3.0301 -1.4084
 7966TIP3   OH245388   3.263   0.280  14.922 -0.3760 -0.2880 -0.4701
 7966TIP3    H145389   3.177   0.253  14.890 -0.4449 -1.7157  0.7971
 7966TIP3    H245390   3.250   0.370  14.953 -0.8655  0.2609 -2.1704
 7967TIP3   OH245391   5.001   0.393   1.575 -0.1163 -0.4976  0.3242
 7967TIP3    H145392   5.027   0.393   1.483 -2.2093 -1.7536 -0.3486
 7967TIP3    H245393   4.979   0.301   1.594 -1.1276 -0.0188  1.6310
 7968TIP3   OH245394   6.783   1.121   1.813  0.1702 -0.4114  0.1752
 7968TIP3    H145395   6.849   1.071   1.765  1.7531  1.9487 -0.2798
 7968TIP3    H245396   6.726   1.157   1.745  1.6139  1.8358  0.0762
 7969TIP3   OH245397   4.971   3.980   1.978  0.3341  0.1886  0.9802
 7969TIP3    H145398   4.915   3.947   1.907  1.0525  1.0967 -0.0520
 7969TIP3    H245399   4.919   3.969   2.057 -1.4302  1.2236  0.0357
 7970TIP3   OH245400   1.160   5.871   0.566 -0.7529  0.4703 -0.0986
 7970TIP3    H145401   1.099   5.860   0.640  2.3058 -1.1797  2.3916
 7970TIP3    H245402   1.198   5.785   0.553  2.3119  1.7487 -0.3109
 7971TIP3   OH245403   5.615   1.182  16.101  0.0644  0.1060  0.2186
 7971TIP3    H145404   5.657   1.248  16.158 -0.7422  1.8474 -1.1015
 7971TIP3    H245405   5.604   1.227  16.017  1.9559 -2.6243 -1.6521
 7972TIP3   OH245406   1.247   3.480  11.832  0.4584 -0.5382  0.2547
 7972TIP3    H145407   1.216   3.487  11.741  3.1876 -0.8557 -0.7855
 7972TIP3    H245408   1.190   3.414  11.871 -1.8573  0.7744 -0.6758
 7973TIP3   OH245409   6.674   1.624   0.229  0.1355  0.1448  0.1429
 7973TIP3    H145410   6.604   1.580   0.180 -0.0903  0.0518  0.5416
 7973TIP3    H245411   6.744   1.638   0.164  0.2270 -0.8340  0.0161
 7974TIP3   OH245412   2.192   0.393  15.648  0.0043  0.4523 -0.5308
 7974TIP3    H145413   2.219   0.323  15.589 -2.7154 -1.5959  0.4333
 7974TIP3    H245414   2.097   0.395  15.640 -0.5092  0.2724  3.4348
 7975TIP3   OH245415   3.179   6.061  15.949 -0.2107  0.1503  0.0712
 7975TIP3    H145416   3.156   6.042  15.858  0.3070 -1.6535  0.2839
 7975TIP3    H245417   3.238   6.137  15.943  1.2341 -0.9960 -1.2976
 7976TIP3   OH245418   5.853   4.735   4.679  0.0264 -0.3013 -0.6801
 7976TIP3    H145419   5.779   4.690   4.721  0.4484 -2.1586 -1.7772
 7976TIP3    H245420   5.853   4.822   4.718 -0.7393 -1.2826  1.7396
 7977TIP3   OH245421   5.955   0.880  12.864  0.2860 -0.4060 -0.3080
 7977TIP3    H145422   5.983   0.857  12.775  0.8774 -0.8693 -0.0049
 7977TIP3    H245423   6.030   0.925  12.902 -0.2221  0.4224 -0.2775
 7978TIP3   OH245424   1.006   3.939  13.627 -0.2010  0.4140 -0.0704
 7978TIP3    H145425   1.093   3.965  13.599 -0.6552  1.2231 -0.7760
 7978TIP3    H245426   1.006   3.843  13.621 -0.1198  0.5123 -2.4079
 7979TIP3   OH245427   3.317   1.970   1.281  0.1482 -0.1051  0.1472
 7979TIP3    H145428   3.293   1.916   1.356 -0.6064  1.3681  1.0140
 7979TIP3    H245429   3.236   1.978   1.230  0.1214  0.5727  0.2809
 7980TIP3   OH245430   0.073   3.389   3.508 -0.3740 -0.3530  0.2025
 7980TIP3    H145431  -0.006   3.366   3.459 -1.3014  1.4506  0.7243
 7980TIP3    H245432   0.081   3.484   3.496  0.3670 -0.1366  2.0854
 7981TIP3   OH245433   2.090   2.858   2.417 -0.2242  0.3348 -0.2783
 7981TIP3    H145434   2.087   2.939   2.468  0.3489 -0.1400  0.5566
 7981TIP3    H245435   2.169   2.813   2.449  1.1294  0.7699 -2.7882
 7982TIP3   OH245436   5.242   0.698   0.848  0.9848  0.4924 -1.1525
 7982TIP3    H145437   5.216   0.606   0.851  2.0600  0.0982 -2.5240
 7982TIP3    H245438   5.300   0.709   0.923 -0.7606  0.6203  0.2185
 7983TIP3   OH245439   2.387   3.629   2.919  0.0363 -0.6059 -0.1574
 7983TIP3    H145440   2.313   3.615   2.859  0.2189 -1.4306 -0.2055
 7983TIP3    H245441   2.348   3.623   3.006 -0.8395  3.7094 -0.0566
 7984TIP3   OH245442   2.755   3.738   5.283  0.4444 -0.3948 -0.2092
 7984TIP3    H145443   2.766   3.644   5.269 -0.0936 -0.4724 -0.1411
 7984TIP3    H245444   2.679   3.761   5.229 -0.3489 -0.2881  0.9204
 7985TIP3   OH245445   0.976   6.085  11.239  0.1583 -0.0769  0.0731
 7985TIP3    H145446   0.940   6.003  11.272 -1.9003  0.8837  0.3778
 7985TIP3    H245447   0.992   6.069  11.146 -0.2413 -0.8069  0.1236
 7986TIP3   OH245448   0.340   3.111   2.653 -0.3071  0.1396  0.4692
 7986TIP3    H145449   0.268   3.163   2.688 -1.0142 -0.4731 -0.0236
 7986TIP3    H245450   0.318   3.021   2.676  0.3049 -0.0603  0.3038
 7987TIP3   OH245451   5.237   0.224  10.776 -0.0522 -0.1987 -0.1594
 7987TIP3    H145452   5.223   0.316  10.799 -1.0482 -0.2679 -0.4388
 7987TIP3    H245453   5.176   0.176  10.832 -0.1885 -0.6129 -0.6498
 7988TIP3   OH245454   0.834   2.537   3.484  0.2743  0.0530 -0.4510
 7988TIP3    H145455   0.789   2.453   3.475 -0.0242  0.2217 -0.5181
 7988TIP3    H245456   0.764   2.601   3.498  0.6006 -0.1448  3.1357
 7989TIP3   OH245457   4.282   0.393  13.471  0.2959  0.1634  0.1641
 7989TIP3    H145458   4.201   0.350  13.501  0.0199  1.2236  1.0054
 7989TIP3    H245459   4.296   0.358  13.383  0.1185 -1.6711  0.8138
 7990TIP3   OH245460   6.013   1.571   1.589 -0.0593 -0.3269 -0.3107
 7990TIP3    H145461   6.033   1.548   1.679  0.5548  0.8381 -0.1285
 7990TIP3    H245462   5.921   1.549   1.578  0.1125 -1.4041  0.2815
 7991TIP3   OH245463   2.894   3.615  12.747  0.1121 -0.0451  0.7907
 7991TIP3    H145464   2.979   3.656  12.729 -0.2073  0.0678 -0.5457
 7991TIP3    H245465   2.901   3.527  12.710 -0.6588  0.2910 -0.2216
 7992TIP3   OH245466   6.545   4.897   3.056 -0.0569  0.2060 -0.3811
 7992TIP3    H145467   6.516   4.879   3.145  0.7028  0.4628 -0.0782
 7992TIP3    H245468   6.533   4.992   3.045  0.3455  0.2567 -0.3754
 7993TIP3   OH245469   2.174   4.914  17.181  0.6541 -0.1384  0.3329
 7993TIP3    H145470   2.153   4.887  17.092 -3.1364 -2.7461  1.7102
 7993TIP3    H245471   2.230   4.843  17.214  0.7291 -0.0093  0.4818
 7994TIP3   OH245472   2.003   5.687   4.969  0.3500  0.0816  0.4024
 7994TIP3    H145473   2.009   5.722   5.058  1.1811  1.6628 -0.2381
 7994TIP3    H245474   2.094   5.668   4.945  0.2504  0.6325 -0.4557
 7995TIP3   OH245475   5.783   6.417  16.598  0.2184  0.4595  0.0789
 7995TIP3    H145476   5.858   6.365  16.625  0.2708  0.3499 -0.2735
 7995TIP3    H245477   5.740   6.442  16.680 -0.0275 -0.4494  0.2338
 7996TIP3   OH245478   0.042   0.220  12.373 -0.0570 -0.4968 -0.3967
 7996TIP3    H145479   0.099   0.207  12.298 -0.3007  0.0667 -0.6850
 7996TIP3    H245480   0.017   0.313  12.368 -0.1349 -0.4749  0.3319
 7997TIP3   OH245481   2.520   0.737   2.758 -0.3072 -0.1415  0.5362
 7997TIP3    H145482   2.487   0.773   2.840 -0.8823  0.2940  0.1156
 7997TIP3    H245483   2.473   0.654   2.748 -0.4766 -0.0377  0.4782
 7998TIP3   OH245484   6.211   1.359   4.232  0.2487  0.3513  0.6924
 7998TIP3    H145485   6.160   1.437   4.211 -0.3833 -0.3341 -0.4277
 7998TIP3    H245486   6.147   1.300   4.273  0.0290 -0.6047 -0.9318
 7999TIP3   OH245487   3.973   1.234   4.963 -0.1044  0.1955  0.7111
 7999TIP3    H145488   3.953   1.142   4.984  0.2551 -0.0590 -0.0443
 7999TIP3    H245489   3.917   1.254   4.888 -0.3289  0.6616  0.9963
 8000TIP3   OH245490   4.166   6.440   3.248 -0.2150  0.0298 -0.0682
 8000TIP3    H145491   4.224   6.453   3.323  0.0496 -0.8436 -0.1204
 8000TIP3    H245492   4.105   6.514   3.254  1.1976  1.2773 -0.3138
 8001TIP3   OH245493   3.002   6.684   5.776  0.0587 -0.4383  0.1078
 8001TIP3    H145494   3.025   6.768   5.816 -0.2649  0.4921 -1.5901
 8001TIP3    H245495   2.916   6.663   5.812  0.8700 -0.9480  1.8692
 8002TIP3   OH245496   5.143   4.834   5.187  0.0417  0.3816 -0.2072
 8002TIP3    H145497   5.058   4.846   5.229  1.7192  1.2855  3.3147
 8002TIP3    H245498   5.135   4.750   5.141 -2.8653  0.7121 -0.5046
 8003TIP3   OH245499   4.283   6.729  12.209 -0.3277  0.4601  0.2792
 8003TIP3    H145500   4.279   6.764  12.120 -2.8401 -0.5884 -0.1092
 8003TIP3    H245501   4.197   6.690  12.223  1.0347 -2.2264  2.0075
 8004TIP3   OH245502   2.452   2.126  13.768  0.2138  0.1242  0.0526
 8004TIP3    H145503   2.462   2.041  13.810  1.5305  0.1224 -0.2300
 8004TIP3    H245504   2.501   2.187  13.824  1.0915  0.3034 -0.8727
 8005TIP3   OH245505   3.551   1.381  13.690  0.5962  0.0051 -0.6218
 8005TIP3    H145506   3.556   1.466  13.733 -0.8854 -1.1095  2.0785
 8005TIP3    H245507   3.631   1.336  13.716  0.2937 -0.2128 -0.0364
 8006TIP3   OH245508   2.277   2.824   5.777 -0.1648 -0.3541  0.1759
 8006TIP3    H145509   2.232   2.768   5.839 -1.0752 -0.2916 -0.4069
 8006TIP3    H245510   2.222   2.902   5.771  0.8681  0.4497  0.6698
 8007TIP3   OH245511   1.274   2.105   4.452  0.2022  0.4177 -0.5315
 8007TIP3    H145512   1.279   2.012   4.433 -4.2992 -0.1089 -0.0553
 8007TIP3    H245513   1.279   2.147   4.366 -1.6976 -0.6069 -1.1910
 8008TIP3   OH245514   0.282   3.329  15.026  0.0326  0.2102 -0.5739
 8008TIP3    H145515   0.339   3.391  14.981 -0.8824  2.0824  0.6992
 8008TIP3    H245516   0.340   3.261  15.059  0.9856  0.0023 -2.5761
 8009TIP3   OH245517   5.219   4.951   3.335  0.1065  0.0259  0.1483
 8009TIP3    H145518   5.264   5.006   3.271 -0.4844 -0.0815 -0.3644
 8009TIP3    H245519   5.262   4.971   3.418  0.7208  0.3422 -0.2401
 8010TIP3   OH245520   0.345   6.829  16.745 -0.0782  0.0484  0.4776
 8010TIP3    H145521   0.311   6.907  16.701  1.4934  0.1376 -0.6591
 8010TIP3    H245522   0.314   6.756  16.692  0.7128  0.0827 -0.0561
 8011TIP3   OH245523   3.044   0.009   1.939 -0.1158 -0.0564  0.4551
 8011TIP3    H145524   3.026  -0.057   1.872  0.3238  1.5728 -1.3554
 8011TIP3    H245525   3.120  -0.024   1.987 -1.1333 -1.7855  0.9397
 8012TIP3   OH245526   2.588   5.566  13.996 -0.2985  0.4581 -0.0890
 8012TIP3    H145527   2.558   5.475  13.999  0.1533  0.2669 -0.8887
 8012TIP3    H245528   2.522   5.612  13.944  0.0236  0.3517 -0.5976
 8013TIP3   OH245529   5.084   0.641   3.475 -0.5348  0.3113 -0.4563
 8013TIP3    H145530   5.114   0.615   3.562  2.6148  1.2370 -1.1106
 8013TIP3    H245531   4.994   0.671   3.487 -0.3594 -0.0962  2.3514
 8014TIP3   OH245532   2.319   2.899  12.545  0.4370 -0.0510  0.6848
 8014TIP3    H145533   2.271   2.847  12.480  0.5013  0.2441  0.3988
 8014TIP3    H245534   2.411   2.883  12.524  0.4938 -1.1004  1.6144
 8015TIP3   OH245535   3.701   3.553  11.793 -0.1902 -0.4471  0.0998
 8015TIP3    H145536   3.673   3.476  11.843 -0.9495 -0.1834  0.0954
 8015TIP3    H245537   3.742   3.610  11.857 -0.4129 -0.4703  0.2620
 8016TIP3   OH245538   1.890   0.124   1.784 -0.2328 -0.7056  0.6106
 8016TIP3    H145539   1.901   0.080   1.700  0.3092  1.4329 -0.4921
 8016TIP3    H245540   1.963   0.091   1.838  0.2044 -1.0917 -0.2016
 8017TIP3   OH245541   0.958   3.783  14.166  0.0281 -0.1746 -0.6083
 8017TIP3    H145542   0.881   3.822  14.124  0.6617  1.5016 -0.2942
 8017TIP3    H245543   1.027   3.793  14.101  0.3961  0.0182 -0.1898
 8018TIP3   OH245544   3.388   3.121   2.427  0.0935  0.4918  0.1995
 8018TIP3    H145545   3.296   3.118   2.453  0.3832  0.6103  1.2955
 8018TIP3    H245546   3.389   3.084   2.339 -1.3800  3.0429 -0.9812
 8019TIP3   OH245547   1.074   0.922  16.477  0.5023  0.7515  0.3819
 8019TIP3    H145548   1.140   0.975  16.432  0.4899  1.5798  1.3108
 8019TIP3    H245549   1.009   0.901  16.409 -0.1602  3.0052  0.2457
 8020TIP3   OH245550   6.093   6.698  17.115  0.1155  0.0410 -0.1363
 8020TIP3    H145551   6.046   6.615  17.119  0.5052 -0.3839 -2.5358
 8020TIP3    H245552   6.171   6.678  17.062  0.0900  1.9648 -0.9649
 8021TIP3   OH245553   3.052   2.509   2.378  0.4260 -0.7796  0.1101
 8021TIP3    H145554   3.028   2.445   2.311 -1.0091 -0.5113  0.3375
 8021TIP3    H245555   3.083   2.585   2.330  0.2350 -0.9106 -0.2200
 8022TIP3   OH245556   1.164   0.195  10.720 -0.2481 -0.0800 -0.0792
 8022TIP3    H145557   1.229   0.153  10.664 -1.5412 -0.6150 -1.2186
 8022TIP3    H245558   1.100   0.127  10.738 -0.9266  0.6574  0.3578
 8023TIP3   OH245559   5.850   0.839  12.452  0.1400 -0.3692  0.0545
 8023TIP3    H145560   5.800   0.917  12.426 -0.7489 -0.5833  1.0567
 8023TIP3    H245561   5.788   0.767  12.442  0.7289 -0.8540 -0.1459
 8024TIP3   OH245562   3.664   0.003  15.219 -0.5902 -0.4443 -0.2282
 8024TIP3    H145563   3.742   0.043  15.180 -0.1801 -0.4133  0.5886
 8024TIP3    H245564   3.591   0.037  15.169 -0.1560  0.3927 -0.3044
 8025TIP3   OH245565   2.675   2.677  13.606 -0.1543 -0.4619 -0.0201
 8025TIP3    H145566   2.693   2.753  13.662  1.1969 -1.2988  0.7608
 8025TIP3    H245567   2.660   2.714  13.519  0.0091  0.7324  0.4361
 8026TIP3   OH245568   5.762   5.390   5.353  0.6984 -0.3719  0.0020
 8026TIP3    H145569   5.773   5.299   5.326  1.6247 -0.2376 -0.1111
 8026TIP3    H245570   5.792   5.441   5.278 -0.3796  0.0516 -0.1684
 8027TIP3   OH245571   1.340   2.512   3.645  0.1387  0.4973  0.0146
 8027TIP3    H145572   1.281   2.438   3.630 -0.2998  0.7554  0.4328
 8027TIP3    H245573   1.422   2.486   3.604  0.0233 -0.2718  0.2547
 8028TIP3   OH245574   4.476   1.777   1.050 -0.1019 -0.5252 -0.8050
 8028TIP3    H145575   4.387   1.814   1.047  0.4840  1.0308  0.0126
 8028TIP3    H245576   4.478   1.725   1.131 -0.3859 -0.9135 -1.0436
 8029TIP3   OH245577   4.584   0.942   4.375 -0.4318  0.1550 -0.1196
 8029TIP3    H145578   4.598   1.035   4.391 -2.3992  0.1786  2.0851
 8029TIP3    H245579   4.652   0.898   4.426  0.7980  0.3304 -1.5430
 8030TIP3   OH245580   1.054   4.589  17.071 -0.0447  0.0882  0.3649
 8030TIP3    H145581   1.023   4.569  17.159 -0.8932 -0.6566 -0.0839
 8030TIP3    H245582   0.977   4.623  17.026  0.5616  1.1525  0.1093
 8031TIP3   OH245583   2.869   3.043   5.430 -0.4752  0.0271  0.0456
 8031TIP3    H145584   2.845   3.005   5.514  0.5222 -0.2911  0.2094
 8031TIP3    H245585   2.794   3.096   5.404 -0.5375  0.6638  1.4558
 8032TIP3   OH245586   3.335   1.585   2.185 -0.0946 -0.2250 -0.1288
 8032TIP3    H145587   3.410   1.634   2.220  0.0177 -0.6307  0.2026
 8032TIP3    H245588   3.338   1.501   2.231 -0.4969 -0.4073 -0.4370
 8033TIP3   OH245589   4.785   4.801   4.097 -0.2235 -0.5795 -0.3397
 8033TIP3    H145590   4.848   4.860   4.055 -0.9420  0.2452 -0.2971
 8033TIP3    H245591   4.699   4.834   4.069 -0.7678  0.2698  2.0166
 8034TIP3   OH245592   1.319   4.474  12.891 -0.6810 -0.0461 -0.2864
 8034TIP3    H145593   1.238   4.460  12.841  0.6967  0.8377 -2.9890
 8034TIP3    H245594   1.330   4.569  12.892  0.3419 -0.1579  0.0001
 8035TIP3   OH245595   6.767   5.100   5.601 -0.5032  0.2042  0.0033
 8035TIP3    H145596   6.841   5.039   5.597  0.5613  1.2984  1.8472
 8035TIP3    H245597   6.807   5.186   5.612 -2.0068  1.1917 -1.6728
 8036TIP3   OH245598   4.614   5.720   4.993 -0.2755  0.0214 -0.1835
 8036TIP3    H145599   4.554   5.646   4.988 -0.8341  0.5394 -1.9050
 8036TIP3    H245600   4.648   5.717   5.082  0.1469 -2.6076 -0.3537
 8037TIP3   OH245601   5.281   1.862  13.054  0.0502  0.2530 -0.4187
 8037TIP3    H145602   5.193   1.850  13.018 -0.5389 -1.1168  1.3133
 8037TIP3    H245603   5.277   1.946  13.099 -0.2396  0.3868 -0.6921
 8038TIP3   OH245604   0.754   4.800   5.078  0.4197 -0.3484  0.1577
 8038TIP3    H145605   0.738   4.847   5.160 -0.2745 -0.0482 -0.1400
 8038TIP3    H245606   0.717   4.857   5.011  1.3216 -0.4111 -0.4084
 8039TIP3   OH245607   6.683   3.229   0.738  0.4457  0.0192 -0.1270
 8039TIP3    H145608   6.733   3.248   0.659 -3.1334 -0.0405 -2.6892
 8039TIP3    H245609   6.700   3.136   0.756  0.1463 -0.3930 -1.8316
 8040TIP3   OH245610   2.412   2.888  11.681  0.2660 -0.4137 -0.1912
 8040TIP3    H145611   2.395   2.960  11.620  1.2875  0.3351  0.3797
 8040TIP3    H245612   2.504   2.867  11.668  0.6146  0.0233  1.3471
 8041TIP3   OH245613   5.364   1.455   4.107 -0.2169  0.1299  0.0428
 8041TIP3    H145614   5.439   1.508   4.079 -0.9367  1.1232 -0.0361
 8041TIP3    H245615   5.317   1.435   4.025  0.1338 -0.7931  0.0490
 8042TIP3   OH245616   6.404   4.868   0.779  0.0670  0.4496 -0.3533
 8042TIP3    H145617   6.485   4.816   0.785  0.9077  1.8801  2.0737
 8042TIP3    H245618   6.338   4.815   0.823  0.4344  0.5524  0.3368
 8043TIP3   OH245619   1.017   4.108  12.716  0.4756  0.4712  0.0859
 8043TIP3    H145620   1.067   4.123  12.635  0.1403 -0.2460 -0.2690
 8043TIP3    H245621   1.064   4.158  12.783  0.8485  0.9511 -0.5241
 8044TIP3   OH245622   0.880   5.348   2.325 -0.1454 -0.3683 -0.7288
 8044TIP3    H145623   0.843   5.287   2.261 -3.2784 -1.7948  2.1277
 8044TIP3    H245624   0.927   5.293   2.387 -0.9634  0.3709  0.5897
 8045TIP3   OH245625   5.608   4.672  13.256  0.1844 -0.4921 -0.3514
 8045TIP3    H145626   5.572   4.647  13.171 -1.1851  0.4202 -0.0645
 8045TIP3    H245627   5.702   4.684  13.240 -0.0521 -0.3608 -1.7239
 8046TIP3   OH245628   0.367   5.377   0.487  1.3930  0.2512 -0.4044
 8046TIP3    H145629   0.413   5.341   0.411  0.7570  0.9720 -1.1493
 8046TIP3    H245630   0.357   5.470   0.468 -1.0193  0.0101 -0.6522
 8047TIP3   OH245631   2.963   1.009   6.514 -0.6049 -0.1568  0.1191
 8047TIP3    H145632   2.932   0.990   6.603 -1.3772  2.4690  0.4880
 8047TIP3    H245633   3.058   0.995   6.518 -0.8427 -1.8774  0.7964
 8048TIP3   OH245634   1.407   3.963  12.559 -0.0408 -0.1977  0.0696
 8048TIP3    H145635   1.398   3.886  12.614 -0.2010  1.3496  2.3429
 8048TIP3    H245636   1.336   3.955  12.495 -2.1761 -0.3951  2.3055
 8049TIP3   OH245637   4.567   3.858   2.772  0.3857 -0.9361  0.5778
 8049TIP3    H145638   4.482   3.817   2.753 -0.3150  1.0664 -0.9571
 8049TIP3    H245639   4.545   3.935   2.825  1.2373 -0.4509  0.2515
 8050TIP3   OH245640   0.933   6.101  15.043  0.7923  0.0491 -0.7239
 8050TIP3    H145641   0.990   6.178  15.046  2.2664 -1.0261  0.7087
 8050TIP3    H245642   0.848   6.133  15.072  1.3805  1.1284 -0.1311
 8051TIP3   OH245643   2.767   5.588   5.506 -0.0713 -0.2385  0.0686
 8051TIP3    H145644   2.819   5.650   5.454 -0.0989 -0.0417  0.2743
 8051TIP3    H245645   2.825   5.512   5.518 -0.3649 -0.6424 -0.9682
 8052TIP3   OH245646   1.776   1.040   5.820 -0.2891  1.1074  0.5739
 8052TIP3    H145647   1.843   0.987   5.775 -1.2812  1.6560 -1.7220
 8052TIP3    H245648   1.825   1.113   5.857  0.3842  1.8785 -1.6574
 8053TIP3   OH245649   5.292   3.006   0.152  0.1612 -0.8353 -0.6105
 8053TIP3    H145650   5.373   3.041   0.115  0.5872 -0.4380  0.6468
 8053TIP3    H245651   5.286   2.917   0.119  0.0827 -0.2378 -2.2862
 8054TIP3   OH245652   1.081   5.004  17.019 -0.1716  0.5921 -0.0627
 8054TIP3    H145653   1.174   4.993  16.998 -0.3477 -4.0820  0.5198
 8054TIP3    H245654   1.080   5.026  17.112  0.2504  2.8577 -0.5218
 8055TIP3   OH245655   0.036   0.547   2.480  0.4303 -0.0197 -0.1295
 8055TIP3    H145656   0.007   0.639   2.475  2.7441  0.7147 -2.6737
 8055TIP3    H245657  -0.033   0.503   2.530 -1.8433  2.6819 -0.6077
 8056TIP3   OH245658   1.358   0.388  14.793  0.2893  0.4613  0.0529
 8056TIP3    H145659   1.363   0.444  14.716  0.7320 -1.1922 -1.1768
 8056TIP3    H245660   1.317   0.307  14.762  1.5839 -0.7211  1.2455
 8057TIP3   OH245661   1.698   3.240  12.024  0.0720  0.1868  0.8150
 8057TIP3    H145662   1.708   3.227  11.930 -0.5049  0.2320  0.7404
 8057TIP3    H245663   1.604   3.230  12.039  0.0916  0.6892  1.3068
 8058TIP3   OH245664   6.711   1.520  14.660 -0.2592 -0.7619 -0.5142
 8058TIP3    H145665   6.761   1.566  14.593 -4.0665  2.4526 -1.4786
 8058TIP3    H245666   6.652   1.462  14.611 -1.1720 -0.4592  0.2042
 8059TIP3   OH245667   6.740   4.669   2.933  0.3342  0.9069  0.3233
 8059TIP3    H145668   6.813   4.643   2.989  1.4319  0.4003 -1.2708
 8059TIP3    H245669   6.781   4.717   2.861 -0.6373 -0.9603 -1.5938
 8060TIP3   OH245670   6.589   2.322  16.065  0.0900  0.5729  0.0865
 8060TIP3    H145671   6.629   2.356  16.145  1.6431 -1.4622  0.2609
 8060TIP3    H245672   6.664   2.307  16.006 -0.9042  0.8641 -1.3132
 8061TIP3   OH245673   2.033   1.075   4.882 -0.1325  0.3882 -0.2029
 8061TIP3    H145674   2.112   1.022   4.870 -0.4645  0.2492 -2.2878
 8061TIP3    H245675   1.965   1.012   4.907  0.1955  0.3581  0.6272
 8062TIP3   OH245676   6.195   5.839  13.779 -0.1071 -0.0605 -0.9648
 8062TIP3    H145677   6.135   5.805  13.713 -0.8789  1.1595 -0.9191
 8062TIP3    H245678   6.248   5.764  13.804 -1.9309 -1.2867 -0.6381
 8063TIP3   OH245679   1.008   5.092   3.043  0.3933  0.7590 -0.3561
 8063TIP3    H145680   1.027   5.006   3.080 -2.9019 -1.0137 -2.2471
 8063TIP3    H245681   1.022   5.082   2.949 -2.1428  1.4628 -0.9083
 8064TIP3   OH245682   6.523   2.030  11.890 -0.0323 -0.0558  0.8939
 8064TIP3    H145683   6.440   2.077  11.894 -0.0139  0.2611 -1.1256
 8064TIP3    H245684   6.502   1.949  11.843  1.0024  0.6397 -0.8501
 8065TIP3   OH245685   0.209   4.426  15.994  0.2260 -0.3490 -0.1199
 8065TIP3    H145686   0.177   4.338  16.017 -0.3942 -0.9149 -2.7527
 8065TIP3    H245687   0.152   4.453  15.922 -1.3059  3.4000  2.2236
 8066TIP3   OH245688   3.967   5.393  11.765  0.6652 -0.6937  0.0315
 8066TIP3    H145689   4.040   5.360  11.818 -0.2953 -2.0424  0.5944
 8066TIP3    H245690   3.947   5.479  11.802  0.2928 -1.4296  1.6253
 8067TIP3   OH245691   6.318   6.559   0.672  0.1298 -0.2360  0.3249
 8067TIP3    H145692   6.250   6.576   0.738  0.9173 -2.1128  1.7345
 8067TIP3    H245693   6.281   6.590   0.590 -2.1969 -0.6663  1.1406
 8068TIP3   OH245694   0.575   3.692  11.920 -0.2087 -0.0229  0.3610
 8068TIP3    H145695   0.644   3.713  11.856 -0.0843 -1.2842  0.0611
 8068TIP3    H245696   0.532   3.614  11.884 -0.6323 -0.2994  1.4454
 8069TIP3   OH245697   0.945   4.055   0.054 -0.0269  0.1612  0.4382
 8069TIP3    H145698   0.981   4.040  -0.033 -0.8367 -0.3592  0.1831
 8069TIP3    H245699   1.020   4.082   0.106  0.8934 -1.5640  0.0895
 8070TIP3   OH245700   0.107   5.361   3.928 -0.1624  0.4970 -0.6828
 8070TIP3    H145701   0.113   5.349   3.833  0.5094  2.5342 -0.9411
 8070TIP3    H245702   0.115   5.272   3.964 -0.8929 -0.3704 -2.5241
 8071TIP3   OH245703   3.352   2.589  13.699  0.1252 -0.1076 -0.3500
 8071TIP3    H145704   3.281   2.542  13.743  0.6247 -0.1452  0.4341
 8071TIP3    H245705   3.309   2.637  13.629 -0.7165  0.0342  0.2462
 8072TIP3   OH245706   2.239   4.817  12.946  0.0429 -0.1214 -0.2365
 8072TIP3    H145707   2.293   4.852  12.875  0.5298 -0.7176 -0.1725
 8072TIP3    H245708   2.294   4.749  12.986 -0.2317  0.1993  0.6980
 8073TIP3   OH245709   2.971   2.968  16.015  0.3364  0.0820  0.1391
 8073TIP3    H145710   3.060   3.003  16.020 -0.3895  2.1768 -0.4433
 8073TIP3    H245711   2.918   3.041  15.984 -1.5027 -1.2919 -0.1700
 8074TIP3   OH245712   4.708   0.208  13.206  0.2289 -0.1611  0.0022
 8074TIP3    H145713   4.746   0.195  13.293  2.7865  1.8694 -0.6690
 8074TIP3    H245714   4.745   0.138  13.153 -1.1513 -1.2630  0.4444
 8075TIP3   OH245715   2.546   4.778   3.155  0.0857 -0.0539 -0.2022
 8075TIP3    H145716   2.490   4.715   3.199  0.0532 -0.9323 -1.4641
 8075TIP3    H245717   2.628   4.776   3.205  0.1996 -1.3342 -0.4268
 8076TIP3   OH245718   1.424   2.120   2.412  0.1775  0.1699  0.0581
 8076TIP3    H145719   1.450   2.192   2.353  0.4841 -0.3698 -0.4769
 8076TIP3    H245720   1.488   2.051   2.394 -1.5451 -1.1738 -1.2194
 8077TIP3   OH245721   5.125   5.727  14.685  0.1893 -0.6490 -0.4129
 8077TIP3    H145722   5.141   5.633  14.696  0.8197 -0.4452  0.4435
 8077TIP3    H245723   5.207   5.769  14.710 -0.3498  0.1829 -0.0156
 8078TIP3   OH245724   5.403   4.891   0.554  0.1598 -1.1175  0.5070
 8078TIP3    H145725   5.452   4.809   0.560  0.8884 -0.6316  1.3781
 8078TIP3    H245726   5.312   4.866   0.573  0.2875 -1.7951  0.2518
 8079TIP3   OH245727   1.757   3.728   2.971  0.9243  0.2250  0.0637
 8079TIP3    H145728   1.809   3.727   3.052  0.1351 -1.0517  0.5817
 8079TIP3    H245729   1.818   3.696   2.904  0.8670 -1.1828  0.6485
 8080TIP3   OH245730   1.959   6.493  16.604  0.1264 -0.0413 -0.2410
 8080TIP3    H145731   1.907   6.532  16.534 -0.3051 -1.9175 -1.0343
 8080TIP3    H245732   1.962   6.560  16.672 -0.4924  1.3678 -1.5338
 8081TIP3   OH245733   3.244   1.289   3.592 -0.0203 -0.0130 -0.5051
 8081TIP3    H145734   3.231   1.384   3.598 -1.3103 -0.1771 -0.5988
 8081TIP3    H245735   3.302   1.278   3.517 -1.7356  0.5613 -1.9572
 8082TIP3   OH245736   4.074   4.186  15.042 -0.3150 -0.6885 -0.2456
 8082TIP3    H145737   4.151   4.153  14.997  0.1291 -0.1270  0.0980
 8082TIP3    H245738   4.107   4.251  15.103 -1.1843  0.5445 -1.0503
 8083TIP3   OH245739   6.180   0.316  10.084 -0.7468  0.2247  0.4096
 8083TIP3    H145740   6.170   0.340  10.176 -0.0038  0.5939  0.3952
 8083TIP3    H245741   6.203   0.223  10.086 -1.8056 -0.0466  0.5424
 8084TIP3   OH245742   0.308   3.247   1.169  0.0720  0.4711 -0.2247
 8084TIP3    H145743   0.292   3.154   1.154 -0.2757  0.6307 -0.8882
 8084TIP3    H245744   0.386   3.250   1.225  0.1448 -0.2123 -0.2865
 8085TIP3   OH245745   1.800   3.713  17.053 -0.4706  0.4200  0.1624
 8085TIP3    H145746   1.754   3.631  17.033 -0.5762  0.3046  0.8358
 8085TIP3    H245747   1.873   3.716  16.991 -2.0256  1.1808 -1.7296
 8086TIP3   OH245748   4.526   1.280   6.655 -0.4445 -0.3959  0.6398
 8086TIP3    H145749   4.588   1.294   6.727  0.5308  0.9421 -0.3998
 8086TIP3    H245750   4.464   1.353   6.663 -0.3581 -0.2665  0.1697
 8087TIP3   OH245751   0.485   5.046   0.850 -0.3605 -0.3161 -0.0749
 8087TIP3    H145752   0.416   5.043   0.783 -0.2778 -0.2020 -0.1667
 8087TIP3    H245753   0.468   5.126   0.898  0.2647  0.2102 -0.7052
 8088TIP3   OH245754   1.528   3.494  13.149 -0.2011 -0.2868 -0.0499
 8088TIP3    H145755   1.446   3.506  13.100 -1.4504 -1.8030  1.5317
 8088TIP3    H245756   1.526   3.564  13.215 -1.3683 -1.5729  1.3595
 8089TIP3   OH245757   4.664   5.524  11.590  0.2301 -0.0072  0.1784
 8089TIP3    H145758   4.660   5.580  11.667  2.2734  0.9772 -0.3652
 8089TIP3    H245759   4.645   5.582  11.517 -1.2751 -0.8458 -0.1226
 8090TIP3   OH245760   6.236   4.083  15.537 -0.6005 -0.0197 -0.8305
 8090TIP3    H145761   6.158   4.137  15.540 -0.4995  0.0953  2.0658
 8090TIP3    H245762   6.203   3.994  15.525 -0.9921  0.2575 -1.9182
 8091TIP3   OH245763   0.304   2.723   0.977 -0.1122  0.0083 -0.6830
 8091TIP3    H145764   0.217   2.684   0.985  0.0168 -0.1955 -0.2471
 8091TIP3    H245765   0.288   2.813   0.949 -0.6316  0.8917  2.1386
 8092TIP3   OH245766   1.892   1.898   5.449 -0.1760 -0.6700  0.4704
 8092TIP3    H145767   1.916   1.983   5.486  1.3782 -0.4914 -0.8531
 8092TIP3    H245768   1.804   1.880   5.484 -1.3429  2.3242 -0.6470
 8093TIP3   OH245769   1.086   3.935  17.037 -0.4885  0.2777  0.3129
 8093TIP3    H145770   1.175   3.955  17.007 -0.8550  0.3158 -0.7829
 8093TIP3    H245771   1.047   3.887  16.964 -0.7985 -1.3147  1.4841
 8094TIP3   OH245772   3.293   6.759   5.872 -0.0543 -0.6142  0.0246
 8094TIP3    H145773   3.256   6.675   5.843 -0.1370 -0.9807  1.1308
 8094TIP3    H245774   3.224   6.797   5.927 -0.6519  0.9342 -1.7190
 8095TIP3   OH245775   5.491   6.519  15.084 -0.0225 -0.1427 -0.6765
 8095TIP3    H145776   5.419   6.463  15.054  0.3690 -1.1735  0.2240
 8095TIP3    H245777   5.498   6.587  15.018 -2.4772  0.5779 -0.2936
 8096TIP3   OH245778   6.445   1.163  12.716  0.4447  0.6773 -0.3697
 8096TIP3    H145779   6.366   1.126  12.754  1.4255 -0.3757  0.7667
 8096TIP3    H245780   6.455   1.118  12.632 -1.1352  2.2055 -1.4517
 8097TIP3   OH245781   6.196   4.957  10.628 -0.6816  0.0497 -0.2491
 8097TIP3    H145782   6.115   4.921  10.592 -0.1437 -0.7784 -0.6608
 8097TIP3    H245783   6.188   5.051  10.618 -2.4573  0.1597  1.5082
 8098TIP3   OH245784   5.389   6.618  15.317 -0.1421  0.5292 -0.6684
 8098TIP3    H145785   5.371   6.529  15.346  1.2979  0.3524 -0.2314
 8098TIP3    H245786   5.411   6.609  15.224 -1.1016  0.5900 -0.9056
 8099TIP3   OH245787   1.749   5.913   2.685 -0.5624 -0.0471  0.1160
 8099TIP3    H145788   1.731   5.962   2.605 -0.5023  0.6160  0.4965
 8099TIP3    H245789   1.735   5.821   2.661 -0.1258  0.1043 -0.7622
 8100TIP3   OH245790   1.120   0.112   4.528 -0.1612 -0.5737 -0.6234
 8100TIP3    H145791   1.068   0.158   4.461 -0.1783  0.0430 -0.1891
 8100TIP3    H245792   1.183   0.060   4.478 -0.4194 -0.4068 -1.1283
 8101TIP3   OH245793   5.666   0.057  14.973 -0.1211 -0.0388  0.2957
 8101TIP3    H145794   5.603  -0.002  14.931  0.0986 -1.4890  1.8819
 8101TIP3    H245795   5.657   0.040  15.067  2.3792 -0.0816  0.6102
 8102TIP3   OH245796   0.693   4.218   4.428 -0.0964  0.4090  0.4231
 8102TIP3    H145797   0.763   4.275   4.395  0.0389  0.5767  0.9862
 8102TIP3    H245798   0.632   4.278   4.471 -0.2485  0.1922  0.5082
 8103TIP3   OH245799   0.810   1.864  11.446 -0.4259 -0.3535 -0.1221
 8103TIP3    H145800   0.738   1.920  11.418  1.2381  1.9665  0.0420
 8103TIP3    H245801   0.805   1.864  11.542 -0.7446 -0.9913 -0.1283
 8104TIP3   OH245802   2.026   0.179   4.543 -0.0773  0.1251 -0.0558
 8104TIP3    H145803   1.955   0.209   4.600  0.5414 -0.3570  1.0078
 8104TIP3    H245804   2.094   0.245   4.553  0.0184  0.0616 -0.2800
 8105TIP3   OH245805   4.799   2.782   0.378  0.4029 -0.4497  0.9814
 8105TIP3    H145806   4.842   2.745   0.301 -0.4754 -3.2315  1.7074
 8105TIP3    H245807   4.711   2.803   0.349  0.5231 -0.1247  0.8589
 8106TIP3   OH245808   1.699   0.264   0.286  0.0301  0.2464  0.1948
 8106TIP3    H145809   1.678   0.225   0.371 -0.5418  2.8467  1.3554
 8106TIP3    H245810   1.794   0.274   0.286  0.1654 -0.8720 -0.0437
 8107TIP3   OH245811   3.248   1.539   4.276  0.5877 -0.1191 -0.5521
 8107TIP3    H145812   3.309   1.485   4.226  0.4677 -0.7017 -0.0931
 8107TIP3    H245813   3.289   1.625   4.281  0.4547  0.0531 -1.9194
 8108TIP3   OH245814   1.346   4.311  13.143 -0.5232 -0.8292 -0.2154
 8108TIP3    H145815   1.317   4.285  13.055  0.3464 -1.2276 -0.3930
 8108TIP3    H245816   1.283   4.378  13.170 -1.1715 -1.1487 -0.8827
 8109TIP3   OH245817   3.362   2.125   6.206 -0.8306 -0.0672 -0.1656
 8109TIP3    H145818   3.442   2.178   6.206 -1.0342  0.2400 -0.3838
 8109TIP3    H245819   3.393   2.035   6.211 -0.4744  0.0610 -0.0501
 8110TIP3   OH245820   6.287   0.531   2.745  0.0756 -0.4348  0.0265
 8110TIP3    H145821   6.301   0.625   2.753 -0.3411 -0.4865  1.7472
 8110TIP3    H245822   6.193   0.520   2.737 -0.1098 -0.7943  2.1959
 8111TIP3   OH245823   4.657   0.088  10.267  0.7991  0.0921  0.0407
 8111TIP3    H145824   4.604   0.140  10.207 -0.3444  1.0978  1.8386
 8111TIP3    H245825   4.630  -0.003  10.251  0.5690  0.3348 -0.9871
 8112TIP3   OH245826   3.666   2.509   1.292 -0.1772 -0.6727 -0.0011
 8112TIP3    H145827   3.635   2.595   1.264 -0.3803 -1.0834 -1.1094
 8112TIP3    H245828   3.639   2.501   1.384  0.1020  0.5514  0.1935
 8113TIP3   OH245829   0.134   2.918   5.859  0.7405 -0.6540  0.5370
 8113TIP3    H145830   0.105   2.963   5.938 -0.1533 -1.6089  0.7695
 8113TIP3    H245831   0.230   2.919   5.865  0.6827 -1.0101  1.7919
 8114TIP3   OH245832   1.367   1.392  11.112 -0.6254 -0.1145  0.1487
 8114TIP3    H145833   1.335   1.385  11.022  1.1929 -2.5180 -0.4182
 8114TIP3    H245834   1.382   1.485  11.126 -3.2333  0.5861 -1.1372
 8115TIP3   OH245835   1.609   2.497  13.760  0.3183  0.0802 -0.4792
 8115TIP3    H145836   1.601   2.537  13.846 -0.9072 -0.0806 -0.5044
 8115TIP3    H245837   1.664   2.420  13.774 -0.9755 -0.7166  0.4444
 8116TIP3   OH245838   6.006   2.680  16.696  0.3619 -0.1864  0.2775
 8116TIP3    H145839   6.027   2.653  16.607  2.7013  1.5757  0.1985
 8116TIP3    H245840   6.070   2.635  16.751 -0.8271 -0.9763  1.0666
 8117TIP3   OH245841   0.891   3.355   5.882  0.2276 -0.3346 -0.1424
 8117TIP3    H145842   0.814   3.409   5.862 -0.0113 -1.3707 -2.3622
 8117TIP3    H245843   0.858   3.289   5.943 -1.3312 -2.0185 -2.5704
 8118TIP3   OH245844   2.810   4.185   2.726  0.1769 -0.6392 -0.4221
 8118TIP3    H145845   2.737   4.126   2.708  1.8609 -2.4393 -1.7076
 8118TIP3    H245846   2.810   4.195   2.821 -1.6313 -0.6807 -0.3765
 8119TIP3   OH245847   2.610   6.272  15.708  0.0379  0.2152 -0.1753
 8119TIP3    H145848   2.628   6.302  15.619  1.6387  0.8059  0.3237
 8119TIP3    H245849   2.515   6.284  15.718 -0.2074 -0.0994 -1.8734
 8120TIP3   OH245850   6.625   4.379   4.718  0.0114 -0.0269 -0.5344
 8120TIP3    H145851   6.533   4.363   4.699  0.1714 -1.2263 -0.3826
 8120TIP3    H245852   6.649   4.453   4.662 -1.0806  0.4084 -0.4467
 8121TIP3   OH245853   1.432   6.367   2.084 -0.1890 -0.1842 -0.3060
 8121TIP3    H145854   1.395   6.442   2.130  0.5846 -0.9490  1.7045
 8121TIP3    H245855   1.512   6.400   2.044 -0.6717  0.4090 -0.7977
 8122TIP3   OH245856   0.918   0.725  11.871  0.2115 -0.0940 -0.2009
 8122TIP3    H145857   0.838   0.748  11.825  0.5239  1.1241 -0.1488
 8122TIP3    H245858   0.974   0.684  11.804  0.4941  1.2703 -0.8194
 8123TIP3   OH245859   3.381   0.417  11.565  0.9277 -0.7934  0.4227
 8123TIP3    H145860   3.385   0.465  11.648  0.4912  0.6693 -0.3556
 8123TIP3    H245861   3.293   0.378  11.563 -0.4255  1.9805 -0.7433
 8124TIP3   OH245862   4.032   6.803  14.604 -0.2464  0.5854 -0.0490
 8124TIP3    H145863   3.965   6.820  14.539 -1.2037  0.5500  0.9041
 8124TIP3    H245864   4.078   6.725  14.572  0.1349  1.2964 -1.3017
 8125TIP3   OH245865   4.333   2.345  14.520 -0.4293  0.4823 -0.6407
 8125TIP3    H145866   4.348   2.303  14.435  0.1359  0.7274 -0.6668
 8125TIP3    H245867   4.387   2.424  14.518  0.6424 -0.1836  0.4608
 8126TIP3   OH245868   4.569   4.873  12.888 -0.4713 -0.0114 -0.0241
 8126TIP3    H145869   4.478   4.849  12.874  0.3026 -3.0806 -0.5999
 8126TIP3    H245870   4.581   4.869  12.983 -1.3733  2.6112  0.2774
 8127TIP3   OH245871   0.933   2.745   2.198  0.4607 -0.1025  0.0502
 8127TIP3    H145872   0.876   2.802   2.146  1.8999  0.8073 -0.5828
 8127TIP3    H245873   1.020   2.782   2.187  1.1829 -1.4444  1.0263
 8128TIP3   OH245874   6.694   3.927  12.724 -0.1631  0.0024 -0.7586
 8128TIP3    H145875   6.743   3.985  12.782  0.9561 -1.8147  0.2441
 8128TIP3    H245876   6.756   3.904  12.655 -0.5371 -0.1084 -1.0612
 8129TIP3   OH245877   2.753   5.394  11.714  0.2417  0.3724 -0.0787
 8129TIP3    H145878   2.731   5.404  11.621  1.3640 -0.6906 -0.4850
 8129TIP3    H245879   2.675   5.425  11.761 -0.3821  0.8228 -1.3703
 8130TIP3   OH245880   5.269   4.302   5.576 -0.0281 -0.2704 -0.8034
 8130TIP3    H145881   5.236   4.234   5.636 -0.8184 -0.8471 -1.8495
 8130TIP3    H245882   5.221   4.381   5.602  2.7623  0.6698  2.1609
 8131TIP3   OH245883   4.088   4.822   5.578  0.1198 -0.0500  0.3232
 8131TIP3    H145884   4.070   4.909   5.542  0.3959  0.1310  0.6111
 8131TIP3    H245885   4.014   4.805   5.637 -0.2750 -0.3009 -0.2430
 8132TIP3   OH245886   5.614   3.149   1.197 -0.3991  0.6417  0.0257
 8132TIP3    H145887   5.586   3.239   1.180  1.4127  1.5428  1.4479
 8132TIP3    H245888   5.608   3.139   1.292  0.4469 -0.3684 -0.0091
 8133TIP3   OH245889   2.519   1.762  14.153 -0.0932  0.3202  0.0292
 8133TIP3    H145890   2.549   1.790  14.066 -0.9955  1.7617  0.1495
 8133TIP3    H245891   2.585   1.699  14.181  1.1115  1.0565 -1.0169
 8134TIP3   OH245892   3.846   3.378   5.979  0.2533 -0.5161  0.5663
 8134TIP3    H145893   3.879   3.373   6.069  0.9198 -1.8563  0.2851
 8134TIP3    H245894   3.842   3.286   5.951  2.1567 -0.0592 -1.5054
 8135TIP3   OH245895   1.365   4.441   2.755 -0.7632  0.5852  0.4372
 8135TIP3    H145896   1.309   4.497   2.701 -2.4253 -1.6422 -0.3202
 8135TIP3    H245897   1.313   4.424   2.834 -0.1393  0.4039  0.8134
 8136TIP3   OH245898   6.152   5.632  16.984  0.0983  0.3640  0.4676
 8136TIP3    H145899   6.182   5.682  17.060  1.6347  0.8482 -0.4096
 8136TIP3    H245900   6.075   5.680  16.953 -0.6657  0.0521  1.7940
 8137TIP3   OH245901   6.453   1.297   1.702 -0.4246  0.4302 -0.8438
 8137TIP3    H145902   6.435   1.249   1.783  0.6128  0.1398 -0.7696
 8137TIP3    H245903   6.393   1.371   1.705 -1.2427 -0.2263 -0.3991
 8138TIP3   OH245904   2.340   3.436   3.905  0.5909 -0.4346 -0.0096
 8138TIP3    H145905   2.302   3.400   3.824 -0.9394  1.1321 -0.0379
 8138TIP3    H245906   2.296   3.388   3.975 -1.0958  0.9477 -0.0592
 8139TIP3   OH245907   6.685   5.878   4.239 -0.4745 -0.1336  0.7356
 8139TIP3    H145908   6.757   5.840   4.189  0.2631  1.1930  0.7470
 8139TIP3    H245909   6.618   5.810   4.240  0.0006 -0.6806 -0.9497
 8140TIP3   OH245910   2.434   6.434  15.893  0.8073  0.7161 -0.2583
 8140TIP3    H145911   2.414   6.341  15.897 -0.0452  0.8393 -1.3194
 8140TIP3    H245912   2.396   6.464  15.810 -0.2696  2.3056  0.7501
 8141TIP3   OH245913   3.046   3.599  11.416 -0.3256 -0.0703 -0.6703
 8141TIP3    H145914   3.141   3.588  11.425 -0.4953 -0.7765  0.4402
 8141TIP3    H245915   3.030   3.594  11.322  0.8616  1.1621 -0.9653
 8142TIP3   OH245916   6.350   4.902   0.463 -0.4262  0.2383  0.9996
 8142TIP3    H145917   6.359   4.902   0.559 -2.1764 -1.9856  1.2479
 8142TIP3    H245918   6.405   4.830   0.434 -2.1176 -0.9725  0.6691
 8143TIP3   OH245919   6.105   1.519  14.032  0.3395  0.1979 -0.2883
 8143TIP3    H145920   6.115   1.589  14.096 -0.4549  0.1482 -0.0906
 8143TIP3    H245921   6.165   1.542  13.961  0.2955  0.9247 -0.0987
 8144TIP3   OH245922   1.901   0.682  15.319  0.1361 -0.1060 -0.0966
 8144TIP3    H145923   1.890   0.723  15.405 -0.4026  0.2496 -0.3256
 8144TIP3    H245924   1.816   0.642  15.300 -0.4687  1.6105 -1.3653
 8145TIP3   OH245925   2.237   4.605  11.448 -0.5560  0.3166  0.6917
 8145TIP3    H145926   2.157   4.565  11.484 -1.0554 -0.3641 -1.0606
 8145TIP3    H245927   2.205   4.677  11.393  0.0257  0.0389 -0.0232
 8146TIP3   OH245928   4.991   1.857   1.077  0.9597 -0.0547 -0.4715
 8146TIP3    H145929   4.999   1.941   1.033  0.8133  0.4335  0.4106
 8146TIP3    H245930   4.905   1.825   1.053  0.2577  0.9209  0.6587
 8147TIP3   OH245931   0.815   5.988   1.664 -0.3590  0.0304  0.0728
 8147TIP3    H145932   0.727   6.007   1.695  0.2584 -0.2198  2.1593
 8147TIP3    H245933   0.804   5.920   1.598 -1.6136 -1.4214  1.7023
 8148TIP3   OH245934   4.967   3.289   1.779  0.3258 -0.4705  0.2178
 8148TIP3    H145935   4.972   3.216   1.841  2.8432  0.7191  1.5593
 8148TIP3    H245936   5.029   3.267   1.710 -1.1416 -0.9387 -1.0171
 8149TIP3   OH245937   2.721   3.047   2.566  0.0179 -0.1029 -0.1422
 8149TIP3    H145938   2.793   3.024   2.625 -0.2544 -1.1769 -0.2027
 8149TIP3    H245939   2.717   2.974   2.504 -1.3440 -0.2411  0.0763
 8150TIP3   OH245940   1.696   6.208  12.589 -0.0532  0.4879 -0.2899
 8150TIP3    H145941   1.657   6.259  12.659  2.8152  2.2108  0.2249
 8150TIP3    H245942   1.790   6.204  12.611  0.4838 -1.5197 -2.4711
 8151TIP3   OH245943   5.051   2.762  13.259 -0.1037 -0.3633 -0.2036
 8151TIP3    H145944   4.990   2.789  13.327 -0.4769 -2.1717  0.2257
 8151TIP3    H245945   5.030   2.670  13.242  2.1523 -0.9149 -0.3990
 8152TIP3   OH245946   6.171   1.024  11.627  0.4072  0.5849 -0.0283
 8152TIP3    H145947   6.238   1.077  11.585  1.0925  0.3309  0.7153
 8152TIP3    H245948   6.208   0.936  11.630  0.8186  0.7721  1.9506
 8153TIP3   OH245949   1.328   2.139  16.121 -0.1670  0.2778  0.1234
 8153TIP3    H145950   1.270   2.072  16.086 -0.6470 -0.1135  1.6146
 8153TIP3    H245951   1.333   2.121  16.215 -0.0360  2.1183  0.5133
 8154TIP3   OH245952   1.036   6.582   4.618 -0.2296 -0.3171 -0.0296
 8154TIP3    H145953   0.953   6.626   4.602 -0.4271 -1.3392 -2.1962
 8154TIP3    H245954   1.021   6.532   4.698 -1.6315 -0.2887 -0.2459
 8155TIP3   OH245955   6.833   0.936  14.359 -0.1264  0.0171 -0.0468
 8155TIP3    H145956   6.813   0.999  14.290 -0.0051 -0.3345 -0.4051
 8155TIP3    H245957   6.754   0.932  14.412 -0.1123  0.5179  0.0187
 8156TIP3   OH245958   2.098   4.004  16.911  0.1480 -0.2972 -0.3732
 8156TIP3    H145959   2.078   3.921  16.868 -1.7777  0.8938 -1.9529
 8156TIP3    H245960   2.022   4.021  16.966 -0.1226  1.0479 -1.1287
 8157TIP3   OH245961   1.440   1.758   1.309  0.0190  0.1826  0.4232
 8157TIP3    H145962   1.472   1.672   1.281  0.8754  0.9167 -0.9788
 8157TIP3    H245963   1.518   1.803   1.342 -0.0732  0.9835 -0.4013
 8158TIP3   OH245964   5.549   0.242  13.046 -0.0288  0.4483  0.3889
 8158TIP3    H145965   5.478   0.179  13.033  0.1783  0.3326 -0.2073
 8158TIP3    H245966   5.505   0.326  13.057 -0.2823  0.2889  0.5938
 8159TIP3   OH245967   6.295   5.018  12.057  0.6977  0.3200  0.7463
 8159TIP3    H145968   6.318   4.928  12.082  1.5844  0.4405  0.4022
 8159TIP3    H245969   6.201   5.014  12.036  0.4701 -0.2809  1.7901
 8160TIP3   OH245970   0.800   0.661   0.238  0.1246  0.0607 -0.5771
 8160TIP3    H145971   0.775   0.752   0.249  0.9258  0.1294  0.9479
 8160TIP3    H245972   0.895   0.662   0.232  0.0940 -0.6087 -1.5376
 8161TIP3   OH245973   6.034   5.443  14.880 -0.5199  0.1308  0.5136
 8161TIP3    H145974   6.059   5.481  14.964 -0.3903  2.0053 -0.3224
 8161TIP3    H245975   6.114   5.444  14.828 -0.1607 -2.6244  0.8514
 8162TIP3   OH245976   3.520   2.038  14.257  0.5470 -0.2808 -0.5470
 8162TIP3    H145977   3.586   2.031  14.326 -0.8910  1.8248  1.1939
 8162TIP3    H245978   3.479   1.951  14.254  0.4170 -0.3487  1.5428
 8163TIP3   OH245979   5.568   3.053  10.397  0.4353  0.1220 -0.1408
 8163TIP3    H145980   5.476   3.042  10.372  0.2527 -1.1669  1.0407
 8163TIP3    H245981   5.614   2.982  10.352  0.4783 -0.7061  1.1932
 8164TIP3   OH245982   4.768   5.891   4.558 -0.0890  0.2650  0.5734
 8164TIP3    H145983   4.687   5.876   4.606 -0.1015 -0.6445  0.2723
 8164TIP3    H245984   4.740   5.902   4.467  0.2011 -0.8883  0.3430
 8165TIP3   OH245985   6.836   3.044   0.108 -0.3420  0.4998  0.1515
 8165TIP3    H145986   6.787   2.967   0.077 -2.0833 -0.0507  3.6981
 8165TIP3    H245987   6.904   3.057   0.043 -2.4562 -1.5329 -2.7378
 8166TIP3   OH245988   5.987   2.043  16.466  0.3960 -0.2389  0.1589
 8166TIP3    H145989   5.932   1.965  16.478  0.1841 -0.2638 -0.8622
 8166TIP3    H245990   5.933   2.116  16.496 -0.4864 -0.1859 -1.4590
 8167TIP3   OH245991   1.339   0.300   3.825 -0.0832  0.3995  0.1794
 8167TIP3    H145992   1.389   0.259   3.896  0.9900 -0.4057 -1.0186
 8167TIP3    H245993   1.314   0.385   3.861  2.3030  0.9197  0.7842
 8168TIP3   OH245994   1.652   1.521  16.138  0.6079 -0.1292 -0.7618
 8168TIP3    H145995   1.667   1.483  16.051 -1.0346 -1.7820 -0.3807
 8168TIP3    H245996   1.672   1.450  16.199  0.5555  0.6292  0.1645
 8169TIP3   OH245997   4.875   3.985   1.362 -0.5995 -0.4553 -0.6991
 8169TIP3    H145998   4.908   3.946   1.443 -0.7908 -0.9310 -0.8520
 8169TIP3    H245999   4.939   3.960   1.295 -1.1068 -1.1345 -0.9393
 8170TIP3   OH246000   4.156   4.860   1.726  0.4297 -0.1370 -0.6200
 8170TIP3    H146001   4.155   4.790   1.660 -1.0304  0.5650 -1.4086
 8170TIP3    H246002   4.166   4.940   1.675 -2.7010  0.6001 -0.3042
 8171TIP3   OH246003   3.728   0.240  17.072 -0.0439 -0.1636  0.9696
 8171TIP3    H146004   3.673   0.193  17.009  0.2794  1.1200 -0.3261
 8171TIP3    H246005   3.773   0.171  17.121  0.0087 -1.2215 -0.5054
 8172TIP3   OH246006   3.144   4.062   1.391 -0.3169 -0.3250  0.0564
 8172TIP3    H146007   3.180   4.131   1.447  0.1596 -0.2989 -0.2778
 8172TIP3    H246008   3.053   4.088   1.377  0.0194  0.5665 -0.5652
 8173TIP3   OH246009   6.453   2.193  16.827  0.5518  0.0879 -0.2182
 8173TIP3    H146010   6.406   2.185  16.910 -0.0850 -1.5230 -0.6746
 8173TIP3    H246011   6.545   2.189  16.851  0.3639 -1.5647  0.3553
 8174TIP3   OH246012   6.764   6.222  13.952  0.3775 -0.2124 -0.5831
 8174TIP3    H146013   6.681   6.264  13.928  0.8766  0.5641 -1.0313
 8174TIP3    H246014   6.829   6.292  13.941  1.2458 -1.1156 -1.3681
 8175TIP3   OH246015   3.376   6.535  12.887 -0.0615 -0.0650 -0.0800
 8175TIP3    H146016   3.450   6.564  12.833 -0.2711  0.4283 -0.1122
 8175TIP3    H246017   3.299   6.573  12.844 -0.4335 -1.3396 -0.5770
 8176TIP3   OH246018   4.160   2.409  16.684  0.2426 -0.4526  0.5660
 8176TIP3    H146019   4.158   2.397  16.589 -0.4941 -1.1275  0.6570
 8176TIP3    H246020   4.138   2.501  16.697 -0.5537 -0.5685  0.1154
 8177TIP3   OH246021   1.532   1.128   2.957 -0.5873 -0.5685 -0.5920
 8177TIP3    H146022   1.530   1.214   2.916  0.4837 -0.8828 -1.3683
 8177TIP3    H246023   1.591   1.138   3.032 -1.8069 -0.2280  0.3591
 8178TIP3   OH246024   4.241   3.008  14.630  0.2883 -0.3244 -0.1321
 8178TIP3    H146025   4.156   2.967  14.615 -0.8159  2.3703 -1.8292
 8178TIP3    H246026   4.295   2.979  14.556 -0.1706  0.4008 -0.7678
 8179TIP3   OH246027   4.204   1.446  15.879  0.2006  0.2176 -0.4321
 8179TIP3    H146028   4.151   1.381  15.833 -1.1030 -0.0078  1.3077
 8179TIP3    H246029   4.176   1.530  15.843 -1.1558  0.0792  0.2283
 8180TIP3   OH246030   5.157   0.011  15.773  0.3933 -0.4547  0.1466
 8180TIP3    H146031   5.090   0.069  15.736 -0.1446 -1.1665 -0.0314
 8180TIP3    H246032   5.179  -0.049  15.702  1.2286 -0.2303  0.2097
 8181TIP3   OH246033   4.159   0.851  11.476 -0.4284  0.2025 -0.1481
 8181TIP3    H146034   4.097   0.819  11.411 -0.6671  0.3685 -0.0031
 8181TIP3    H246035   4.176   0.776  11.533 -0.2741  0.0774 -0.3584
 8182TIP3   OH246036   4.055   1.073  14.198  0.2549 -0.5197  0.5335
 8182TIP3    H146037   3.991   1.142  14.212  0.5143 -0.4031  1.1978
 8182TIP3    H246038   4.015   1.016  14.133 -0.5989 -0.5341  1.0567
 8183TIP3   OH246039   3.510   2.634  10.481  0.3888  0.3526  0.1957
 8183TIP3    H146040   3.467   2.703  10.430  2.5525  0.4069 -1.7325
 8183TIP3    H246041   3.580   2.680  10.528  0.0975 -0.1187  1.0908
 8184TIP3   OH246042   4.927   1.826   2.345 -0.7939  0.4860  0.1564
 8184TIP3    H146043   4.991   1.894   2.366 -0.9542  0.6147  0.2304
 8184TIP3    H246044   4.842   1.868   2.358 -0.9360  1.0233 -2.0800
 8185TIP3   OH246045   6.267   5.550   1.506  0.2906  0.5531 -0.1789
 8185TIP3    H146046   6.276   5.496   1.585  1.7469 -0.0708 -0.7436
 8185TIP3    H246047   6.356   5.572   1.481  0.0027 -0.7353 -2.6633
 8186TIP3   OH246048   6.705   3.441   2.917 -0.5198  0.1643  0.4142
 8186TIP3    H146049   6.649   3.363   2.919 -1.6840  0.9460  2.9442
 8186TIP3    H246050   6.659   3.502   2.859  0.2076 -0.8480 -1.2823
 8187TIP3   OH246051   4.193   6.835   5.930 -0.1086  0.0826 -0.0694
 8187TIP3    H146052   4.202   6.921   5.971 -0.5657 -0.0806  0.3734
 8187TIP3    H246053   4.123   6.792   5.978 -0.5036 -0.1978 -0.8789
 8188TIP3   OH246054   0.412   3.762  16.081  0.7220 -0.2234 -0.0826
 8188TIP3    H146055   0.337   3.706  16.099  1.4316 -1.1834 -0.0681
 8188TIP3    H246056   0.378   3.851  16.091 -0.0992 -0.6545  1.1904
 8189TIP3   OH246057   5.369   3.174  12.368  0.5310 -0.4380  0.1180
 8189TIP3    H146058   5.300   3.109  12.376  1.1998 -1.0441  1.2675
 8189TIP3    H246059   5.328   3.256  12.398 -0.7196  0.0501 -2.6173
 8190TIP3   OH246060   6.414   4.064   4.558 -0.0322  0.0127 -0.3010
 8190TIP3    H146061   6.469   4.008   4.613 -1.7519 -1.6559 -0.1847
 8190TIP3    H246062   6.338   4.085   4.612 -0.5432  0.4630 -1.1614
 8191TIP3   OH246063   5.779   3.873  13.026 -0.1134  0.2710  0.5280
 8191TIP3    H146064   5.831   3.803  12.986 -0.5779 -0.6610  1.5255
 8191TIP3    H246065   5.837   3.911  13.092 -0.7648 -1.0255  1.9146
 8192TIP3   OH246066   0.532   2.486   0.124 -0.5024  0.1717  0.5037
 8192TIP3    H146067   0.511   2.460   0.214 -0.9721 -0.7359  0.1404
 8192TIP3    H246068   0.450   2.475   0.076 -0.6149  1.9369  0.2259
 8193TIP3   OH246069   3.027   1.909   4.254 -0.5371 -0.2874  0.7126
 8193TIP3    H146070   3.121   1.905   4.272 -0.3367 -0.9431 -0.3656
 8193TIP3    H246071   3.016   1.989   4.203 -0.5164 -0.3248  0.6483
 8194TIP3   OH246072   4.765   5.891  15.118 -0.2721 -0.1555  0.2854
 8194TIP3    H146073   4.678   5.860  15.143 -0.1947 -1.0105 -0.4637
 8194TIP3    H246074   4.754   5.926  15.030  0.1223 -0.1354  0.2398
 8195TIP3   OH246075   2.690   5.006  16.199  0.0403 -0.1303  0.3369
 8195TIP3    H146076   2.685   4.911  16.185  0.2908  0.0104 -0.7288
 8195TIP3    H246077   2.778   5.030  16.169  0.3582  0.2947  1.5562
 8196TIP3   OH246078   5.501   2.195  11.658  0.2354  0.0367 -0.4286
 8196TIP3    H146079   5.522   2.110  11.618  0.4958  0.0144 -0.2483
 8196TIP3    H246080   5.533   2.259  11.595  0.1317 -0.0003 -0.5188
 8197TIP3   OH246081   0.361   6.259  12.004 -0.2024 -0.0289 -0.2109
 8197TIP3    H146082   0.289   6.270  12.065 -0.2212 -2.2997  0.2547
 8197TIP3    H246083   0.437   6.296  12.049 -0.2259 -1.6255  1.2197
 8198TIP3   OH246084   2.624   6.042  15.847  0.1797 -0.1640 -0.1588
 8198TIP3    H146085   2.627   6.125  15.799  1.9578  0.5320  1.0468
 8198TIP3    H246086   2.587   6.065  15.932 -1.4885 -1.0855 -0.5951
 8199TIP3   OH246087   3.103   5.075   4.340 -0.3133 -0.5533 -0.3757
 8199TIP3    H146088   3.029   5.112   4.293 -1.2888 -0.8861  0.8540
 8199TIP3    H246089   3.093   4.981   4.334 -1.3018 -0.6414  1.6797
 8200TIP3   OH246090   5.948   0.238   5.137 -0.7042  0.7788 -0.1749
 8200TIP3    H146091   5.879   0.304   5.132 -1.3024  0.1233 -0.7157
 8200TIP3    H246092   5.956   0.204   5.048 -1.7885 -1.2543  0.4523
 8201TIP3   OH246093   0.230   5.427   2.386  0.2552 -0.2473  0.2532
 8201TIP3    H146094   0.325   5.438   2.387  0.2344 -0.0465  1.0934
 8201TIP3    H246095   0.215   5.341   2.425  0.0723 -0.0759  0.5635
 8202TIP3   OH246096   1.259   0.903   4.444  0.2561 -0.3587  1.0141
 8202TIP3    H146097   1.168   0.929   4.460  0.0475 -0.5813  0.2397
 8202TIP3    H246098   1.304   0.922   4.526 -0.3024  0.6041  1.1196
 8203TIP3   OH246099   4.712   5.059  16.627 -0.6039 -0.0610  0.0500
 8203TIP3    H146100   4.783   5.090  16.571 -2.0403 -0.6931 -2.2861
 8203TIP3    H246101   4.755   5.008  16.695  1.2238  0.1361 -0.8904
 8204TIP3   OH246102   2.059   6.515   0.789 -0.3734 -0.0831  0.2496
 8204TIP3    H146103   1.969   6.503   0.761 -0.4725  0.6171  0.2549
 8204TIP3    H246104   2.110   6.459   0.731 -0.7642 -0.0859 -0.0925
 8205TIP3   OH246105   2.915   5.787   4.030 -0.4174  0.2113  0.0136
 8205TIP3    H146106   2.883   5.763   3.943  1.5078  0.0726 -0.7193
 8205TIP3    H246107   3.008   5.762   4.028 -0.6365 -1.1495  2.6233
 8206TIP3   OH246108   2.827   5.766   0.565 -0.1828 -0.4881 -0.1223
 8206TIP3    H146109   2.919   5.789   0.551 -0.8044  1.1576 -1.8512
 8206TIP3    H246110   2.802   5.814   0.644 -0.2429  1.3333 -1.1886
 8207TIP3   OH246111   4.144   0.026   4.994 -0.1024 -0.1163  0.1938
 8207TIP3    H146112   4.159  -0.047   4.934 -1.6534 -0.1957 -0.1218
 8207TIP3    H246113   4.166  -0.010   5.080 -0.4410 -0.8240 -0.0105
 8208TIP3   OH246114   3.306   4.690   1.410 -0.2734  0.3383 -0.1976
 8208TIP3    H146115   3.235   4.640   1.450  0.3498  0.1170  0.6802
 8208TIP3    H246116   3.350   4.628   1.352 -0.3071  0.2369 -0.1157
 8209TIP3   OH246117   6.733   3.458  14.440 -0.1866 -0.1471  0.6122
 8209TIP3    H146118   6.783   3.537  14.463  0.2042 -0.6184  1.4284
 8209TIP3    H246119   6.793   3.386  14.461 -0.8490 -0.6875  0.6596
 8210TIP3   OH246120   6.189   4.817  14.061  0.3285 -0.0701 -0.7422
 8210TIP3    H146121   6.220   4.884  14.121 -0.8394  1.1082 -1.3905
 8210TIP3    H246122   6.153   4.866  13.987 -0.2574 -1.4202 -1.3897
 8211TIP3   OH246123   3.236   3.019  13.898  0.4867  0.4105  0.1506
 8211TIP3    H146124   3.260   2.953  13.963  0.2784 -0.1745 -0.3523
 8211TIP3    H246125   3.198   3.090  13.949 -0.0780 -0.2213  0.6368
 8212TIP3   OH246126   5.881   5.931  15.016 -0.2433 -0.0356  0.3726
 8212TIP3    H146127   5.860   5.956  15.105 -1.0731 -1.3019  0.5646
 8212TIP3    H246128   5.796   5.925  14.972 -0.0742 -1.7676  0.1842
 8213TIP3   OH246129   6.542   5.081   0.644 -0.4736 -0.4541  0.4580
 8213TIP3    H146130   6.497   5.012   0.693  0.4199 -0.4217  1.3595
 8213TIP3    H246131   6.610   5.112   0.704  0.3167 -0.0599 -0.6183
 8214TIP3   OH246132   2.503   1.018   5.166  0.3028 -0.6326 -0.1582
 8214TIP3    H146133   2.552   1.093   5.200  3.4941 -3.0427  0.9669
 8214TIP3    H246134   2.491   1.037   5.073  1.0769  1.2151  0.0856
 8215TIP3   OH246135   0.083   0.033  14.942 -0.4435  0.2252  0.2618
 8215TIP3    H146136   0.053  -0.049  14.982  1.2548 -0.3798  0.3528
 8215TIP3    H246137   0.117   0.007  14.857  1.1311  0.6360  0.7343
 8216TIP3   OH246138   5.079   2.685   0.539 -0.2892  0.1793 -0.4240
 8216TIP3    H146139   5.089   2.590   0.531 -0.2510  0.2715 -1.6855
 8216TIP3    H246140   4.987   2.698   0.563  0.0504 -0.2210  1.2137
 8217TIP3   OH246141   1.905   5.175  16.018  0.2087 -0.4680  0.2475
 8217TIP3    H146142   1.962   5.225  16.077 -1.5632  1.2914  0.5695
 8217TIP3    H246143   1.870   5.104  16.072 -0.4620  0.4168  1.0033
 8218TIP3   OH246144   6.057   6.361   0.608 -0.1558  0.5552 -0.2506
 8218TIP3    H146145   6.039   6.278   0.651  2.7355  1.1498  2.4337
 8218TIP3    H246146   6.143   6.349   0.568 -0.7302  1.5673 -1.8908
 8219TIP3   OH246147   4.682   4.591   4.595  0.7198  0.6297  0.5339
 8219TIP3    H146148   4.657   4.657   4.660  0.0663  1.0193 -0.0975
 8219TIP3    H246149   4.677   4.637   4.512  2.2385  0.3285  0.2554
 8220TIP3   OH246150   1.262   4.562  15.260  0.0631  0.2903  0.2338
 8220TIP3    H146151   1.283   4.617  15.336 -1.3559  0.2603  0.6655
 8220TIP3    H246152   1.269   4.473  15.293  0.9373  0.2276 -0.0891
 8221TIP3   OH246153   2.101   5.842  15.881  0.1549 -0.0880 -0.1128
 8221TIP3    H146154   2.104   5.747  15.895  2.3377  0.1160  1.1809
 8221TIP3    H246155   2.150   5.856  15.801  4.1510  0.2296  2.1557
 8222TIP3   OH246156   6.590   1.179  15.573 -0.3685  0.1022  0.0135
 8222TIP3    H146157   6.517   1.174  15.635 -0.3384  1.2447  0.1654
 8222TIP3    H246158   6.550   1.211  15.492  0.2279  2.6449  0.6439
 8223TIP3   OH246159   6.839   4.138   0.390 -0.2112  0.1688 -0.0542
 8223TIP3    H146160   6.791   4.089   0.324 -1.8610  1.4551  0.1355
 8223TIP3    H246161   6.921   4.090   0.401 -0.8125 -1.2486 -1.4796
 8224TIP3   OH246162   0.224   6.240   1.838 -0.2730 -0.0851  0.4570
 8224TIP3    H146163   0.259   6.266   1.923  0.7697  1.5176 -0.4062
 8224TIP3    H246164   0.240   6.146   1.833  0.2918 -0.0725  1.7450
 8225TIP3   OH246165   3.082   2.629   4.314  0.6759 -0.4986 -0.2019
 8225TIP3    H146166   3.013   2.580   4.359 -2.4994  2.2461 -1.5853
 8225TIP3    H246167   3.112   2.693   4.379  0.6738 -0.5959 -0.1048
 8226TIP3   OH246168   5.725   5.691   2.950  0.5732 -0.5630  0.7325
 8226TIP3    H146169   5.648   5.650   2.910  1.1162 -1.4106  0.5246
 8226TIP3    H246170   5.756   5.627   3.015  0.3292  0.3467  1.7629
 8227TIP3   OH246171   1.340   2.155   6.132 -0.2112 -0.1162 -0.1528
 8227TIP3    H146172   1.326   2.060   6.123  1.4803 -0.3339 -0.9457
 8227TIP3    H246173   1.253   2.193   6.119 -0.9589 -1.5608  0.3530
 8228TIP3   OH246174   4.088   3.562   3.555  0.0790  0.0931  0.4224
 8228TIP3    H146175   4.147   3.614   3.610 -0.2054  0.7569  0.1065
 8228TIP3    H246176   4.123   3.473   3.559  0.4181  0.2573  1.1817
 8229TIP3   OH246177   1.692   1.164   0.537  0.4430  0.3618 -0.1300
 8229TIP3    H146178   1.633   1.196   0.605  0.3209  0.3210 -0.2166
 8229TIP3    H246179   1.638   1.104   0.485  1.0524 -1.1436  0.9175
 8230TIP3   OH246180   4.458   1.690   1.768 -0.1672 -0.1045  0.1419
 8230TIP3    H146181   4.411   1.624   1.819  2.0517 -2.3046 -0.4250
 8230TIP3    H246182   4.549   1.683   1.799  0.5065  1.2472 -1.3977
 8231TIP3   OH246183   6.102   0.791   3.619  0.9448 -0.5055 -0.2368
 8231TIP3    H146184   6.154   0.714   3.598  2.1559  0.3032 -0.2827
 8231TIP3    H246185   6.162   0.865   3.610 -0.0281  0.4026  0.3872
 8232TIP3   OH246186   6.583   0.041  13.038  0.1936 -0.5999 -0.3328
 8232TIP3    H146187   6.592   0.036  12.943  0.5666  0.6408 -0.3797
 8232TIP3    H246188   6.670   0.065  13.069 -0.2460  0.3284  0.2062
 8233TIP3   OH246189   1.526   2.055  12.913  0.1535 -0.3814 -0.0065
 8233TIP3    H146190   1.565   1.981  12.960  0.3831 -0.6908 -0.6759
 8233TIP3    H246191   1.432   2.046  12.930  0.2287 -0.4953  0.3786
 8234TIP3   OH246192   4.256   5.355   2.790  0.1371 -0.1223  0.8505
 8234TIP3    H146193   4.333   5.354   2.847  0.6021 -0.1199  0.2302
 8234TIP3    H246194   4.219   5.267   2.798  1.0455 -0.6023  0.0339
 8235TIP3   OH246195   4.989   0.141   2.679 -0.1527  0.4123  0.1735
 8235TIP3    H146196   4.990   0.111   2.588 -1.6331 -2.1127  0.8948
 8235TIP3    H246197   4.899   0.168   2.695 -0.2007 -0.2867  1.2042
 8236TIP3   OH246198   2.766   5.169   0.840  0.4942 -0.5487 -0.1964
 8236TIP3    H146199   2.736   5.148   0.929  1.0396 -1.6590 -0.2659
 8236TIP3    H246200   2.733   5.098   0.786  0.2782  0.0595 -0.8692
 8237TIP3   OH246201   0.258   6.765  11.704 -0.3810 -0.2951  0.6753
 8237TIP3    H146202   0.213   6.735  11.783  1.6238 -0.8054  1.7164
 8237TIP3    H246203   0.328   6.700  11.692  1.2230  1.4402  0.2732
 8238TIP3   OH246204   0.391   6.633   0.521 -0.1147  0.4607  0.3761
 8238TIP3    H146205   0.408   6.727   0.513 -0.3075  0.5142  0.5799
 8238TIP3    H246206   0.384   6.617   0.615 -2.3235  0.6692  0.3029
 8239TIP3   OH246207   2.004   0.263   6.157  0.4801 -0.1992  0.0872
 8239TIP3    H146208   2.054   0.195   6.203  0.4903  0.7675  1.5358
 8239TIP3    H246209   2.061   0.340   6.158 -0.1922  0.3102 -0.1150
 8240TIP3   OH246210   2.532   6.071  14.901  0.0115  0.1388 -0.4108
 8240TIP3    H146211   2.617   6.099  14.867  0.1250  0.2737 -0.0199
 8240TIP3    H246212   2.522   5.981  14.868  0.3850  0.0610 -0.3168
 8241TIP3   OH246213   6.576   3.817   4.974 -0.3419  0.1646  0.4529
 8241TIP3    H146214   6.495   3.843   4.930 -0.3131  2.1574  1.4573
 8241TIP3    H246215   6.584   3.879   5.048  1.8900 -0.2181  0.6006
 8242TIP3   OH246216   6.087   0.079  11.263 -0.3206  0.6959  0.3238
 8242TIP3    H146217   6.023   0.056  11.330 -0.1630 -1.9596 -0.3499
 8242TIP3    H246218   6.033   0.104  11.187 -0.5438  0.4314  0.3922
 8243TIP3   OH246219   5.119   4.995  15.381 -0.0184  0.1525 -0.0558
 8243TIP3    H146220   5.040   5.027  15.424 -0.1570  2.7678 -2.0019
 8243TIP3    H246221   5.175   5.072  15.374  2.3418 -1.4250  0.4132
 8244TIP3   OH246222   0.451   2.557   4.561  0.6780 -0.3484  0.5066
 8244TIP3    H146223   0.407   2.579   4.479  1.7628 -0.2324 -0.0659
 8244TIP3    H246224   0.426   2.627   4.622 -1.3553 -1.2406  0.7675
 8245TIP3   OH246225   1.617   3.978   0.071  0.2338  0.2927 -0.1831
 8245TIP3    H146226   1.601   3.933  -0.012  0.6722 -0.2801  0.0336
 8245TIP3    H246227   1.541   3.956   0.125 -1.6495  3.2027 -1.4305
 8246TIP3   OH246228   2.253   5.070  12.147  0.4650  0.2234  0.1419
 8246TIP3    H146229   2.220   5.125  12.075  1.2047  1.8061  0.9598
 8246TIP3    H246230   2.347   5.091  12.152  0.7404 -1.0141  0.6007
 8247TIP3   OH246231   0.561   3.566   4.580  0.0986 -0.2803  0.2911
 8247TIP3    H146232   0.627   3.573   4.648  0.0692  2.4091  0.1522
 8247TIP3    H246233   0.478   3.579   4.625 -0.0313  0.1162 -0.0588
 8248TIP3   OH246234   2.450   1.200   1.305  0.1575 -0.0716  0.2580
 8248TIP3    H146235   2.536   1.171   1.275  0.6730 -0.6530  2.1567
 8248TIP3    H246236   2.468   1.273   1.364 -0.8639  1.4878 -1.2681
 8249TIP3   OH246237   5.958   3.778  14.845 -0.3563 -0.3767  0.2645
 8249TIP3    H146238   5.998   3.865  14.853 -0.3151 -0.1876 -1.5693
 8249TIP3    H246239   5.877   3.793  14.797  0.4554 -1.4982 -1.6038
 8250TIP3   OH246240   3.799   3.910   0.654  0.3927  0.0643 -0.6269
 8250TIP3    H146241   3.786   3.900   0.748  1.7954  1.5453 -0.2326
 8250TIP3    H246242   3.713   3.935   0.620 -0.2828 -1.1385  0.1199
 8251TIP3   OH246243   1.081   2.685  16.828  0.5788  0.1357  0.4992
 8251TIP3    H146244   1.069   2.593  16.851  0.6992  0.6701  2.9273
 8251TIP3    H246245   1.042   2.693  16.741 -0.5259 -1.9546  0.7503
 8252TIP3   OH246246   5.058   3.137   4.924 -0.1828 -0.5880  0.4827
 8252TIP3    H146247   5.087   3.229   4.918  0.5420 -0.7616  1.1920
 8252TIP3    H246248   5.053   3.108   4.832 -0.5108  0.1818  0.2474
 8253TIP3   OH246249   4.605   5.636   2.893  0.3572 -0.4322 -0.0420
 8253TIP3    H146250   4.562   5.552   2.908  1.3942 -0.8027  0.9900
 8253TIP3    H246251   4.691   5.613   2.858  1.2274  0.0914  1.6257
 8254TIP3   OH246252   3.294   3.059  10.462 -0.0874  0.3566 -0.3008
 8254TIP3    H146253   3.207   3.099  10.457 -0.2587  0.0234 -0.0030
 8254TIP3    H246254   3.342   3.115  10.522  0.0935  0.8809 -0.9192
 8255TIP3   OH246255   6.001   1.134  14.026  0.0982  0.2044  0.1141
 8255TIP3    H146256   5.915   1.119  13.988 -0.2233  0.5681  0.6887
 8255TIP3    H246257   6.062   1.124  13.952 -0.4661  0.3631 -0.3793
 8256TIP3   OH246258   2.110   0.967   4.132 -0.9018 -0.6351 -0.2713
 8256TIP3    H146259   2.173   1.030   4.096 -0.3256 -0.8800  0.2994
 8256TIP3    H246260   2.124   0.887   4.081 -1.5968 -0.3369 -0.9599
 8257TIP3   OH246261   4.136   5.460  13.032 -0.1130 -0.3792  0.1591
 8257TIP3    H146262   4.201   5.389  13.030  0.4390  0.1256  0.1857
 8257TIP3    H246263   4.145   5.499  13.118  1.3197  1.3128 -0.6999
 8258TIP3   OH246264   4.339   3.786  16.793 -0.3131  0.3999  0.1843
 8258TIP3    H146265   4.372   3.761  16.879  0.0329  0.2225  0.0030
 8258TIP3    H246266   4.266   3.845  16.811 -0.1452  0.4830  0.5970
 8259TIP3   OH246267   5.431   6.232  16.610 -0.0686 -0.3111  0.3991
 8259TIP3    H146268   5.416   6.245  16.704 -1.0930  2.9573 -0.0781
 8259TIP3    H246269   5.500   6.295  16.588  0.0494 -0.9083 -1.0641
 8260TIP3   OH246270   3.596   1.509  17.155  0.0569 -0.2818  0.2496
 8260TIP3    H146271   3.631   1.503  17.066 -1.4208 -1.0681 -0.3119
 8260TIP3    H246272   3.585   1.418  17.183 -0.8771 -0.0521  0.6550
 8261TIP3   OH246273   2.100   5.942   0.615 -0.1254 -0.3354 -0.2732
 8261TIP3    H146274   2.189   5.907   0.618  0.2700  0.6747  0.3269
 8261TIP3    H246275   2.081   5.949   0.522  0.7723  0.2579 -0.4303
 8262TIP3   OH246276   3.830   0.897  11.690  0.3470 -0.0327 -0.3080
 8262TIP3    H146277   3.896   0.954  11.651  0.0378 -1.2299 -2.7610
 8262TIP3    H246278   3.880   0.839  11.747  0.6681  2.5413  2.2577
 8263TIP3   OH246279   0.338   0.594  15.685 -0.3881 -0.0967  0.1485
 8263TIP3    H146280   0.286   0.639  15.618  1.2866 -1.4087 -2.1708
 8263TIP3    H246281   0.305   0.504  15.683  0.5801 -0.4531  0.1132
 8264TIP3   OH246282   2.908   0.039   4.664  0.4849 -0.7358  0.2572
 8264TIP3    H146283   2.876   0.104   4.727  0.0658 -0.0257 -0.6615
 8264TIP3    H246284   2.954   0.091   4.598  3.1834 -1.6908  1.2951
 8265TIP3   OH246285   0.630   5.905  12.769  0.5319 -0.0315  0.1815
 8265TIP3    H146286   0.694   5.845  12.730  0.0384 -0.5231  0.1074
 8265TIP3    H246287   0.564   5.917  12.701  1.2777  1.6475 -0.2788
 8266TIP3   OH246288   0.395   5.370  12.875  0.3722  0.5855  0.0095
 8266TIP3    H146289   0.491   5.374  12.879  0.3213  1.1144  1.3657
 8266TIP3    H246290   0.376   5.280  12.848  1.2514  0.3189  0.2351
 8267TIP3   OH246291   3.023   0.329  13.154 -0.6032  0.3042 -0.4184
 8267TIP3    H146292   3.104   0.321  13.104  0.7924  1.0968  1.5275
 8267TIP3    H246293   3.011   0.424  13.165 -0.4010  0.1701  1.3327
 8268TIP3   OH246294   3.073   3.398  13.575 -0.1145  0.1329 -0.5657
 8268TIP3    H146295   3.113   3.374  13.491  0.8223 -1.0388  0.1877
 8268TIP3    H246296   3.036   3.485  13.559  0.2666  0.0468 -2.1158
 8269TIP3   OH246297   5.737   2.606  11.578 -0.0959 -0.2004 -0.1489
 8269TIP3    H146298   5.727   2.606  11.482  1.1463 -2.2429 -0.3222
 8269TIP3    H246299   5.793   2.531  11.597  0.2411  0.5522  2.1535
 8270TIP3   OH246300   6.480   4.914   1.437  0.1197 -0.8585 -0.4556
 8270TIP3    H146301   6.452   4.926   1.527 -2.6729  2.7888 -1.5809
 8270TIP3    H246302   6.571   4.945   1.435  0.6505 -2.1704  1.2274
 8271TIP3   OH246303   2.403   0.218  16.748  0.2393 -0.0503  0.5021
 8271TIP3    H146304   2.422   0.130  16.782 -1.5004 -0.0644  1.5836
 8271TIP3    H246305   2.307   0.221  16.742  0.3287  1.2461 -1.0292
 8272TIP3   OH246306   1.868   2.505  17.110  0.2808 -0.4522  0.2170
 8272TIP3    H146307   1.798   2.530  17.049  0.7886 -0.0720 -0.2189
 8272TIP3    H246308   1.832   2.431  17.159  0.2736 -1.5246 -1.3461
 8273TIP3   OH246309   0.118   1.535  12.452 -0.5678  0.0488  0.1452
 8273TIP3    H146310   0.122   1.575  12.539 -2.0124 -1.6300  1.0286
 8273TIP3    H246311   0.123   1.610  12.391 -2.9679  1.6039  1.7049
 8274TIP3   OH246312   2.362   4.042   1.435 -0.9625 -0.1553  0.2789
 8274TIP3    H146313   2.275   4.060   1.400 -1.0812 -0.6130  0.3387
 8274TIP3    H246314   2.418   4.109   1.395 -1.4309  0.4506  0.6335
 8275TIP3   OH246315   5.521   5.349   0.364  0.7143 -0.0058  0.0014
 8275TIP3    H146316   5.485   5.283   0.423  0.7644 -0.7035 -0.7324
 8275TIP3    H246317   5.493   5.322   0.277  0.0950  1.3642 -0.2536
 8276TIP3   OH246318   3.320   4.092  12.643  0.1509  0.8876 -0.5391
 8276TIP3    H146319   3.276   4.090  12.728 -1.4664  0.5060 -1.3549
 8276TIP3    H246320   3.308   4.182  12.612 -0.3978  0.6898 -0.9205
 8277TIP3   OH246321   4.152   6.599   5.788 -0.1952  0.0364 -0.0317
 8277TIP3    H146322   4.185   6.680   5.826  0.6128 -1.3441  2.3570
 8277TIP3    H246323   4.227   6.561   5.742 -0.2717  0.0562 -0.1764
 8278TIP3   OH246324   0.103   2.939  14.418  0.7545 -0.2435 -0.9441
 8278TIP3    H146325   0.102   2.843  14.414  2.6402 -0.2949 -1.0650
 8278TIP3    H246326   0.150   2.959  14.499 -0.1477  0.6014 -0.6093
 8279TIP3   OH246327   6.456   4.135  14.283 -0.2113  0.0986 -0.2219
 8279TIP3    H146328   6.363   4.133  14.306 -0.2101 -0.5873 -0.2766
 8279TIP3    H246329   6.474   4.049  14.245  0.4696  0.1946 -0.1316
 8280TIP3   OH246330   1.948   4.953  14.728 -0.1493 -0.1534 -0.1873
 8280TIP3    H146331   2.001   4.883  14.692  1.3990  0.2792  1.1395
 8280TIP3    H246332   1.964   5.028  14.671 -0.1578 -0.3028 -0.3860
 8281TIP3   OH246333   2.179   1.648  10.632 -0.1155 -0.2310  0.5653
 8281TIP3    H146334   2.213   1.645  10.722  1.5825 -0.1573 -0.0390
 8281TIP3    H246335   2.252   1.681  10.580 -1.3487  0.5847 -0.7331
 8282TIP3   OH246336   3.685   5.809  12.171  0.4226  0.2925  0.0268
 8282TIP3    H146337   3.614   5.870  12.151 -0.0665  0.5234  2.2507
 8282TIP3    H246338   3.688   5.751  12.095 -0.5929  1.6828 -1.1416
 8283TIP3   OH246339   2.515   6.420   2.224  0.0446 -0.1609 -0.3361
 8283TIP3    H146340   2.437   6.378   2.186  0.9317 -2.2135 -0.0034
 8283TIP3    H246341   2.588   6.385   2.174  0.8930  0.5663  0.3567
 8284TIP3   OH246342   4.205   5.235   2.079 -0.7389  0.5477  0.7580
 8284TIP3    H146343   4.252   5.299   2.025  2.0510  0.7257  3.1264
 8284TIP3    H246344   4.135   5.285   2.120 -0.4942  1.3240  0.2459
 8285TIP3   OH246345   3.365   4.856  14.830 -0.0161  0.3096 -0.5182
 8285TIP3    H146346   3.391   4.874  14.921  1.0759  0.5077 -0.8541
 8285TIP3    H246347   3.438   4.888  14.777 -0.7031  0.3278 -1.4852
 8286TIP3   OH246348   2.729   1.291  14.668  0.0786 -0.6917 -0.1025
 8286TIP3    H146349   2.728   1.228  14.596  1.1634 -0.6752 -0.1543
 8286TIP3    H246350   2.686   1.369  14.632 -0.2163 -1.0004 -0.4258
 8287TIP3   OH246351   5.985   4.955   5.401 -0.7619  0.7745  0.0645
 8287TIP3    H146352   6.032   4.882   5.360 -1.2150  0.4019  0.1880
 8287TIP3    H246353   6.047   4.991   5.464 -0.8625 -0.1524  0.7269
 8288TIP3   OH246354   4.258   4.416  10.257  0.1119 -0.0460 -0.0406
 8288TIP3    H146355   4.163   4.409  10.256  0.1680 -1.8608  1.5504
 8288TIP3    H246356   4.289   4.325  10.253  1.7633  0.4735  0.0646
 8289TIP3   OH246357   5.265   5.613   1.611 -0.0482 -0.2633  0.0028
 8289TIP3    H146358   5.284   5.697   1.569 -0.8914  0.0520  0.2368
 8289TIP3    H246359   5.252   5.552   1.539  0.2047 -0.1100 -0.1751
 8290TIP3   OH246360   0.569   1.404   1.580  0.0026  0.1189 -0.1521
 8290TIP3    H146361   0.545   1.466   1.511  1.0018  1.2222  0.4377
 8290TIP3    H246362   0.651   1.366   1.550 -1.2065 -1.8889 -1.0785
 8291TIP3   OH246363   4.852   0.815  11.479 -0.8577  0.2039  0.2509
 8291TIP3    H146364   4.756   0.816  11.470 -0.9529  0.1904  1.1802
 8291TIP3    H246365   4.872   0.895  11.527 -0.1150  1.6594 -2.2918
 8292TIP3   OH246366   6.824   4.232  11.833  0.5562 -0.4949 -0.5728
 8292TIP3    H146367   6.793   4.293  11.900 -0.3170 -1.1402 -0.3643
 8292TIP3    H246368   6.774   4.151  11.850  0.1345 -0.5933 -2.1510
 8293TIP3   OH246369   0.683   6.164   1.312 -0.6655  0.1010  0.7429
 8293TIP3    H146370   0.722   6.104   1.375  0.1013  0.5600  0.7096
 8293TIP3    H246371   0.627   6.108   1.257  0.3038 -0.6451  0.4884
 8294TIP3   OH246372   6.410   5.429   4.612  0.0917  0.1000  0.0373
 8294TIP3    H146373   6.491   5.414   4.662  0.6362 -0.7382 -1.0364
 8294TIP3    H246374   6.433   5.500   4.551 -0.1416  0.2090  0.0784
 8295TIP3   OH246375   1.905   4.460  14.186  0.6054  0.2511 -0.6647
 8295TIP3    H146376   1.834   4.524  14.198  0.7825  0.0665  1.8117
 8295TIP3    H246377   1.984   4.508  14.208  0.8523 -0.5278  0.1914
 8296TIP3   OH246378   2.615   3.576   5.023 -1.0020  0.1855 -0.4992
 8296TIP3    H146379   2.672   3.588   4.947 -0.3281  0.2114  0.0016
 8296TIP3    H246380   2.598   3.665   5.053 -0.3765  0.1333  0.0248
 8297TIP3   OH246381   5.761   3.253  13.997  0.5408 -0.3226  0.0877
 8297TIP3    H146382   5.702   3.283  14.067  0.9564  1.1593 -0.1691
 8297TIP3    H246383   5.755   3.158  14.001 -2.6218 -0.2811 -0.5253
 8298TIP3   OH246384   0.080   3.656   2.742 -0.1791 -0.2627 -0.1297
 8298TIP3    H146385   0.126   3.722   2.794 -2.5651  0.4344  1.2429
 8298TIP3    H246386   0.114   3.572   2.773  1.4584  0.2469 -0.4783
 8299TIP3   OH246387   2.843   5.174  14.817  0.4645  0.2329 -0.0464
 8299TIP3    H146388   2.840   5.223  14.735  0.9560 -1.6574 -1.2765
 8299TIP3    H246389   2.776   5.214  14.872 -0.5365  0.9772 -1.7295
 8300TIP3   OH246390   3.995   0.359  14.468  0.0368  0.1365  0.4651
 8300TIP3    H146391   3.970   0.288  14.409 -2.4421  0.6428  0.7549
 8300TIP3    H246392   3.911   0.401  14.490  1.3337  2.6791  0.8793
 8301TIP3   OH246393   1.048   4.538  11.632  0.3652 -0.0023  0.2226
 8301TIP3    H146394   1.034   4.565  11.722 -1.1382  0.1485 -0.0286
 8301TIP3    H246395   1.022   4.446  11.630  1.2374 -0.2535  0.1221
 8302TIP3   OH246396   0.125   5.723  15.246  0.1909  0.3126 -0.5327
 8302TIP3    H146397   0.177   5.643  15.247  1.6813  1.2466 -0.1804
 8302TIP3    H246398   0.111   5.745  15.338  0.7365  1.0321 -0.6114
 8303TIP3   OH246399   4.931   1.832   1.990  0.4560 -0.6424  0.4040
 8303TIP3    H146400   4.945   1.915   2.036 -1.5587 -1.9629  3.7790
 8303TIP3    H246401   5.002   1.776   2.019  0.0738 -1.0073  0.6502
 8304TIP3   OH246402   3.124   2.505  12.403  0.2095  0.7742  0.4457
 8304TIP3    H146403   3.090   2.463  12.324  2.1221 -0.7849  0.3785
 8304TIP3    H246404   3.064   2.577  12.419 -2.9018 -1.5552  0.1709
 8305TIP3   OH246405   1.799   6.183  12.036 -0.4814  0.1405 -0.0020
 8305TIP3    H146406   1.784   6.190  12.130 -1.3476  2.3752 -0.2272
 8305TIP3    H246407   1.785   6.091  12.016 -0.0396 -0.4323  2.0819
 8306TIP3   OH246408   5.310   0.923  13.100  0.2762  0.1209  0.0904
 8306TIP3    H146409   5.250   0.928  13.174 -0.9758  1.1594 -0.9376
 8306TIP3    H246410   5.255   0.894  13.027  2.0097 -3.6825  0.0627
 8307TIP3   OH246411   2.150   0.100   0.673 -0.5484  0.0753  0.5588
 8307TIP3    H146412   2.219   0.050   0.717 -0.4902  1.0945  1.6711
 8307TIP3    H246413   2.111   0.154   0.742 -1.6942  0.3745 -0.2826
 8308TIP3   OH246414   6.288   3.611   1.076 -0.3636 -0.0619  0.2671
 8308TIP3    H146415   6.372   3.567   1.091  0.0412  0.2354 -0.9573
 8308TIP3    H246416   6.263   3.585   0.987 -0.4381  1.6145 -0.2515
 8309TIP3   OH246417   1.851   5.712  16.699 -0.4683  0.2131 -0.2952
 8309TIP3    H146418   1.803   5.638  16.738  0.7471 -0.0483  0.8014
 8309TIP3    H246419   1.872   5.683  16.610  1.3195 -1.4918  0.5871
 8310TIP3   OH246420   3.691   4.697  14.681 -0.2469  0.1611  0.1292
 8310TIP3    H146421   3.786   4.712  14.679 -0.1974 -0.1881 -0.9194
 8310TIP3    H246422   3.653   4.784  14.697  0.2843  0.0131  2.6292
 8311TIP3   OH246423   1.226   1.051   0.023  0.0380  0.2278  0.3959
 8311TIP3    H146424   1.184   1.048   0.108 -0.4623 -3.1189  0.1691
 8311TIP3    H246425   1.241   0.959   0.000  1.4235  1.0450 -2.5113
 8312TIP3   OH246426   1.644   1.882  14.697  0.0240  0.0907 -0.6878
 8312TIP3    H146427   1.618   1.867  14.606 -2.4593 -0.3799  0.0227
 8312TIP3    H246428   1.658   1.794  14.733 -0.2613  0.2093 -0.2828
 8313TIP3   OH246429   5.011   4.884   1.541 -0.3192  0.4083 -0.0995
 8313TIP3    H146430   4.927   4.856   1.503 -1.2005  0.6619  1.5592
 8313TIP3    H246431   5.012   4.844   1.628  0.2989  2.1247  0.7238
 8314TIP3   OH246432   1.068   3.249  12.678  0.2499  0.1860  0.4076
 8314TIP3    H146433   1.092   3.160  12.650 -3.1289 -0.6390 -0.2661
 8314TIP3    H246434   1.111   3.306  12.614  2.0837 -0.9388  0.5635
 8315TIP3   OH246435   5.655   3.240   1.636  0.4381  0.0552 -0.1765
 8315TIP3    H146436   5.600   3.318   1.649  3.0109  1.9813 -0.1603
 8315TIP3    H246437   5.614   3.193   1.563 -0.8346  1.7567 -0.6130
 8316TIP3   OH246438   6.320   5.828  15.034  0.5464  0.0936  0.2815
 8316TIP3    H146439   6.404   5.808  14.992  1.2358 -0.5205  1.8554
 8316TIP3    H246440   6.314   5.924  15.030  0.7186  0.0697 -0.9285
 8317TIP3   OH246441   0.604   3.346  15.168 -0.3304  0.1875 -0.4625
 8317TIP3    H146442   0.633   3.358  15.078  0.5828  1.8295  0.0074
 8317TIP3    H246443   0.601   3.435  15.205  0.0353 -0.4950  1.3324
 8318TIP3   OH246444   0.286   2.717  14.003  0.1863 -0.4200 -0.0324
 8318TIP3    H146445   0.224   2.644  13.996 -0.7604  0.3199  0.3055
 8318TIP3    H246446   0.321   2.727  13.914  2.6496 -3.1811  0.4887
 8319TIP3   OH246447   2.881   6.054  11.753  0.8261  0.6977  0.8306
 8319TIP3    H146448   2.912   6.038  11.664 -0.1087  0.4522  0.5345
 8319TIP3    H246449   2.944   6.008  11.809 -1.4480 -3.9587  0.0657
 8320TIP3   OH246450   1.274   2.213   3.841 -0.0557 -0.6522 -0.0127
 8320TIP3    H146451   1.255   2.305   3.862  1.4622 -0.4965  0.8358
 8320TIP3    H246452   1.369   2.211   3.826 -0.0128 -2.1553  0.3353
 8321TIP3   OH246453   5.045   5.843  15.600  0.6912  0.3784  0.5052
 8321TIP3    H146454   5.031   5.752  15.575 -2.5381  0.8635  0.0972
 8321TIP3    H246455   5.091   5.882  15.526 -0.4702 -0.3240 -0.6292
 8322TIP3   OH246456   6.427   5.427   0.198  0.3264 -0.0475 -0.3207
 8322TIP3    H146457   6.438   5.392   0.287  1.7810  0.8846 -0.1035
 8322TIP3    H246458   6.458   5.517   0.204 -0.5735  0.3665 -1.5534
 8323TIP3   OH246459   1.179   6.830  16.072  0.2347  0.3142  0.6907
 8323TIP3    H146460   1.186   6.777  16.151  0.5441  1.6165  1.5593
 8323TIP3    H246461   1.131   6.908  16.099  1.6901  1.5004  0.0003
 8324TIP3   OH246462   4.405   6.195  11.276 -0.2889  0.0807  0.1527
 8324TIP3    H146463   4.318   6.203  11.237 -0.4067 -0.6315  0.2592
 8324TIP3    H246464   4.465   6.224  11.207 -0.4555 -1.7376 -0.8197
 8325TIP3   OH246465   6.375   6.788   1.723 -0.4218  0.1419  0.3801
 8325TIP3    H146466   6.390   6.820   1.812 -1.6564 -1.1165  1.0727
 8325TIP3    H246467   6.286   6.817   1.702 -0.4168 -0.2217 -0.1510
 8326TIP3   OH246468   3.428   4.432  15.901 -0.1746 -0.1414  0.3908
 8326TIP3    H146469   3.437   4.500  15.834  2.5810  1.2827  2.0642
 8326TIP3    H246470   3.490   4.364  15.874  0.0035 -0.1574  0.8449
 8327TIP3   OH246471   2.452   0.164   3.179 -0.1873 -0.1606  0.1179
 8327TIP3    H146472   2.520   0.116   3.131 -0.8304 -1.1942  0.2233
 8327TIP3    H246473   2.404   0.211   3.111  1.5619  1.8698  0.1614
 8328TIP3   OH246474   5.658   6.130   2.523 -0.1146  0.3403 -0.1054
 8328TIP3    H146475   5.606   6.193   2.574 -1.6797  0.0014 -1.1860
 8328TIP3    H246476   5.668   6.055   2.581  0.0832  0.8211  0.4967
 8329TIP3   OH246477   6.364   4.076  10.683 -0.0446  0.5717 -0.8711
 8329TIP3    H146478   6.328   3.997  10.723  0.3593  0.7556 -0.1164
 8329TIP3    H246479   6.331   4.076  10.594 -1.0793  0.2180 -0.4957
 8330TIP3   OH246480   0.702   1.012  16.200  0.3518 -0.9544 -0.7622
 8330TIP3    H146481   0.633   1.009  16.134  2.4029  0.2680 -3.1118
 8330TIP3    H246482   0.715   1.106  16.216  1.7814 -1.1415 -0.7274
 8331TIP3   OH246483   0.008   1.038   6.318 -0.2959 -0.2576  0.1895
 8331TIP3    H146484   0.064   1.020   6.242 -0.2550 -0.1992  0.2061
 8331TIP3    H246485   0.033   0.973   6.383  0.4697  0.4116  0.5788
 8332TIP3   OH246486   0.105   2.866  10.414  0.2544 -0.5561  0.3805
 8332TIP3    H146487   0.086   2.927  10.485  2.2112  0.4698  0.0946
 8332TIP3    H246488   0.123   2.783  10.459 -1.6517 -0.7631  0.8279
 8333TIP3   OH246489   2.347   2.784   5.086  0.2341 -0.0286 -0.1898
 8333TIP3    H146490   2.368   2.876   5.070 -3.5457  1.0039 -0.1277
 8333TIP3    H246491   2.340   2.746   4.999 -3.5004  1.2634 -0.6241
 8334TIP3   OH246492   4.356   0.421  14.169  0.1772 -0.0768  0.3560
 8334TIP3    H146493   4.348   0.437  14.263  1.6183  1.0804  0.3097
 8334TIP3    H246494   4.326   0.330  14.158  0.2297 -0.3210  1.9548
 8335TIP3   OH246495   1.746   5.343  12.635  0.2177  0.2972 -0.3275
 8335TIP3    H146496   1.722   5.264  12.587 -0.0336  0.3134 -0.2264
 8335TIP3    H246497   1.824   5.318  12.685 -0.1220 -0.0141  0.0521
 8336TIP3   OH246498   2.568   1.285   6.508  0.4293  0.2480  0.5887
 8336TIP3    H146499   2.474   1.270   6.499  0.0147  0.4027  3.5289
 8336TIP3    H246500   2.578   1.380   6.498  0.4539  0.1100 -0.7838
 8337TIP3   OH246501   1.510   3.311  14.781  0.0242  0.0659 -1.1774
 8337TIP3    H146502   1.484   3.220  14.799 -0.9273  0.5078 -0.1480
 8337TIP3    H246503   1.427   3.357  14.770  0.4393  1.0752 -0.2273
 8338TIP3   OH246504   3.567   5.694   3.634  1.0203  0.1934 -0.0474
 8338TIP3    H146505   3.570   5.616   3.688 -1.9000 -0.1576 -0.2414
 8338TIP3    H246506   3.511   5.755   3.682  1.1759  1.2022 -1.0804
 8339TIP3   OH246507   5.321   6.367  10.690  0.2747 -0.5295 -0.0412
 8339TIP3    H146508   5.241   6.410  10.721  0.7262  0.6643 -0.4720
 8339TIP3    H246509   5.370   6.437  10.646  0.8096 -1.6042 -1.2200
 8340TIP3   OH246510   0.464   5.709   4.187  0.2242  0.3000 -0.0868
 8340TIP3    H146511   0.490   5.799   4.166  1.8426 -0.0226  0.4323
 8340TIP3    H246512   0.466   5.663   4.104  0.1443  0.5622 -0.2357
 8341TIP3   OH246513   4.433   3.827   4.293 -0.1768  0.2681 -0.3092
 8341TIP3    H146514   4.425   3.888   4.366  0.4999  1.1043 -0.9133
 8341TIP3    H246515   4.395   3.873   4.219  1.1361  0.3422 -0.9771
 8342TIP3   OH246516   5.460   6.675  14.321  0.1127 -0.3177  0.4077
 8342TIP3    H146517   5.528   6.723  14.368 -0.8357  0.6075  0.8994
 8342TIP3    H246518   5.457   6.714  14.234  0.8135 -0.9853  0.0663
 8343TIP3   OH246519   5.562   4.538   5.079 -0.2210 -0.1068 -0.2711
 8343TIP3    H146520   5.636   4.596   5.063  0.8536 -1.3589  0.0297
 8343TIP3    H246521   5.493   4.596   5.111  0.8661  0.9736  0.1933
 8344TIP3   OH246522   2.598   6.369  14.118  0.1118 -0.0149  0.1492
 8344TIP3    H146523   2.568   6.456  14.091 -0.8707 -0.8944 -1.8105
 8344TIP3    H246524   2.673   6.352  14.061 -0.1139 -0.7072  0.0541
 8345TIP3   OH246525   2.884   3.432  14.624 -0.5388 -0.3998 -0.0487
 8345TIP3    H146526   2.853   3.397  14.540 -0.0784 -1.7678  0.3300
 8345TIP3    H246527   2.824   3.394  14.689 -2.4936  2.5964  0.1098
 8346TIP3   OH246528   3.497   5.235  15.822 -0.0097 -0.2590  0.2774
 8346TIP3    H146529   3.456   5.311  15.863  1.4713 -0.0939  1.5588
 8346TIP3    H246530   3.550   5.272  15.751  1.0114 -0.0057  1.1385
 8347TIP3   OH246531   4.243   4.765   3.620 -0.0652 -0.4994  0.3379
 8347TIP3    H146532   4.300   4.739   3.692  0.5470 -0.0607  0.0199
 8347TIP3    H246533   4.291   4.738   3.541 -0.5159 -0.5565  0.0802
 8348TIP3   OH246534   0.850   3.701   0.941  0.7541 -0.2993 -0.1532
 8348TIP3    H146535   0.905   3.656   0.878 -0.5186 -1.6168 -0.3822
 8348TIP3    H246536   0.783   3.745   0.888  0.2906 -0.5444  0.2235
 8349TIP3   OH246537   4.719   0.186   2.705  0.3887  0.3875  0.7411
 8349TIP3    H146538   4.688   0.253   2.645  0.4437  0.1317  0.4266
 8349TIP3    H246539   4.653   0.185   2.775 -2.1205 -2.2961 -1.4083
 8350TIP3   OH246540   0.557   2.440  11.218 -0.2999  0.0414 -0.3576
 8350TIP3    H146541   0.605   2.473  11.142  1.6393  0.3444  0.9561
 8350TIP3    H246542   0.527   2.518  11.264 -0.2894 -0.1148 -0.0825
 8351TIP3   OH246543   6.803   3.465   5.610 -0.3284 -0.4633 -0.5109
 8351TIP3    H146544   6.853   3.513   5.543  0.2525 -1.3880 -0.7620
 8351TIP3    H246545   6.864   3.458   5.684 -1.0513  0.7630  0.2297
 8352TIP3   OH246546   3.476   5.734   4.695  0.0303  0.6671  0.0675
 8352TIP3    H146547   3.386   5.732   4.727  0.0757 -2.3985  0.3133
 8352TIP3    H246548   3.493   5.645   4.665  2.7796  1.3140 -0.6249
 8353TIP3   OH246549   5.102   2.679   2.288 -0.3781 -0.5249  0.2975
 8353TIP3    H146550   5.007   2.673   2.278 -0.2748 -3.0121  0.1029
 8353TIP3    H246551   5.135   2.686   2.198 -0.3624 -0.3322  0.3194
 8354TIP3   OH246552   5.935   5.846  14.759  0.5789 -0.3389  0.6664
 8354TIP3    H146553   5.943   5.865  14.853  1.1729  0.8299  0.4017
 8354TIP3    H246554   6.015   5.883  14.721 -0.4100  0.6791 -0.5086
 8355TIP3   OH246555   2.019   6.336   4.000  0.0842 -0.0036  0.0189
 8355TIP3    H146556   2.090   6.337   4.064  1.5306 -0.5457 -1.4754
 8355TIP3    H246557   2.064   6.320   3.916 -1.8814 -1.1374 -0.8849
 8356TIP3   OH246558   3.236   5.811  15.387 -0.0093 -0.2112 -0.7151
 8356TIP3    H146559   3.296   5.754  15.434  1.1809  0.3812 -1.4584
 8356TIP3    H246560   3.285   5.892  15.374 -0.8365  0.1649 -1.6703
 8357TIP3   OH246561   1.697   5.723   4.284  0.4027  0.4484  0.0220
 8357TIP3    H146562   1.603   5.716   4.266  0.8285  0.2862 -2.4658
 8357TIP3    H246563   1.706   5.697   4.375 -2.0522  1.2267  0.5591
 8358TIP3   OH246564   6.697   3.594  17.142  0.8156  0.2992  0.1105
 8358TIP3    H146565   6.684   3.548  17.059  0.7976  0.3579  0.0820
 8358TIP3    H246566   6.715   3.524  17.205 -1.0253  0.0520  0.4423
 8359TIP3   OH246567   3.619   3.685  14.058  0.2988  0.1568  0.0811
 8359TIP3    H146568   3.669   3.764  14.078  1.2181 -0.8394  2.0982
 8359TIP3    H246569   3.547   3.714  14.003  1.9343  1.9874 -1.2026
 8360TIP3   OH246570   1.065   1.561  16.319 -0.4856  0.2470 -0.1791
 8360TIP3    H146571   1.008   1.514  16.380 -0.4968 -1.2656 -1.2909
 8360TIP3    H246572   1.153   1.552  16.356 -0.4579 -0.8812 -0.4888
 8361TIP3   OH246573   3.112   4.575  15.180 -0.0467  0.7231  0.3825
 8361TIP3    H146574   3.119   4.580  15.085  0.5125 -0.9714  0.3091
 8361TIP3    H246575   3.164   4.649  15.211  0.5120  0.7694 -0.6182
 8362TIP3   OH246576   5.155   0.986   2.221  0.0002  0.0976 -0.1215
 8362TIP3    H146577   5.239   0.967   2.180 -0.7802 -2.2518 -0.8037
 8362TIP3    H246578   5.090   0.954   2.158 -1.5156  3.0224 -0.2112
 8363TIP3   OH246579   4.043   3.907   4.815  0.0494  0.2475 -0.4809
 8363TIP3    H146580   3.981   3.844   4.779  1.6574 -1.1688 -0.8930
 8363TIP3    H246581   3.990   3.983   4.836 -2.2909 -1.8168  1.6426
 8364TIP3   OH246582   1.903   5.715  17.129 -0.0995 -0.3741 -0.0267
 8364TIP3    H146583   1.857   5.770  17.066 -2.9573 -2.9851 -0.4295
 8364TIP3    H246584   1.971   5.671  17.077 -0.9607 -0.8064 -0.8216
 8365TIP3   OH246585   6.384   1.197   4.070  0.1639 -0.2694  0.2689
 8365TIP3    H146586   6.326   1.241   4.133  0.9742  1.3698 -0.0730
 8365TIP3    H246587   6.330   1.185   3.993 -0.2266 -0.3715  0.5533
 8366TIP3   OH246588   1.431   1.127  13.963 -0.4294  0.8057 -0.3955
 8366TIP3    H146589   1.434   1.179  13.882  0.3225  0.3824 -0.6505
 8366TIP3    H246590   1.346   1.148  14.001 -0.4286  1.6935 -0.8445
 8367TIP3   OH246591   2.019   2.620   3.381  0.3209  1.1165 -0.4254
 8367TIP3    H146592   1.970   2.548   3.420  0.9138 -0.4351 -2.3747
 8367TIP3    H246593   2.034   2.681   3.453 -1.3656 -0.0536  0.9924
 8368TIP3   OH246594   1.483   3.089  16.246  0.5313  0.0442 -0.4220
 8368TIP3    H146595   1.446   3.131  16.324  0.5966  0.7703 -0.7699
 8368TIP3    H246596   1.415   3.029  16.216  0.1102  0.4862 -0.3626
 8369TIP3   OH246597   5.852   1.321   2.373  0.1975 -0.6487 -0.8043
 8369TIP3    H146598   5.826   1.385   2.306 -0.6406 -1.2040 -1.0301
 8369TIP3    H246599   5.916   1.367   2.427  1.8783 -0.5829 -2.7299
 8370TIP3   OH246600   6.838   4.817   4.485  0.0147 -0.1109 -0.0217
 8370TIP3    H146601   6.793   4.753   4.429  0.7029 -1.2978  0.7212
 8370TIP3    H246602   6.781   4.826   4.561 -0.6742  1.1153 -0.6655
 8371TIP3   OH246603   1.957   6.826  11.820  0.4494  0.3654 -0.8394
 8371TIP3    H146604   1.951   6.795  11.729  0.3315  0.5127 -0.8837
 8371TIP3    H246605   2.027   6.774  11.859 -1.3806 -1.7708 -0.1744
 8372TIP3   OH246606   3.302   4.611   3.325 -0.2147 -0.2982 -0.8672
 8372TIP3    H146607   3.387   4.568   3.331 -0.9384 -2.6514 -4.2307
 8372TIP3    H246608   3.300   4.673   3.398  4.2751 -0.2140 -0.5884
 8373TIP3   OH246609   5.024   2.488  15.800 -0.5224 -0.1246  0.1697
 8373TIP3    H146610   4.930   2.477  15.813 -0.5547  0.5422  0.5578
 8373TIP3    H246611   5.032   2.548  15.726 -0.4423  0.8804  0.9627
 8374TIP3   OH246612   3.599   6.321  10.383 -0.3533 -0.3846 -0.5190
 8374TIP3    H146613   3.601   6.401  10.437 -0.4240  0.3362 -1.5514
 8374TIP3    H246614   3.691   6.293  10.379 -0.3927 -0.6527  0.2598
 8375TIP3   OH246615   0.838   4.626   1.887  0.1861 -0.1616 -0.2371
 8375TIP3    H146616   0.848   4.579   1.970 -0.9004 -1.7019 -0.9418
 8375TIP3    H246617   0.927   4.627   1.850  0.2827 -1.5784 -0.1255
 8376TIP3   OH246618   6.462   2.657  12.157 -0.5891 -0.1449 -0.1863
 8376TIP3    H146619   6.411   2.726  12.201 -0.4363 -0.7413  0.9456
 8376TIP3    H246620   6.540   2.703  12.124 -0.4112  0.1959  0.6938
 8377TIP3   OH246621   0.518   3.833   2.364 -0.7636  0.0312  0.0724
 8377TIP3    H146622   0.591   3.867   2.415 -0.3539 -2.4040  1.2865
 8377TIP3    H246623   0.559   3.785   2.292 -1.1850 -0.5404  0.2073
 8378TIP3   OH246624   5.734   5.996  16.838 -0.2060  0.0511  0.3750
 8378TIP3    H146625   5.647   6.016  16.873 -0.5028 -0.4584 -0.0678
 8378TIP3    H246626   5.736   6.040  16.753  0.0339  0.1947  0.4535
 8379TIP3   OH246627   6.587   2.804  14.550 -0.3454 -0.0360  0.1544
 8379TIP3    H146628   6.647   2.859  14.601 -0.1327  0.2243 -0.3785
 8379TIP3    H246629   6.501   2.821  14.589 -0.4754  1.5762 -0.7343
 8380TIP3   OH246630   0.257   3.109   1.845  0.3441  0.5175  0.3345
 8380TIP3    H146631   0.263   3.136   1.753 -0.9432  0.0315  0.0790
 8380TIP3    H246632   0.275   3.015   1.844 -0.7139  0.3015  0.4137
 8381TIP3   OH246633   3.697   2.926   2.492 -0.0492 -0.7285 -0.0124
 8381TIP3    H146634   3.642   2.847   2.482 -1.4036  0.3408 -1.7081
 8381TIP3    H246635   3.669   2.983   2.421  3.0179  0.1020 -0.6968
 8382TIP3   OH246636   4.206   4.330   3.024  1.0331  0.2078 -0.4680
 8382TIP3    H146637   4.162   4.254   2.986 -1.5169 -0.0261  2.5615
 8382TIP3    H246638   4.172   4.405   2.975  0.0991 -0.2759 -0.5607
 8383TIP3   OH246639   6.383   1.679   1.238  0.1929 -0.0986 -0.2173
 8383TIP3    H146640   6.448   1.638   1.180 -0.7425 -0.2376 -1.1888
 8383TIP3    H246641   6.428   1.686   1.322  0.8551 -1.9108 -0.3628
 8384TIP3   OH246642   2.697   4.787  13.168 -0.0959  0.5649 -0.0326
 8384TIP3    H146643   2.652   4.871  13.174 -0.2971  0.5185 -0.7725
 8384TIP3    H246644   2.630   4.723  13.192  0.2255  0.6478  1.1303
 8385TIP3   OH246645   5.149   2.429   0.538 -0.3709 -0.4077  0.2575
 8385TIP3    H146646   5.220   2.439   0.475 -0.5136  0.8043  0.2535
 8385TIP3    H246647   5.190   2.388   0.614  0.9476  2.3678  1.1667
 8386TIP3   OH246648   2.542   3.981   2.331  0.6334 -0.5628 -0.2185
 8386TIP3    H146649   2.483   4.055   2.330 -0.2814 -1.0394  3.3954
 8386TIP3    H246650   2.629   4.019   2.316 -0.1166  0.7193 -1.5287
 8387TIP3   OH246651   1.606   4.931  13.350 -0.0160  0.5879  0.2875
 8387TIP3    H146652   1.552   4.852  13.339  0.0182  0.1552  2.7125
 8387TIP3    H246653   1.687   4.899  13.391  0.7647  1.6613 -0.3767
 8388TIP3   OH246654   5.333   6.065  13.541 -0.4512  0.3055 -0.0005
 8388TIP3    H146655   5.386   6.142  13.560 -0.4888  0.0534  1.1621
 8388TIP3    H246656   5.316   6.071  13.447 -0.0484  1.4535 -0.0192
 8389TIP3   OH246657   2.963   0.781  15.225  0.1468 -0.0679  0.0462
 8389TIP3    H146658   2.937   0.726  15.151  1.5559  1.9276 -2.0778
 8389TIP3    H246659   2.922   0.866  15.207 -1.8358 -0.2320  3.1454
 8390TIP3   OH246660   4.733   2.209   5.813 -0.0038 -0.1276 -0.0887
 8390TIP3    H146661   4.695   2.215   5.901  0.6652  0.3718  0.1714
 8390TIP3    H246662   4.815   2.161   5.826  0.5918  0.8130 -0.2751
 8391TIP3   OH246663   1.229   5.121   2.108 -1.4789  0.1088  0.4038
 8391TIP3    H146664   1.313   5.155   2.075 -1.5705 -1.0216 -1.1060
 8391TIP3    H246665   1.176   5.112   2.029 -2.2037 -1.4332  1.0416
 8392TIP3   OH246666   6.155   4.963   0.301  0.2166  0.5362 -0.1675
 8392TIP3    H146667   6.100   5.025   0.350  0.7308  1.8816 -1.2308
 8392TIP3    H246668   6.225   4.940   0.362  0.0410  1.0207  0.2275
 8393TIP3   OH246669   2.165   0.937   5.801  0.6614  0.5912  0.0641
 8393TIP3    H146670   2.154   0.963   5.893 -2.4042  1.5837 -0.4596
 8393TIP3    H246671   2.162   1.020   5.753  2.8143  0.1338 -0.9498
 8394TIP3   OH246672   1.869   0.283  15.193  0.0776 -0.2499 -0.1618
 8394TIP3    H146673   1.875   0.260  15.286 -1.2743  1.4715  0.4060
 8394TIP3    H246674   1.846   0.201  15.150 -0.9189 -0.7644  1.2593
 8395TIP3   OH246675   2.078   2.568  16.120 -0.2934  0.1496  0.5155
 8395TIP3    H146676   2.018   2.505  16.080 -0.7486 -0.0558  1.4954
 8395TIP3    H246677   2.134   2.597  16.047 -0.9944 -0.3198 -0.2289
 8396TIP3   OH246678   0.901   5.268  15.547  0.5839 -0.2915  0.8770
 8396TIP3    H146679   0.978   5.250  15.494  0.0402  1.5360 -0.6546
 8396TIP3    H246680   0.830   5.223  15.501  0.1997  0.8631  0.2987
 8397TIP3   OH246681   3.612   2.568   4.378  0.1090  0.1110  0.2484
 8397TIP3    H146682   3.586   2.660   4.373  0.4983  0.3092  1.4952
 8397TIP3    H246683   3.666   2.554   4.300 -0.7879  0.6576 -0.4824
 8398TIP3   OH246684   0.277   0.620  13.865 -0.0177 -0.2671 -0.3072
 8398TIP3    H146685   0.336   0.607  13.791  1.9569 -0.5157  1.2112
 8398TIP3    H246686   0.225   0.697  13.842 -0.6758 -1.3439 -2.6442
 8399TIP3   OH246687   2.621   6.596  12.715  0.1940  0.6083  0.2483
 8399TIP3    H146688   2.660   6.526  12.663 -1.9160 -0.0697 -0.5233
 8399TIP3    H246689   2.654   6.580  12.804  1.0713 -0.3536 -0.2265
 8400TIP3   OH246690   2.588   3.422   0.472  0.4207  0.3610  0.0543
 8400TIP3    H146691   2.621   3.333   0.476 -0.3151  0.1234  1.7086
 8400TIP3    H246692   2.519   3.419   0.405 -0.4019 -0.6224  0.9063
 8401TIP3   OH246693   2.220   1.889  16.642  0.2250 -0.2060 -0.1534
 8401TIP3    H146694   2.316   1.888  16.646  0.2509  0.0432 -0.6177
 8401TIP3    H246695   2.192   1.834  16.715  0.7375 -1.4454 -0.8597
 8402TIP3   OH246696   4.565   0.738  14.412 -0.0387  0.0361  0.1316
 8402TIP3    H146697   4.530   0.784  14.335 -1.3765 -0.8062  0.1843
 8402TIP3    H246698   4.660   0.744  14.403 -0.1778  1.0976 -0.8785
 8403TIP3   OH246699   5.996   3.578  12.624 -0.2377 -0.3258 -0.0116
 8403TIP3    H146700   6.077   3.630  12.632 -0.8819  0.8104 -0.5745
 8403TIP3    H246701   6.010   3.524  12.546 -0.9536  1.6907 -1.6156
 8404TIP3   OH246702   3.219   2.723   4.041  0.4227  0.1132  0.1731
 8404TIP3    H146703   3.226   2.649   3.981 -0.3698  0.7515 -0.7346
 8404TIP3    H246704   3.156   2.694   4.107  1.4911 -0.6873  0.8802
 8405TIP3   OH246705   0.769   1.036  15.368 -0.0041 -0.0089 -0.0131
 8405TIP3    H146706   0.691   0.980  15.361 -0.2253  0.2786  0.1333
 8405TIP3    H246707   0.815   1.003  15.444  0.1386 -0.3287 -0.2347
 8406TIP3   OH246708   0.037   3.404  16.463  0.5130 -0.0721 -0.0313
 8406TIP3    H146709   0.078   3.487  16.437  1.8643 -0.3614  1.0203
 8406TIP3    H246710  -0.015   3.427  16.540  1.5655 -0.3261  0.7746
 8407TIP3   OH246711   3.766   1.300   1.514 -0.2218 -0.2880 -0.2987
 8407TIP3    H146712   3.730   1.231   1.569  0.2177  0.6096  1.1790
 8407TIP3    H246713   3.691   1.355   1.493 -1.0902 -2.4583 -3.5890
 8408TIP3   OH246714   3.725   2.015   4.618  0.3933  0.6525 -0.0242
 8408TIP3    H146715   3.691   2.088   4.670  0.3252 -0.3512  1.3989
 8408TIP3    H246716   3.728   1.942   4.679  3.1281  0.1580 -0.6417
 8409TIP3   OH246717   1.730   6.131  16.181  0.4484  0.5315  0.2075
 8409TIP3    H146718   1.727   6.161  16.090 -1.2320  0.2035  0.1129
 8409TIP3    H246719   1.751   6.037  16.174  1.5117  0.7532  0.2510
 8410TIP3   OH246720   0.875   1.800  13.703 -0.4466 -0.1948 -0.0899
 8410TIP3    H146721   0.955   1.781  13.753 -0.1024 -2.1760 -1.2506
 8410TIP3    H246722   0.907   1.842  13.623 -0.6106 -0.3535 -0.2408
 8411TIP3   OH246723   5.613   4.616  14.897  0.0576  0.2478  0.1362
 8411TIP3    H146724   5.597   4.707  14.873  0.8777  0.4583  0.3616
 8411TIP3    H246725   5.705   4.613  14.922 -0.1405 -0.4982  0.8204
 8412TIP3   OH246726   0.815   4.928  17.015  0.2746  0.2345  0.7995
 8412TIP3    H146727   0.784   4.998  16.957 -1.0962 -0.0073  1.1966
 8412TIP3    H246728   0.906   4.951  17.035  0.0109  1.6198  0.4954
 8413TIP3   OH246729   5.753   0.468   0.855  0.0368  0.1482 -0.1639
 8413TIP3    H146730   5.718   0.508   0.935  0.7401  0.4831 -0.0200
 8413TIP3    H246731   5.686   0.484   0.789 -1.2138 -1.3374  0.6589
 8414TIP3   OH246732   5.742   3.196  11.436 -0.2486 -0.5863 -0.2207
 8414TIP3    H146733   5.757   3.268  11.376  0.1994  0.0104  0.5812
 8414TIP3    H246734   5.672   3.226  11.493  0.3725 -0.5123  0.5229
 8415TIP3   OH246735   5.277   5.215  15.365 -0.5324 -0.1017 -0.1227
 8415TIP3    H146736   5.339   5.255  15.304 -1.5422  0.2057 -1.0006
 8415TIP3    H246737   5.199   5.271  15.359 -0.7547 -0.2253  1.2679
 8416TIP3   OH246738   5.267   0.716  16.293 -0.2549 -0.1056  0.6291
 8416TIP3    H146739   5.305   0.735  16.207 -1.2162  0.9341  0.4062
 8416TIP3    H246740   5.175   0.744  16.285 -1.1090 -2.5231  1.1381
 8417TIP3   OH246741   1.765   5.333  11.177 -0.3607  0.8037  0.3881
 8417TIP3    H146742   1.730   5.289  11.099 -1.7034  1.4746  0.5818
 8417TIP3    H246743   1.848   5.371  11.148  0.0574 -0.5018 -0.2002
 8418TIP3   OH246744   0.433   3.073  14.095  0.4332  0.1648  0.3331
 8418TIP3    H146745   0.484   2.993  14.086 -0.3547 -0.3339  0.1686
 8418TIP3    H246746   0.430   3.088  14.190 -1.2928 -1.2950  0.5864
 8419TIP3   OH246747   2.503   4.266   5.775 -0.0292 -0.6992 -0.1795
 8419TIP3    H146748   2.483   4.346   5.823 -2.8039  0.0629 -2.3422
 8419TIP3    H246749   2.470   4.195   5.831 -0.2618 -0.1137  0.4375
 8420TIP3   OH246750   4.623   2.473  16.936 -0.4450 -0.3825 -0.7930
 8420TIP3    H146751   4.551   2.536  16.931  1.5154  2.0822 -0.2480
 8420TIP3    H246752   4.624   2.432  16.850 -0.6104  1.8087 -1.9119
 8421TIP3   OH246753   2.730   5.506  10.452 -0.2199 -0.0569  0.2849
 8421TIP3    H146754   2.721   5.600  10.436  1.4063  0.2596  1.0217
 8421TIP3    H246755   2.811   5.498  10.503 -0.0999 -1.8938 -0.1169
 8422TIP3   OH246756   0.676   2.999  13.618 -0.0522 -0.2941  0.1189
 8422TIP3    H146757   0.623   3.058  13.565 -2.9662 -0.6320  2.4499
 8422TIP3    H246758   0.741   3.056  13.660  0.7107  0.3180 -1.7565
 8423TIP3   OH246759   5.606   3.836  13.772  1.0783  0.4877 -0.5253
 8423TIP3    H146760   5.648   3.840  13.858  1.1117 -0.1996 -0.5091
 8423TIP3    H246761   5.571   3.747  13.766 -0.4401  1.0544 -0.5102
 8424TIP3   OH246762   3.241   4.174  10.760 -0.0440  0.1525 -0.0107
 8424TIP3    H146763   3.279   4.260  10.746 -0.4660  0.3494  0.0384
 8424TIP3    H246764   3.222   4.141  10.672 -0.4335  0.3620 -0.0074
 8425TIP3   OH246765   2.680   0.339   2.181 -0.2140 -0.4766 -0.1438
 8425TIP3    H146766   2.701   0.265   2.123  2.2337  1.1629 -1.5197
 8425TIP3    H246767   2.633   0.401   2.125 -1.7516 -0.6938  0.8554
 8426TIP3   OH246768   5.617   5.131   5.033  0.2399  0.0637  0.3428
 8426TIP3    H146769   5.663   5.070   4.975 -0.7409 -0.8669  0.5037
 8426TIP3    H246770   5.678   5.146   5.105 -0.1749 -2.2970  1.2998
 8427TIP3   OH246771   4.233   2.815   0.691  0.1747  0.4573 -0.7216
 8427TIP3    H146772   4.154   2.868   0.701  0.2747  0.6160 -0.7707
 8427TIP3    H246773   4.261   2.798   0.781 -1.3650 -1.8025 -0.5911
 8428TIP3   OH246774   1.786   4.907   0.475  0.1416 -0.6245 -0.0379
 8428TIP3    H146775   1.782   4.888   0.381  0.5110  0.2343 -0.2441
 8428TIP3    H246776   1.720   4.976   0.488 -0.2991 -1.1232  0.4452
 8429TIP3   OH246777   2.933   6.433  15.435 -0.7113 -0.3711 -0.4415
 8429TIP3    H146778   3.001   6.463  15.374  0.5869 -0.7996  0.7296
 8429TIP3    H246779   2.882   6.511  15.455  0.3029  0.2650 -0.2931
 8430TIP3   OH246780   1.648   5.467  11.510 -0.2623  0.4431 -0.1694
 8430TIP3    H146781   1.667   5.375  11.493  0.5849  0.2682  1.4930
 8430TIP3    H246782   1.557   5.467  11.542  0.0542  0.0181  0.7859
 8431TIP3   OH246783   3.842   0.662   0.679 -0.2799  0.2269 -0.5622
 8431TIP3    H146784   3.886   0.721   0.617 -1.6584  0.0461 -1.7681
 8431TIP3    H246785   3.830   0.715   0.758 -0.1696  1.0884 -1.1023
 8432TIP3   OH246786   5.801   1.929  12.800 -0.5231 -0.0253 -0.0679
 8432TIP3    H146787   5.871   1.955  12.739  0.1035  1.3790  1.1777
 8432TIP3    H246788   5.821   1.838  12.821  0.4505  0.0927 -0.4006
 8433TIP3   OH246789   0.585   1.818   4.547 -0.1045  0.0347  0.2080
 8433TIP3    H146790   0.583   1.896   4.602 -1.0415  1.0379 -1.2099
 8433TIP3    H246791   0.545   1.750   4.602 -1.1287  1.0323  0.7428
 8434TIP3   OH246792   6.441   4.603   1.604 -0.0761 -0.8578 -0.1429
 8434TIP3    H146793   6.352   4.617   1.570 -0.3519 -0.5677  0.6860
 8434TIP3    H246794   6.440   4.512   1.635  0.3291 -1.2921 -1.3275
 8435TIP3   OH246795   1.570   3.915   5.450  0.5287  0.3535 -0.0375
 8435TIP3    H146796   1.639   3.980   5.435 -1.4153  2.9417  1.3753
 8435TIP3    H246797   1.575   3.896   5.544 -1.0487  1.1189  0.2373
 8436TIP3   OH246798   2.041   1.187  11.650 -0.3176 -0.1902  0.6176
 8436TIP3    H146799   2.077   1.126  11.585 -0.9534  1.3753 -1.3023
 8436TIP3    H246800   2.078   1.272  11.625 -3.3023  1.0637  0.0897
 8437TIP3   OH246801   1.461   3.440  12.400 -0.4145  0.0099 -0.0136
 8437TIP3    H146802   1.531   3.378  12.378  1.4453  1.7725  0.6451
 8437TIP3    H246803   1.505   3.524  12.406 -2.2775  0.9220  2.3021
 8438TIP3   OH246804   2.280   2.889  14.544  0.0307 -0.6475  0.8856
 8438TIP3    H146805   2.201   2.836  14.554 -1.6316  1.7620  1.3126
 8438TIP3    H246806   2.317   2.893  14.632 -0.3865 -0.2965  1.0458
 8439TIP3   OH246807   4.606   6.332   4.938  0.3948  0.1405  0.2967
 8439TIP3    H146808   4.611   6.328   5.034 -1.1231 -2.6979  0.3660
 8439TIP3    H246809   4.540   6.399   4.920  0.1977  0.2243  1.2718
 8440TIP3   OH246810   5.154   5.598  11.326  0.6754 -0.0205  0.9125
 8440TIP3    H146811   5.129   5.655  11.399 -1.5613  0.2710 -0.0211
 8440TIP3    H246812   5.185   5.658  11.258  0.8813 -0.1423  0.8969
 8441TIP3   OH246813   0.634   5.894   2.349  0.2112  0.0207  0.2997
 8441TIP3    H146814   0.560   5.954   2.349  0.2485  0.0800 -0.2744
 8441TIP3    H246815   0.606   5.820   2.402 -0.9881 -0.8165 -1.3866
 8442TIP3   OH246816   3.848   1.253   0.599  0.1290 -0.0070  0.0427
 8442TIP3    H146817   3.853   1.158   0.596 -0.3544 -0.0183 -0.5347
 8442TIP3    H246818   3.769   1.272   0.649  0.3794  0.0985  0.4056
 8443TIP3   OH246819   2.993   6.642  14.820  0.7038  0.4174  0.4302
 8443TIP3    H146820   3.071   6.592  14.844  1.1286  1.3996  1.1886
 8443TIP3    H246821   3.002   6.724  14.869 -0.4784  0.8125  0.0082
 8444TIP3   OH246822   2.543   1.186   2.061  0.1212  0.1025 -0.4222
 8444TIP3    H146823   2.630   1.153   2.040  0.2472 -1.1233  1.7984
 8444TIP3    H246824   2.559   1.272   2.101  0.2858 -0.0869 -0.0865
 8445TIP3   OH246825   2.105   2.000  13.907 -0.2660 -0.0679 -0.6921
 8445TIP3    H146826   2.172   1.942  13.944 -0.5728  0.5873  1.0204
 8445TIP3    H246827   2.103   2.075  13.967 -2.7402 -0.2193 -0.4691
 8446TIP3   OH246828   2.232   3.930  12.203 -0.5551  0.6577  0.6235
 8446TIP3    H146829   2.222   3.971  12.289 -1.7137 -1.8586  1.7838
 8446TIP3    H246830   2.290   3.990  12.155 -3.1445  4.3317  1.6087
 8447TIP3   OH246831   2.022   4.865   1.704  0.2030  0.3318  0.2270
 8447TIP3    H146832   1.959   4.816   1.757 -0.7186  1.1840 -0.0574
 8447TIP3    H246833   2.097   4.879   1.763  0.2525 -0.8847  0.4931
 8448TIP3   OH246834   0.444   1.386  17.180  0.4410  0.6284  0.7846
 8448TIP3    H146835   0.409   1.459  17.231 -2.7842 -0.3222  0.1994
 8448TIP3    H246836   0.428   1.411  17.089  1.0274 -0.0372  0.4904
 8449TIP3   OH246837   0.777   1.540   2.037 -0.0746 -0.0234  0.3194
 8449TIP3    H146838   0.865   1.507   2.058 -0.1941 -0.4361  0.1970
 8449TIP3    H246839   0.723   1.512   2.111  0.1722  1.4864  1.1038
 8450TIP3   OH246840   1.719   3.566  14.965  0.2834  0.2790 -0.6641
 8450TIP3    H146841   1.648   3.528  15.017 -1.4058  2.8572 -0.9247
 8450TIP3    H246842   1.796   3.562  15.022 -0.5832 -0.5475  0.4833
 8451TIP3   OH246843   0.731   0.809   4.899  0.4668  0.1155  0.2635
 8451TIP3    H146844   0.770   0.874   4.958  2.1656 -2.0088  1.6193
 8451TIP3    H246845   0.637   0.831   4.899  1.0551  3.0721 -0.0856
 8452TIP3   OH246846   4.689   6.468   4.531 -0.2173  0.3452  0.1802
 8452TIP3    H146847   4.607   6.498   4.570  0.3501  0.4120  1.3557
 8452TIP3    H246848   4.756   6.496   4.593  0.7580  0.8100 -1.0486
 8453TIP3   OH246849   5.358   1.977   2.394  0.4236 -0.6432 -0.2867
 8453TIP3    H146850   5.323   1.888   2.402  0.2070 -0.4074  1.9219
 8453TIP3    H246851   5.410   1.990   2.473  0.8903  1.0248 -0.8173
 8454TIP3   OH246852   2.846   6.787  11.459  0.2947 -0.6940 -0.3411
 8454TIP3    H146853   2.843   6.858  11.523 -0.2093 -0.7228 -0.3268
 8454TIP3    H246854   2.797   6.715  11.499  0.4754 -0.9169 -0.5133
 8455TIP3   OH246855   0.794   2.052  10.929  0.2590  0.1699 -0.0979
 8455TIP3    H146856   0.877   2.042  10.977  0.1350 -1.6986 -0.1739
 8455TIP3    H246857   0.741   2.109  10.984  1.1469  0.3655  0.5783
 8456TIP3   OH246858   4.599   3.151   4.782 -0.0078  0.5978  0.8295
 8456TIP3    H146859   4.509   3.130   4.805  0.1560  0.7844  1.6836
 8456TIP3    H246860   4.625   3.083   4.720 -1.3443  1.6190 -0.9390
 8457TIP3   OH246861   3.978   0.465   3.651  0.2653 -0.6090  0.0936
 8457TIP3    H146862   3.993   0.559   3.640  0.5581 -0.8785 -2.5199
 8457TIP3    H246863   3.884   0.457   3.668  0.2671  0.1582  0.4739
 8458TIP3   OH246864   2.541   0.948   6.666  0.2913 -0.5621 -0.3091
 8458TIP3    H146865   2.464   0.902   6.699  1.8840 -1.7219  2.0153
 8458TIP3    H246866   2.529   0.948   6.571 -2.1003 -1.5069 -0.0793
 8459TIP3   OH246867   1.583   2.779  13.151 -0.1224  0.6407 -0.4992
 8459TIP3    H146868   1.601   2.863  13.110 -1.6005  0.3459 -1.8501
 8459TIP3    H246869   1.522   2.801  13.223  0.1799  0.8179 -0.2949
 8460TIP3   OH246870   2.896   0.506   2.742  0.1049 -0.1834 -0.2345
 8460TIP3    H146871   2.952   0.441   2.699  0.9448  0.4678 -0.1467
 8460TIP3    H246872   2.808   0.487   2.709  0.7802  0.6823 -2.7897
 8461TIP3   OH246873   4.040   6.504  17.096 -0.2220  0.0881 -0.1372
 8461TIP3    H146874   4.098   6.447  17.147  0.8458  0.8443 -0.4738
 8461TIP3    H246875   4.009   6.448  17.024  0.3376 -0.2298 -0.1338
 8462TIP3   OH246876   1.120   6.775  13.465  0.0244  0.1670  0.2968
 8462TIP3    H146877   1.184   6.837  13.431  0.6449 -1.0343 -0.8305
 8462TIP3    H246878   1.111   6.797  13.558  1.2340  1.0612  0.2189
 8463TIP3   OH246879   4.460   2.424   0.858  0.5409 -0.1828  0.2369
 8463TIP3    H146880   4.467   2.458   0.769  0.3560  0.4952  0.4741
 8463TIP3    H246881   4.409   2.490   0.905 -0.8470 -1.3297  0.4335
 8464TIP3   OH246882   2.793   2.990  12.719  0.4739  0.4171  0.1608
 8464TIP3    H146883   2.799   2.975  12.625  1.8935  1.5105  0.0326
 8464TIP3    H246884   2.864   2.937  12.756 -0.4491 -0.4837  0.7142
 8465TIP3   OH246885   3.585   1.097  11.588 -0.2105  0.0024  0.3104
 8465TIP3    H146886   3.533   1.124  11.663  0.2683 -0.6580  0.8914
 8465TIP3    H246887   3.533   1.028  11.546  0.6362 -1.4060  1.4982
 8466TIP3   OH246888   0.429   6.326  15.010 -0.0897  0.6164  0.2047
 8466TIP3    H146889   0.512   6.368  15.035 -0.2454  0.6206  0.7206
 8466TIP3    H246890   0.447   6.288  14.924  0.7777 -0.2846  0.7611
 8467TIP3   OH246891   5.372   3.045  15.551 -0.6009  0.3180 -0.0883
 8467TIP3    H146892   5.386   3.007  15.638  0.7505 -2.2774 -1.2989
 8467TIP3    H246893   5.377   2.970  15.492  0.9450  2.2527 -2.6281
 8468TIP3   OH246894   5.771   6.498  15.594 -0.9647 -0.0978 -0.7545
 8468TIP3    H146895   5.696   6.448  15.561 -0.7997 -0.6413 -0.3324
 8468TIP3    H246896   5.838   6.490  15.526 -0.6766 -1.0890 -0.3738
 8469TIP3   OH246897   1.769   0.723   0.307  0.4699 -0.2246 -0.1652
 8469TIP3    H146898   1.765   0.678   0.392  1.1382 -0.3340 -0.1822
 8469TIP3    H246899   1.788   0.653   0.244  0.6574 -0.0452 -0.3104
 8470TIP3   OH246900   2.057   4.871  16.518  0.2525 -0.2791 -0.0952
 8470TIP3    H146901   2.090   4.958  16.538  0.6897 -0.7287  1.2794
 8470TIP3    H246902   1.977   4.887  16.467  0.9513  0.8753 -0.8794
 8471TIP3   OH246903   0.693   6.181  12.413 -0.1723  0.1647 -0.2008
 8471TIP3    H146904   0.612   6.220  12.445  0.0403  0.0286  0.5186
 8471TIP3    H246905   0.716   6.232  12.335 -1.3235 -0.2454 -0.8362
 8472TIP3   OH246906   5.627   5.061  12.301 -0.6040  0.3798 -0.5974
 8472TIP3    H146907   5.594   5.146  12.272 -1.6812  0.4775  0.7672
 8472TIP3    H246908   5.554   5.000  12.285 -0.7593  0.2082  0.6577
 8473TIP3   OH246909   1.411   5.685   4.294  0.2419  0.2293  0.4217
 8473TIP3    H146910   1.366   5.651   4.217  2.6748 -3.7538  0.4645
 8473TIP3    H246911   1.374   5.637   4.368 -0.5195  2.3872  1.5345
 8474TIP3   OH246912   5.433   0.126  14.642  0.3362  0.5507 -0.3056
 8474TIP3    H146913   5.445   0.161  14.554 -0.2513 -1.3688 -1.2145
 8474TIP3    H246914   5.384   0.045  14.628 -0.0515  0.3766  1.8340
 8475TIP3   OH246915   0.543   0.400  12.515  0.1563  0.0910 -0.1780
 8475TIP3    H146916   0.516   0.378  12.426  0.2680 -2.0744  0.2823
 8475TIP3    H246917   0.535   0.496  12.519 -1.7803  0.0725 -1.8677
 8476TIP3   OH246918   6.027   5.241  15.332  0.0506  0.2967  0.0135
 8476TIP3    H146919   6.116   5.273  15.320 -0.2766  1.9904  1.6942
 8476TIP3    H246920   5.972   5.308  15.293 -0.5356 -0.0499  0.2331
 8477TIP3   OH246921   2.417   0.437   4.731  0.2390  0.3502 -0.4655
 8477TIP3    H146922   2.439   0.346   4.711 -1.4929  0.3445 -2.7699
 8477TIP3    H246923   2.360   0.432   4.808  0.5324 -0.4620 -0.2971
 8478TIP3   OH246924   3.740   2.206  16.162  0.1533  0.4083  0.1492
 8478TIP3    H146925   3.810   2.199  16.227  0.5730  0.0222 -0.3362
 8478TIP3    H246926   3.779   2.255  16.089  0.0554 -0.1972 -0.3124
 8479TIP3   OH246927   0.458   3.060   0.654  0.3838 -0.0620 -0.3255
 8479TIP3    H146928   0.506   3.014   0.722  0.0208 -1.3638 -0.9104
 8479TIP3    H246929   0.385   3.001   0.632  0.0280  0.6951 -1.2482
 8480TIP3   OH246930   4.084   3.822  13.558 -0.1160 -0.2971 -0.3153
 8480TIP3    H146931   4.141   3.882  13.511  1.6316 -0.2249  1.7785
 8480TIP3    H246932   4.129   3.738  13.554 -0.2596 -0.4340  0.6524
 8481TIP3   OH246933   0.260   6.685   3.319  0.1178 -0.0634  0.1663
 8481TIP3    H146934   0.318   6.718   3.388  1.0479 -0.0150 -0.6181
 8481TIP3    H246935   0.270   6.590   3.323  1.7212  0.0039 -1.1645
 8482TIP3   OH246936   4.372   3.954   5.102  0.0800 -0.0255  0.2700
 8482TIP3    H146937   4.407   4.035   5.140 -0.0327  0.2473 -0.1896
 8482TIP3    H246938   4.442   3.890   5.111 -0.2094 -0.1785  1.5967
 8483TIP3   OH246939   4.578   6.619   5.222 -0.0681  0.8056 -0.4187
 8483TIP3    H146940   4.670   6.590   5.220 -0.0976  0.7240 -0.5722
 8483TIP3    H246941   4.550   6.616   5.131  0.0541  1.7372 -0.4981
 8484TIP3   OH246942   4.367   0.588   6.562 -0.4336  0.0312  0.0268
 8484TIP3    H146943   4.289   0.551   6.603 -0.6354 -0.3407 -0.6746
 8484TIP3    H246944   4.432   0.517   6.566 -0.4193  0.0322 -0.1920
 8485TIP3   OH246945   0.660   3.513   3.355  0.4391  0.4452  0.2824
 8485TIP3    H146946   0.632   3.560   3.434  0.2668 -0.1922  0.6128
 8485TIP3    H246947   0.715   3.575   3.308 -0.4530  1.2691  0.2905
 8486TIP3   OH246948   4.447   4.193   3.788 -0.3041 -0.0311  0.0578
 8486TIP3    H146949   4.398   4.207   3.707 -3.0787 -0.6379  1.5313
 8486TIP3    H246950   4.484   4.279   3.809 -2.3143  0.9480 -0.1741
 8487TIP3   OH246951   5.174   6.823  10.571 -0.1233 -0.0455  0.1948
 8487TIP3    H146952   5.124   6.904  10.569 -0.1499 -0.0823 -1.2930
 8487TIP3    H246953   5.118   6.758  10.528  1.6229  0.2087 -2.7112
 8488TIP3   OH246954   5.665   2.878   0.866  0.2004  0.4283 -0.0172
 8488TIP3    H146955   5.692   2.845   0.952 -1.1499 -0.7752 -0.0197
 8488TIP3    H246956   5.571   2.896   0.876  0.2861  1.4468 -0.9022
 8489TIP3   OH246957   1.074   3.304  11.989  0.1708 -0.2529  0.4776
 8489TIP3    H146958   1.113   3.255  12.061 -0.0164 -1.7771 -0.4138
 8489TIP3    H246959   0.983   3.273  11.985  0.1543 -0.1244 -0.3471
 8490TIP3   OH246960   5.475   1.454   5.781 -0.3605 -0.6971  0.8384
 8490TIP3    H146961   5.533   1.458   5.704 -1.1878 -0.2713  0.2201
 8490TIP3    H246962   5.439   1.365   5.778 -1.2079 -0.3466  0.0995
 8491TIP3   OH246963   0.195   3.748   4.197 -0.0020 -0.0850  0.4324
 8491TIP3    H146964   0.111   3.725   4.157 -0.2175 -2.2387  1.9166
 8491TIP3    H246965   0.219   3.831   4.157 -1.9988 -0.2544 -1.2987
 8492TIP3   OH246966   1.856   2.626  11.509 -0.1233  0.4363 -0.0084
 8492TIP3    H146967   1.817   2.657  11.428 -0.0883 -0.2725 -0.3088
 8492TIP3    H246968   1.906   2.700  11.543  0.4105  0.5336 -0.9844
 8493TIP3   OH246969   2.594   2.958  14.543  0.2179 -0.0389 -0.7542
 8493TIP3    H146970   2.545   2.978  14.463  0.0739  0.1319 -0.6233
 8493TIP3    H246971   2.582   3.035  14.598 -0.6814 -0.6459 -0.0803
 8494TIP3   OH246972   2.640   2.382  15.061  0.1948  0.0315  0.1630
 8494TIP3    H146973   2.550   2.376  15.091 -0.1659  0.8649 -0.6896
 8494TIP3    H246974   2.639   2.453  14.997  1.8228  1.3417  1.5103
 8495TIP3   OH246975   5.870   6.043  15.496  0.1690  0.1540 -0.5561
 8495TIP3    H146976   5.834   6.082  15.576  1.5435  0.2047  0.0628
 8495TIP3    H246977   5.861   5.949  15.509  1.5138  0.1060  0.2467
 8496TIP3   OH246978   2.377   3.354   5.154  0.5508 -0.2758 -0.2447
 8496TIP3    H146979   2.415   3.437   5.183  0.1320 -0.3004  0.3850
 8496TIP3    H246980   2.285   3.358   5.181  0.2354 -0.4529 -1.2650
 8497TIP3   OH246981   1.050   4.556  11.900 -0.5508  0.1654 -0.2056
 8497TIP3    H146982   1.050   4.619  11.972  2.2628  1.9373 -1.5949
 8497TIP3    H246983   1.138   4.519  11.900 -1.2366 -1.6167 -1.2989
 8498TIP3   OH246984   0.318   4.902  11.155 -0.2534  0.6510 -0.0332
 8498TIP3    H146985   0.408   4.891  11.124  0.3142  1.5686  1.1853
 8498TIP3    H246986   0.268   4.838  11.105  1.0428  0.2189 -0.8547
 8499TIP3   OH246987   2.861   4.485   1.329  0.2203 -0.0299  0.1014
 8499TIP3    H146988   2.952   4.470   1.356  0.4245  1.5195  0.3648
 8499TIP3    H246989   2.854   4.580   1.321 -1.0846 -0.1878 -0.9879
 8500TIP3   OH246990   4.620   6.306   6.553  0.0998 -0.7373  0.3833
 8500TIP3    H146991   4.614   6.260   6.469 -2.5385 -2.5023  1.4072
 8500TIP3    H246992   4.529   6.318   6.580  0.8729  0.2890  2.7323
 8501TIP3   OH246993   4.124   2.553   0.321 -0.3472  0.0954  0.3929
 8501TIP3    H146994   4.196   2.602   0.361 -0.7821  0.5236  0.6644
 8501TIP3    H246995   4.133   2.571   0.227 -0.0392  0.0609  0.4137
 8502TIP3   OH246996   4.234   4.008  12.396  0.1606 -0.1109  0.0171
 8502TIP3    H146997   4.256   4.079  12.457  1.1746 -1.8066  1.7057
 8502TIP3    H246998   4.272   4.036  12.313  0.3775  1.4062  0.5867
 8503TIP3   OH246999   2.023   4.039   5.510  0.4304 -0.2649 -0.3731
 8503TIP3    H147000   1.966   3.977   5.554 -0.9552 -1.3399 -3.3822
 8503TIP3    H247001   1.984   4.050   5.423  3.4928  0.8460 -1.7734
 8504TIP3   OH247002   5.510   2.964   4.513  0.2060 -0.0634  0.7347
 8504TIP3    H147003   5.541   2.970   4.603  0.8206 -0.4663  0.5618
 8504TIP3    H247004   5.563   3.028   4.465 -0.5972  0.6431  0.7749
 8505TIP3   OH247005   0.550   1.281  14.243 -0.4132  0.1216 -0.1238
 8505TIP3    H147006   0.634   1.282  14.197  0.5805  0.9982  1.6208
 8505TIP3    H247007   0.522   1.372  14.245 -2.0634 -0.2756 -1.7042
 8506TIP3   OH247008   5.249   3.528  12.940 -0.1618  0.4774  0.4853
 8506TIP3    H147009   5.327   3.487  12.977  0.8472  1.5514 -0.3785
 8506TIP3    H247010   5.245   3.614  12.982  0.0680  1.0622 -0.6548
 8507TIP3   OH247011   6.688   5.000   5.076  0.0613  0.5942 -0.1323
 8507TIP3    H147012   6.732   4.916   5.067 -0.4717  0.4596 -1.6210
 8507TIP3    H247013   6.645   4.995   5.161  1.3255  0.0017  0.5098
 8508TIP3   OH247014   5.241   4.250  12.236  0.0639 -0.3553  0.0099
 8508TIP3    H147015   5.190   4.230  12.314 -0.9950  1.8148 -0.0485
 8508TIP3    H247016   5.198   4.327  12.198  3.3959  1.6836 -0.0148
 8509TIP3   OH247017   3.087   3.253   0.228 -0.5691 -0.1015  0.3774
 8509TIP3    H147018   3.114   3.341   0.251 -1.5786  0.1145  0.7966
 8509TIP3    H247019   3.002   3.265   0.184  0.2839 -0.6795 -1.5626
 8510TIP3   OH247020   5.972   0.545   3.445 -0.3003  0.3116  0.0650
 8510TIP3    H147021   5.882   0.557   3.415 -0.4787 -0.0294  0.4645
 8510TIP3    H247022   5.995   0.628   3.486  0.1778  1.0451 -1.5767
 8511TIP3   OH247023   3.303   2.974  15.201  0.5105  0.7340  0.0781
 8511TIP3    H147024   3.265   3.021  15.276 -0.8012 -0.0216 -0.0716
 8511TIP3    H247025   3.308   2.883  15.230  0.8474  0.5856 -0.4449
 8512TIP3   OH247026   3.464   1.720   2.739  0.0415  0.3666 -0.1455
 8512TIP3    H147027   3.478   1.626   2.731  1.3616  0.4499  0.7826
 8512TIP3    H247028   3.552   1.758   2.735 -0.5064  1.6237 -1.0915
 8513TIP3   OH247029   2.638   6.186   0.176  0.1352  0.1363  0.3514
 8513TIP3    H147030   2.598   6.150   0.255 -0.9543 -0.7307 -0.5523
 8513TIP3    H247031   2.730   6.161   0.182 -0.2218 -1.1626  0.6891
 8514TIP3   OH247032   0.284   5.593  16.824 -0.2364 -0.4266 -0.8523
 8514TIP3    H147033   0.244   5.583  16.737 -0.7381  0.8380 -0.7857
 8514TIP3    H247034   0.334   5.675  16.818  3.0701 -2.3101 -1.1653
 8515TIP3   OH247035   0.817   3.599   4.684  0.0722  0.3101  0.8348
 8515TIP3    H147036   0.827   3.639   4.597 -0.1832  1.2315  1.2073
 8515TIP3    H247037   0.857   3.513   4.676 -1.8446 -0.4979 -0.7994
 8516TIP3   OH247038   3.736   0.522  15.352 -0.6382 -0.0574  0.2933
 8516TIP3    H147039   3.670   0.482  15.409 -0.0930 -0.0850  0.9174
 8516TIP3    H247040   3.779   0.587  15.407 -1.0243  0.8898 -0.5014
 8517TIP3   OH247041   5.575   4.546   2.798  0.3424  0.6016 -0.1373
 8517TIP3    H147042   5.556   4.504   2.882  1.5513  0.2399 -0.0229
 8517TIP3    H247043   5.492   4.546   2.752  0.1037 -1.1100  0.2361
 8518TIP3   OH247044   6.242   3.611  15.773 -0.0767 -0.7927 -0.2340
 8518TIP3    H147045   6.272   3.691  15.816 -1.7680  0.8908 -1.9648
 8518TIP3    H247046   6.209   3.557  15.844  1.1064  0.0220  0.9962
 8519TIP3   OH247047   5.356   4.435   3.140 -0.9546  0.4205 -0.0990
 8519TIP3    H147048   5.336   4.505   3.078  1.5878 -0.1897 -1.7691
 8519TIP3    H247049   5.423   4.472   3.198 -1.8868  0.3437  1.0602
 8520TIP3   OH247050   0.695   0.188  15.689  0.2207 -0.5312 -0.0080
 8520TIP3    H147051   0.644   0.227  15.618  0.2577 -0.1227  0.1864
 8520TIP3    H247052   0.642   0.203  15.767  0.1035 -1.1223  0.0306
 8521TIP3   OH247053   4.503   2.199  12.142  0.3951  0.1293 -0.2430
 8521TIP3    H147054   4.566   2.143  12.187  1.0475  0.9261 -0.1438
 8521TIP3    H247055   4.529   2.195  12.050  0.8929  0.8348 -0.1376
 8522TIP3   OH247056   0.698   0.467   1.389  0.0902 -0.1359 -0.2780
 8522TIP3    H147057   0.714   0.373   1.388  1.4761  0.0696  0.5104
 8522TIP3    H247058   0.690   0.491   1.297  0.3594 -0.9321 -0.5141
 8523TIP3   OH247059   4.225   3.255  14.969 -0.2552 -0.3102 -0.3663
 8523TIP3    H147060   4.257   3.288  15.053 -1.3789  0.4266 -0.1983
 8523TIP3    H247061   4.131   3.243  14.982 -1.1537  3.0524 -2.4251
 8524TIP3   OH247062   4.438   1.872   4.383 -0.1831  0.2010 -0.0514
 8524TIP3    H147063   4.435   1.968   4.383  1.3504  0.3129 -1.9339
 8524TIP3    H247064   4.348   1.845   4.403 -0.6567  2.0223  0.4482
 8525TIP3   OH247065   5.277   1.607  11.942 -0.1396 -0.0395 -0.8590
 8525TIP3    H147066   5.341   1.541  11.970 -1.1621 -1.2486 -1.2688
 8525TIP3    H247067   5.316   1.690  11.969  0.0874 -0.9393  1.9579
 8526TIP3   OH247068   2.852   5.268   2.536  0.0211 -0.2978 -0.0756
 8526TIP3    H147069   2.922   5.245   2.598  1.1949 -0.9766 -1.5960
 8526TIP3    H247070   2.795   5.192   2.534 -0.6365  0.1501  0.9637
 8527TIP3   OH247071   2.526   4.143  16.774 -0.2666 -0.2416  0.3332
 8527TIP3    H147072   2.487   4.136  16.687  1.4086  0.2921 -0.5059
 8527TIP3    H247073   2.616   4.170  16.758  0.5740 -1.7079  2.1466
 8528TIP3   OH247074   2.901   3.109  14.096  0.1886  0.8363 -0.1569
 8528TIP3    H147075   2.814   3.147  14.109 -0.4623 -0.2744 -1.1649
 8528TIP3    H247076   2.885   3.023  14.058  1.7374  0.6248 -0.3960
 8529TIP3   OH247077   4.642   3.277  12.174  0.5589  0.1165 -0.5584
 8529TIP3    H147078   4.729   3.297  12.208  0.2759  0.4443 -0.0111
 8529TIP3    H247079   4.656   3.205  12.113  1.0685 -0.5971  0.3647
 8530TIP3   OH247080   6.427   3.631   5.126 -0.2628 -0.1698 -0.0003
 8530TIP3    H147081   6.479   3.707   5.100  0.9664 -1.2799 -0.9725
 8530TIP3    H247082   6.366   3.618   5.054 -1.1604  0.4646  0.6271
 8531TIP3   OH247083   2.570   0.933   6.388  0.1518  0.0004  0.4528
 8531TIP3    H147084   2.495   0.973   6.343  0.7068  0.1799 -0.3454
 8531TIP3    H247085   2.584   0.850   6.342 -0.3987 -0.6949  1.4909
 8532TIP3   OH247086   2.459   2.849   6.356 -0.3207  0.4075  0.5041
 8532TIP3    H147087   2.420   2.933   6.331  1.6786  1.6798  1.4014
 8532TIP3    H247088   2.393   2.808   6.412 -1.3096  1.4009  0.1119
 8533TIP3   OH247089   1.206   0.575  13.101 -0.6329  0.7076 -0.1241
 8533TIP3    H147090   1.215   0.604  13.192 -1.2448  1.9590 -0.4446
 8533TIP3    H247091   1.213   0.655  13.049  0.2884 -0.0633 -1.2279
 8534TIP3   OH247092   0.239   4.471  11.588 -0.5114  0.3467  0.2794
 8534TIP3    H147093   0.329   4.499  11.574 -0.8047  1.1381 -0.1190
 8534TIP3    H247094   0.193   4.501  11.509 -1.3189  0.8900  0.9429
 8535TIP3   OH247095   5.267   1.588   5.898  0.2737  0.8851  0.3344
 8535TIP3    H147096   5.333   1.543   5.845 -1.2195  0.7666 -1.5500
 8535TIP3    H247097   5.184   1.547   5.872 -0.6341  1.5508  2.0464
 8536TIP3   OH247098   6.598   3.708  12.550  1.2625  0.4006  0.0082
 8536TIP3    H147099   6.631   3.764  12.621  0.5555  0.5737  0.2056
 8536TIP3    H247100   6.538   3.648  12.593 -0.8672  1.8936 -0.7113
 8537TIP3   OH247101   0.807   2.136   4.870  0.1362 -0.0545 -0.2424
 8537TIP3    H147102   0.810   2.042   4.855 -1.0206 -0.3126  0.9987
 8537TIP3    H247103   0.897   2.166   4.855  0.2670 -1.1311 -1.8453
 8538TIP3   OH247104   6.194   4.021  14.356  0.0360  0.1289  0.2412
 8538TIP3    H147105   6.185   3.952  14.290 -0.7670 -0.1708  0.6508
 8538TIP3    H247106   6.159   3.982  14.436 -0.5396  1.0584  0.4492
 8539TIP3   OH247107   2.994   1.402   4.167 -0.6710  0.4095  0.2652
 8539TIP3    H147108   2.999   1.494   4.140  1.7054 -0.9616 -5.3093
 8539TIP3    H247109   2.902   1.380   4.160 -0.7922  1.4675 -2.5143
 8540TIP3   OH247110   5.161   1.470  14.154  0.3776  0.1309  0.1025
 8540TIP3    H147111   5.173   1.437  14.065 -0.0998 -0.2610  0.1844
 8540TIP3    H247112   5.099   1.543  14.144 -1.0440 -1.0015  0.3227
 8541TIP3   OH247113   3.581   0.905  10.943  0.3782 -0.1669  0.1430
 8541TIP3    H147114   3.498   0.882  10.901  0.2760 -0.0859  0.2959
 8541TIP3    H247115   3.576   0.864  11.029  1.7570 -2.6774 -0.8976
 8542TIP3   OH247116   4.229   4.877  16.443 -0.3396 -0.0343 -0.2656
 8542TIP3    H147117   4.154   4.863  16.501 -0.4266 -1.3007 -0.6526
 8542TIP3    H247118   4.263   4.789  16.427  2.0126  0.5781  0.8913
 8543TIP3   OH247119   6.139   4.732   5.314 -0.1217 -0.1006  0.0318
 8543TIP3    H147120   6.143   4.674   5.239 -1.5582  0.9751 -0.9394
 8543TIP3    H247121   6.224   4.722   5.357  0.8359 -0.5680 -1.8594
 8544TIP3   OH247122   2.273   6.724  15.531  0.4108  0.3811 -0.1138
 8544TIP3    H147123   2.207   6.693  15.469  0.2902  0.0699  0.1658
 8544TIP3    H247124   2.239   6.808  15.562  0.5402  0.6063 -0.5734
 8545TIP3   OH247125   0.547   0.714  14.016 -0.3615 -0.5201 -0.0183
 8545TIP3    H147126   0.617   0.778  14.005  1.9945 -2.6103  1.8184
 8545TIP3    H247127   0.553   0.688  14.108 -1.8165 -2.7233 -0.4815
 8546TIP3   OH247128   4.091   0.113  12.784  0.3567 -0.0141  0.2918
 8546TIP3    H147129   4.151   0.039  12.774  1.7194  1.1191 -0.2527
 8546TIP3    H247130   4.014   0.088  12.733  1.6388 -0.2122 -1.6767
 8547TIP3   OH247131   4.866   3.880  15.649 -0.2376 -0.2756 -0.4559
 8547TIP3    H147132   4.931   3.870  15.579 -1.5535 -0.5174 -1.6804
 8547TIP3    H247133   4.911   3.848  15.728  1.1948 -0.2137 -1.2104
 8548TIP3   OH247134   6.275   1.725  13.728  0.4182 -0.3668 -0.1681
 8548TIP3    H147135   6.188   1.748  13.696  0.1938  0.0393  0.7173
 8548TIP3    H247136   6.325   1.706  13.649 -0.4380 -0.4889 -0.6946
 8549TIP3   OH247137   5.514   0.820  14.584  0.3097 -0.4029  0.0847
 8549TIP3    H147138   5.501   0.756  14.654  1.6671 -1.1701 -0.3309
 8549TIP3    H247139   5.593   0.791  14.539  0.3562  0.9724 -0.7900
 8550TIP3   OH247140   5.917   4.848  15.829  0.2233  0.3854  0.1613
 8550TIP3    H147141   5.859   4.907  15.877  0.1010  0.9526 -0.6651
 8550TIP3    H247142   5.872   4.832  15.746  0.9554  0.3304 -0.2345
 8551TIP3   OH247143   1.062   1.748  11.500 -0.4796  0.5162 -0.0067
 8551TIP3    H147144   0.974   1.773  11.529  0.5999  2.8408  1.5781
 8551TIP3    H247145   1.097   1.827  11.458  0.5006 -0.7120 -1.6416
 8552TIP3   OH247146   5.001   1.860   1.346  0.1643 -0.4891  0.1888
 8552TIP3    H147147   4.960   1.947   1.355  1.4290  0.1139  0.3088
 8552TIP3    H247148   5.026   1.855   1.254  0.8107 -0.3821  0.3540
 8553TIP3   OH247149   0.164   5.748  12.421  0.1488 -0.0834 -0.2056
 8553TIP3    H147150   0.076   5.709  12.423  0.2766 -0.4929 -1.6214
 8553TIP3    H247151   0.198   5.727  12.334  0.8714  1.8249 -0.4335
 8554TIP3   OH247152   0.537   0.605  14.261 -0.3071 -0.3430  0.6146
 8554TIP3    H147153   0.546   0.685  14.313 -0.9648  1.3450 -1.7072
 8554TIP3    H247154   0.443   0.589  14.258 -0.1687 -1.4001  1.2604
 8555TIP3   OH247155   1.749   1.176   3.117 -0.0360  0.1381 -0.9477
 8555TIP3    H147156   1.787   1.204   3.033  0.9423 -1.1861 -0.9891
 8555TIP3    H247157   1.825   1.155   3.171 -0.6770  0.3105  0.0420
 8556TIP3   OH247158   3.769   2.827  12.731  0.3626  0.1811  0.3934
 8556TIP3    H147159   3.764   2.874  12.648 -0.4443  2.1293  1.4809
 8556TIP3    H247160   3.710   2.753  12.721  0.7031  0.0752 -0.9418
 8557TIP3   OH247161   1.045   5.364  13.838 -0.0812 -0.8735  0.3605
 8557TIP3    H147162   0.955   5.379  13.868 -0.2262 -0.2498 -0.3597
 8557TIP3    H247163   1.076   5.291  13.892 -0.5425 -0.2039  1.5710
 8558TIP3   OH247164   5.839   1.004   0.706 -0.0890 -0.6386  0.2239
 8558TIP3    H147165   5.831   1.031   0.615 -1.1110  0.2603  0.5525
 8558TIP3    H247166   5.914   0.944   0.707 -0.5000 -1.2184 -1.3129
 8559TIP3   OH247167   1.429   1.047   0.492  0.2642 -0.3991  0.0410
 8559TIP3    H147168   1.429   1.125   0.548 -0.3756 -1.1186  1.0695
 8559TIP3    H247169   1.347   1.003   0.512  1.6992 -2.6760  1.3678
 8560TIP3   OH247170   0.499   2.239   1.228  0.1302 -0.2590 -0.1273
 8560TIP3    H147171   0.470   2.329   1.243 -0.4029 -0.4848  0.2179
 8560TIP3    H247172   0.595   2.245   1.232  0.2480  0.6936 -2.4683
 8561TIP3   OH247173   1.900   3.293  13.669  0.5145  0.1323  0.1726
 8561TIP3    H147174   1.899   3.350  13.746 -0.2906 -2.1945  1.9941
 8561TIP3    H247175   1.992   3.288  13.644  0.8370  0.6688  1.1701
 8562TIP3   OH247176   5.912   4.197   5.084  0.1045 -0.1621  0.8581
 8562TIP3    H147177   5.946   4.226   5.168 -1.8070  0.2671  1.5234
 8562TIP3    H247178   5.817   4.195   5.095 -0.1015 -2.1656 -0.6338
 8563TIP3   OH247179   2.948   0.024   1.609  0.1417 -0.2281 -0.0015
 8563TIP3    H147180   2.918  -0.046   1.668 -2.4913  1.4475  0.8063
 8563TIP3    H247181   2.931   0.105   1.656  0.0096  1.1191 -2.2127
 8564TIP3   OH247182   6.219   0.626   5.513 -0.1138  0.1864  0.2587
 8564TIP3    H147183   6.138   0.670   5.488  0.0175  1.8450  2.4610
 8564TIP3    H247184   6.191   0.540   5.544 -0.9010  0.3303 -0.0385
 8565TIP3   OH247185   5.766   0.979   5.814  0.2618  0.5218 -0.2890
 8565TIP3    H147186   5.810   0.973   5.729  0.3164 -2.1932 -0.1353
 8565TIP3    H247187   5.764   0.889   5.847 -0.1003  1.4287  2.4345
 8566TIP3   OH247188   4.706   1.228   0.145 -0.2975  0.3908 -0.0558
 8566TIP3    H147189   4.689   1.184   0.228 -0.6306  1.0933  0.2576
 8566TIP3    H247190   4.619   1.242   0.107 -0.1212 -0.5093 -0.8472
 8567TIP3   OH247191   2.331   2.535   4.621 -0.6539 -0.0222  0.1591
 8567TIP3    H147192   2.258   2.551   4.561  0.4685  0.3850 -1.1364
 8567TIP3    H247193   2.326   2.441   4.640 -1.2545 -0.0811 -0.2531
 8568TIP3   OH247194   1.419   5.209   3.831 -0.2882  0.4881  0.3514
 8568TIP3    H147195   1.452   5.223   3.919 -1.6189 -0.2854  0.9967
 8568TIP3    H247196   1.325   5.197   3.841 -0.2438 -1.3979 -0.9563
 8569TIP3   OH247197   6.839   1.515  16.605 -0.1631 -0.2202  0.0218
 8569TIP3    H147198   6.841   1.611  16.610  0.5342 -0.2161 -0.2181
 8569TIP3    H247199   6.768   1.496  16.544 -0.5392  0.1335  0.3484
 8570TIP3   OH247200   0.575   3.943   1.176 -0.0117 -0.0452  0.0836
 8570TIP3    H147201   0.513   4.013   1.196  2.5733  1.7250  2.7258
 8570TIP3    H247202   0.643   3.985   1.123  0.8694 -0.9210  0.4910
 8571TIP3   OH247203   3.452   0.551  16.184  0.3937  0.1681  0.2869
 8571TIP3    H147204   3.465   0.540  16.278  0.1968 -0.1275  0.2820
 8571TIP3    H247205   3.521   0.499  16.143  0.3105  0.0737  0.2669
 8572TIP3   OH247206   6.750   0.156   4.886 -0.0439  0.3163 -0.3901
 8572TIP3    H147207   6.754   0.237   4.938  1.0984  0.0085  0.0370
 8572TIP3    H247208   6.815   0.170   4.817 -1.0019  0.4061 -1.2962
 8573TIP3   OH247209   4.474   6.503  11.173  0.8353  0.3848  0.0128
 8573TIP3    H147210   4.409   6.494  11.243  1.3645 -0.7121  0.3818
 8573TIP3    H247211   4.430   6.554  11.105 -0.8972 -1.4877 -0.3340
 8574TIP3   OH247212   3.562   2.939   4.857 -0.2604 -0.1391  0.5600
 8574TIP3    H147213   3.514   2.896   4.928 -1.7780  0.8365  0.1688
 8574TIP3    H247214   3.504   3.009   4.827  0.5332 -0.2392 -1.3611
 8575TIP3   OH247215   5.204   1.394   3.897  0.2363  0.2658  0.3683
 8575TIP3    H147216   5.225   1.323   3.836 -0.3230 -0.3770  0.9089
 8575TIP3    H247217   5.120   1.369   3.935  0.8815  0.3359  1.8812
 8576TIP3   OH247218   3.041   3.150  10.452  0.0258  0.3419 -0.0460
 8576TIP3    H147219   2.955   3.110  10.433  0.4234 -0.1666 -0.8181
 8576TIP3    H247220   3.020   3.231  10.498 -0.9314  0.9442 -1.4884
 8577TIP3   OH247221   5.979   6.619  12.204 -0.3226 -0.3223 -0.2751
 8577TIP3    H147222   5.945   6.592  12.119 -0.5333  1.2087 -0.7119
 8577TIP3    H247223   6.064   6.658  12.185 -0.2463 -0.2299  0.2384
 8578TIP3   OH247224   0.682   2.091  13.878 -0.0590 -0.0616  0.2667
 8578TIP3    H147225   0.654   2.019  13.822  0.2968 -1.3865  1.7106
 8578TIP3    H247226   0.715   2.157  13.817 -1.1435 -0.7595 -1.1433
 8579TIP3   OH247227   0.476   4.240  14.090  0.1865 -0.2194 -0.2655
 8579TIP3    H147228   0.525   4.312  14.049  1.1345 -0.8712 -0.3125
 8579TIP3    H247229   0.450   4.185  14.017  1.6565 -1.2487 -0.0550
 8580TIP3   OH247230   1.324   5.309   1.315  0.0322  0.2330 -0.2263
 8580TIP3    H147231   1.275   5.380   1.357 -0.4140  0.5553 -1.2588
 8580TIP3    H247232   1.415   5.330   1.333 -0.1671  0.0187  1.1056
 8581TIP3   OH247233   5.666   5.634  16.553 -0.4235 -0.0954  0.0906
 8581TIP3    H147234   5.742   5.607  16.501 -0.8817 -0.8259 -0.2187
 8581TIP3    H247235   5.617   5.692  16.495 -1.3928 -1.5965 -0.6602
 8582TIP3   OH247236   2.687   4.474  14.898 -0.5378  0.0636  0.0014
 8582TIP3    H147237   2.638   4.518  14.968 -1.7316  1.2218 -1.4940
 8582TIP3    H247238   2.727   4.545  14.849 -0.2119 -0.6821 -0.8423
 8583TIP3   OH247239   1.551   6.285  14.962  0.0538 -0.0859  0.0904
 8583TIP3    H147240   1.581   6.376  14.957 -3.2628  1.0813 -2.0826
 8583TIP3    H247241   1.532   6.261  14.871 -1.7886 -1.9324  0.8757
 8584TIP3   OH247242   3.211   1.240   5.133  0.7550 -0.1781 -0.0021
 8584TIP3    H147243   3.277   1.244   5.064  0.0718  0.9788 -0.6293
 8584TIP3    H247244   3.146   1.306   5.108 -0.2748 -0.7770  0.9685
 8585TIP3   OH247245   5.278   1.765   3.576 -0.3484  0.4437 -0.1035
 8585TIP3    H147246   5.217   1.788   3.506 -1.4397 -0.9482  0.3544
 8585TIP3    H247247   5.281   1.669   3.574  1.0629  0.4524  0.5417
 8586TIP3   OH247248   5.356   1.103   6.196  0.0682 -0.1015 -0.2129
 8586TIP3    H147249   5.378   1.066   6.282 -0.3971 -1.3151 -0.5980
 8586TIP3    H247250   5.261   1.093   6.189  0.1859 -0.6926 -1.1552
 8587TIP3   OH247251   0.755   3.574   0.612 -0.4493 -0.5458  0.4360
 8587TIP3    H147252   0.795   3.612   0.533 -1.8263  2.3703  1.0427
 8587TIP3    H247253   0.824   3.580   0.679 -0.7926  1.4821  0.6542
 8588TIP3   OH247254   1.022   5.624  13.910  0.5546 -0.0928  0.2142
 8588TIP3    H147255   0.969   5.635  13.831 -0.6615 -2.0669  0.6835
 8588TIP3    H247256   1.039   5.530  13.914 -0.3479 -0.2195  2.8578
 8589TIP3   OH247257   6.792   4.897  10.708  0.0947 -0.1397 -0.1602
 8589TIP3    H147258   6.757   4.939  10.629 -0.4691  0.3336  0.3241
 8589TIP3    H247259   6.717   4.893  10.767  0.6782  0.1725  0.6197
 8590TIP3   OH247260   4.018   4.974   4.421 -0.4542  0.0975 -0.1724
 8590TIP3    H147261   4.042   5.056   4.464 -1.4186 -0.1322  0.8703
 8590TIP3    H247262   4.098   4.944   4.379  0.2341  0.9349  0.5099
 8591TIP3   OH247263   5.623   0.638   6.188 -0.2609  0.0119  0.2711
 8591TIP3    H147264   5.549   0.699   6.190  0.5378  1.1394 -1.4483
 8591TIP3    H247265   5.590   0.561   6.142 -0.5879  0.2121  0.1718
 8592TIP3   OH247266   3.258   6.843  12.951  0.0931  0.3172 -0.2274
 8592TIP3    H147267   3.239   6.810  12.864  0.9110 -0.4915 -0.1057
 8592TIP3    H247268   3.319   6.780  12.989  1.0395  1.5132  0.3266
 8593TIP3   OH247269   4.173   5.196  13.272 -0.5569 -0.0174  0.0409
 8593TIP3    H147270   4.129   5.271  13.312  0.0421  0.4418 -0.1393
 8593TIP3    H247271   4.233   5.234  13.208  0.4517 -0.5776  0.6164
 8594TIP3   OH247272   1.923   2.626  13.863  0.0342 -0.2067 -0.3081
 8594TIP3    H147273   1.897   2.566  13.933 -1.3094 -1.1051 -1.4882
 8594TIP3    H247274   1.845   2.680  13.849  1.4276  2.3010  1.1413
 8595TIP3   OH247275   5.204   0.351   1.844 -0.4244  0.1440  0.3368
 8595TIP3    H147276   5.135   0.326   1.782  0.4999 -0.1882 -0.5895
 8595TIP3    H247277   5.205   0.280   1.908  0.9662 -1.4019 -1.2705
 8596TIP3   OH247278   5.279   3.077  16.295 -0.1289 -0.0203  0.4734
 8596TIP3    H147279   5.353   3.020  16.271 -0.1282  0.7158 -1.5016
 8596TIP3    H247280   5.202   3.029  16.266 -0.5298 -0.9530  2.8667
 8597TIP3   OH247281   2.272   1.827  14.034 -0.2140 -0.3365 -0.0982
 8597TIP3    H147282   2.212   1.753  14.026  0.9291 -1.1114 -2.0079
 8597TIP3    H247283   2.339   1.796  14.095 -0.3880 -0.4095  0.0585
 8598TIP3   OH247284   1.401   4.585   4.151  0.1614  0.3714  0.0472
 8598TIP3    H147285   1.420   4.620   4.064  1.9402 -1.6525 -0.4851
 8598TIP3    H247286   1.487   4.569   4.190 -0.3536 -3.4825  0.0849
 8599TIP3   OH247287   2.520   6.400   6.350  0.1376  0.0720 -0.4867
 8599TIP3    H147288   2.434   6.403   6.393  0.5234 -0.3427  0.3367
 8599TIP3    H247289   2.570   6.470   6.392 -0.1303  1.0430 -1.7351
 8600TIP3   OH247290   0.670   5.976   0.775 -0.7104  0.2286 -0.3471
 8600TIP3    H147291   0.646   5.935   0.692 -0.6720 -2.5611  0.8750
 8600TIP3    H247292   0.590   5.970   0.828  0.5902 -3.1753  1.5677
 8601TIP3   OH247293   3.220   0.372  13.787 -0.4046 -0.2843  0.0001
 8601TIP3    H147294   3.283   0.314  13.830 -0.8907 -1.2125 -0.5293
 8601TIP3    H247295   3.136   0.350  13.826 -0.3771  1.2998  1.0696
 8602TIP3   OH247296   1.626   2.009  11.553  0.4565 -0.6795 -0.0833
 8602TIP3    H147297   1.636   1.929  11.605  1.9082 -1.0764 -0.9026
 8602TIP3    H247298   1.713   2.049  11.555  0.7203 -0.9688 -2.5489
 8603TIP3   OH247299   6.214   3.214  12.532 -0.2503 -0.5122  0.3274
 8603TIP3    H147300   6.227   3.238  12.624 -3.0983  1.4205  0.3476
 8603TIP3    H247301   6.297   3.175  12.505  0.4571 -1.7684  3.8707
 8604TIP3   OH247302   6.525   3.210   0.007  0.0981 -0.3093  0.3622
 8604TIP3    H147303   6.499   3.127   0.048 -0.3378  0.2987  1.3640
 8604TIP3    H247304   6.613   3.193  -0.028 -0.3364 -1.4428 -0.2252
 8605TIP3   OH247305   3.762   3.653   0.057  0.2531  0.1422 -0.0707
 8605TIP3    H147306   3.690   3.622   0.001  1.6514 -0.9228 -1.3742
 8605TIP3    H247307   3.719   3.702   0.127 -1.6655  0.3784 -1.3434
 8606TIP3   OH247308   1.928   0.047   2.111  0.2226 -0.3741 -0.0043
 8606TIP3    H147309   1.856   0.108   2.123 -0.1314 -0.8635  0.4075
 8606TIP3    H247310   2.004   0.090   2.149  0.3479  0.5087 -1.1928
 8607TIP3   OH247311   1.673   1.574  15.239 -0.8068  0.0225 -0.0518
 8607TIP3    H147312   1.655   1.649  15.183 -0.8802  0.3766  0.4347
 8607TIP3    H247313   1.589   1.531  15.251 -0.7409 -0.2202 -0.4419
 8608TIP3   OH247314   4.900   1.056   3.910  0.4802 -0.2343 -0.3181
 8608TIP3    H147315   4.902   1.145   3.874 -2.2674 -0.6273 -1.7492
 8608TIP3    H247316   4.865   1.067   3.998  0.8792  0.1686 -0.2084
 8609TIP3   OH247317   2.735   3.872  13.002 -0.7675  0.1846 -0.3678
 8609TIP3    H147318   2.656   3.889  13.054  1.0351  2.4691  1.8471
 8609TIP3    H247319   2.743   3.776  13.002 -2.0108  0.0094  1.8215
 8610TIP3   OH247320   4.440   0.723   2.527  0.5465  0.1291  0.6819
 8610TIP3    H147321   4.354   0.707   2.489  0.2547  0.4648  1.2007
 8610TIP3    H247322   4.501   0.713   2.454  0.0418  0.2013  0.2503
 8611TIP3   OH247323   2.057   3.644   1.673 -0.3813  0.7053 -0.0545
 8611TIP3    H147324   1.962   3.636   1.669 -0.3872 -0.5766  1.6348
 8611TIP3    H247325   2.073   3.701   1.748  0.1912  0.1684  0.2405
 8612TIP3   OH247326   4.073   5.916   2.651  0.8176 -0.5776 -0.0822
 8612TIP3    H147327   4.155   5.919   2.602  1.1978  0.0724  0.5809
 8612TIP3    H247328   4.087   5.975   2.725 -0.3733 -0.1733 -0.1569
 8613TIP3   OH247329   0.419   2.483   1.324  0.4708 -0.8661 -0.0483
 8613TIP3    H147330   0.426   2.454   1.415  0.5775 -0.6926 -0.0007
 8613TIP3    H247331   0.336   2.532   1.321  0.7915 -0.3071  0.1130
 8614TIP3   OH247332   5.125   1.479  12.489  0.1040  0.2065  0.5090
 8614TIP3    H147333   5.085   1.485  12.402 -2.0538 -2.0356  1.2153
 8614TIP3    H247334   5.216   1.456  12.472 -0.1458  0.3015 -1.1688
 8615TIP3   OH247335   2.962   1.329  15.950  0.3948 -0.7662  0.2226
 8615TIP3    H147336   2.934   1.266  15.884 -0.8160 -0.0936  0.0655
 8615TIP3    H247337   2.903   1.404  15.938  1.8309  0.4141  0.3772
 8616TIP3   OH247338   4.534   3.363  15.098 -0.7045  0.5472 -0.9248
 8616TIP3    H147339   4.490   3.296  15.150 -1.6201  1.0950 -0.9865
 8616TIP3    H247340   4.550   3.435  15.159  2.4978 -0.5871 -0.1943
 8617TIP3   OH247341   5.928   4.731  14.718  0.4523 -0.2545  0.5907
 8617TIP3    H147342   5.901   4.737  14.627  3.0021  0.5436 -0.2055
 8617TIP3    H247343   5.944   4.822  14.744  0.8299 -0.5537  1.4463
 8618TIP3   OH247344   3.009   2.804   3.618 -0.0964  0.4582 -0.1752
 8618TIP3    H147345   3.037   2.863   3.689  0.1086  0.7239 -0.4711
 8618TIP3    H247346   2.926   2.768   3.648  0.3173  0.0458  0.5015
 8619TIP3   OH247347   3.375   0.188  14.498  0.2033 -0.7869 -0.3769
 8619TIP3    H147348   3.369   0.244  14.421  0.3864  1.0304  0.8580
 8619TIP3    H247349   3.301   0.214  14.553 -0.0205 -2.1585  0.0060
 8620TIP3   OH247350   1.216   6.098   1.808  0.1347  0.5849 -0.0302
 8620TIP3    H147351   1.161   6.095   1.729 -1.4057 -0.3365  1.0069
 8620TIP3    H247352   1.302   6.126   1.777  0.1272 -1.6042 -2.3777
 8621TIP3   OH247353   4.007   4.549   4.939 -0.0263  0.3285  0.3171
 8621TIP3    H147354   4.064   4.560   4.862 -0.6539  2.0794  0.0471
 8621TIP3    H247355   4.045   4.606   5.006 -0.7278  0.5476  0.5457
 8622TIP3   OH247356   2.099   6.637  14.674 -0.0508 -0.3246  0.2417
 8622TIP3    H147357   2.144   6.720  14.663 -0.6598 -0.0530 -0.2412
 8622TIP3    H247358   2.169   6.573  14.687  0.4272  0.2292  0.4232
 8623TIP3   OH247359   5.596   3.600  16.053 -0.7383  0.3561  0.1252
 8623TIP3    H147360   5.646   3.570  16.129 -0.3570  1.6218  0.3889
 8623TIP3    H247361   5.659   3.598  15.981 -0.2778  1.9222  0.4506
 8624TIP3   OH247362   6.361   4.699  11.740  0.2185 -0.0830  0.0887
 8624TIP3    H147363   6.297   4.647  11.787  1.8825 -1.9086  0.4847
 8624TIP3    H247364   6.405   4.751  11.807 -0.5506  0.8974 -0.1361
 8625TIP3   OH247365   6.000   2.700  13.757 -0.8276 -0.2950  0.1601
 8625TIP3    H147366   5.963   2.732  13.839 -1.8638 -0.8993 -0.0652
 8625TIP3    H247367   5.925   2.669  13.707 -0.2439  0.3572 -1.1572
 8626TIP3   OH247368   2.003   5.421   0.771 -0.3719 -0.5688 -0.0072
 8626TIP3    H147369   2.002   5.481   0.846 -0.1562  0.2839 -0.6676
 8626TIP3    H247370   1.914   5.428   0.735  0.5082  1.8419 -1.9696
 8627TIP3   OH247371   4.151   3.906   0.024 -0.3577 -0.4217  0.3503
 8627TIP3    H147372   4.205   3.984   0.040 -0.9349  0.5636 -2.0039
 8627TIP3    H247373   4.081   3.912   0.089  0.7791 -0.1811  1.5953
 8628TIP3   OH247374   4.005   0.580   4.816 -0.3828  0.1547 -0.4949
 8628TIP3    H147375   4.010   0.541   4.729  1.2260  1.1653 -0.8973
 8628TIP3    H247376   4.085   0.550   4.860 -1.4579 -0.8414  0.8866
 8629TIP3   OH247377   0.107   5.706  11.176  0.3301  1.1176  0.5845
 8629TIP3    H147378   0.114   5.666  11.089 -0.2157 -0.1465  1.1055
 8629TIP3    H247379   0.094   5.633  11.236  0.2878  2.0025  1.6959
 8630TIP3   OH247380   4.546   3.673   3.059 -0.2960  0.2755  0.4554
 8630TIP3    H147381   4.499   3.599   3.022  2.5981 -0.4834 -2.1168
 8630TIP3    H247382   4.549   3.738   2.988  1.6719  0.6365  0.8053
 8631TIP3   OH247383   2.790   3.627   4.788 -0.1766 -0.5046  0.2081
 8631TIP3    H147384   2.723   3.680   4.745 -1.1004 -2.0000 -0.3046
 8631TIP3    H247385   2.790   3.545   4.739  0.2651 -1.4729  1.7474
 8632TIP3   OH247386   0.529   4.806   1.152  0.3078  0.3133  0.8108
 8632TIP3    H147387   0.466   4.860   1.104 -0.1851  0.4612  1.6036
 8632TIP3    H247388   0.611   4.818   1.105  0.1368  1.5212  0.7855
 8633TIP3   OH247389   4.098   3.384   2.421 -0.0234 -0.2118 -0.5258
 8633TIP3    H147390   4.024   3.442   2.438 -0.1910 -0.2865 -0.9998
 8633TIP3    H247391   4.070   3.330   2.347  0.3970 -0.4282 -0.5297
 8634TIP3   OH247392   0.996   5.611  14.578  0.6572 -0.4647 -0.2691
 8634TIP3    H147393   0.950   5.542  14.530 -0.1538  0.7673 -1.3430
 8634TIP3    H247394   1.025   5.569  14.659 -1.0318 -1.7094 -0.2558
 8635TIP3   OH247395   4.412   0.180  12.885  0.1207  0.1887  0.5386
 8635TIP3    H147396   4.386   0.121  12.814  0.2909 -0.4381  0.9936
 8635TIP3    H247397   4.410   0.126  12.964  2.2468  0.2310  0.6825
 8636TIP3   OH247398   1.873   4.729  12.206 -0.4485 -0.0147 -0.0399
 8636TIP3    H147399   1.902   4.639  12.192 -0.6168  0.1630 -1.7085
 8636TIP3    H247400   1.792   4.720  12.256  0.5354 -0.6614  1.5372
 8637TIP3   OH247401   0.331   4.649   2.660  0.1710  0.0786  1.4565
 8637TIP3    H147402   0.313   4.742   2.662  1.9866  0.6198 -1.2192
 8637TIP3    H247403   0.407   4.637   2.717  2.1578  0.9836 -0.8114
 8638TIP3   OH247404   3.381   3.396  13.090  0.0171 -0.3107 -0.4281
 8638TIP3    H147405   3.337   3.443  13.020  1.7261  0.8176 -0.7970
 8638TIP3    H247406   3.474   3.412  13.075  0.4307  0.0732  2.1744
 8639TIP3   OH247407   2.763   2.042  12.631 -0.1556  0.0550  0.1075
 8639TIP3    H147408   2.818   2.107  12.585 -1.9761  1.5489 -0.0644
 8639TIP3    H247409   2.825   1.975  12.660  1.3955  0.1522 -2.6081
 8640TIP3   OH247410   1.079   2.063   5.807 -0.2638 -0.3660  0.4431
 8640TIP3    H147411   1.094   2.156   5.789  0.0077 -0.6353 -0.8019
 8640TIP3    H247412   1.071   2.059   5.902 -0.1128  0.9063  0.5389
 8641TIP3   OH247413   3.187   0.058  14.265  0.3067 -0.3285 -0.1331
 8641TIP3    H147414   3.281   0.059  14.284 -0.0122  1.8191  1.6479
 8641TIP3    H247415   3.156  -0.026  14.299  1.3183 -0.3605  0.7500
 8642TIP3   OH247416   0.228   1.622  10.705  0.5895  0.1600 -0.0247
 8642TIP3    H147417   0.163   1.584  10.762 -0.8262  0.8345 -1.1261
 8642TIP3    H247418   0.296   1.654  10.764  0.2724 -1.1494  1.1036
 8643TIP3   OH247419   1.182   2.447  16.499  0.6927 -0.1735 -0.5128
 8643TIP3    H147420   1.275   2.441  16.519  0.5201 -1.3195  0.0638
 8643TIP3    H247421   1.153   2.355  16.497 -1.2212  0.1811  3.1709
 8644TIP3   OH247422   3.843   6.181   0.147 -0.0316 -0.3293 -0.5382
 8644TIP3    H147423   3.808   6.112   0.203  1.5127 -0.5287  0.2489
 8644TIP3    H247424   3.937   6.160   0.140  0.5295  1.7881 -0.0925
 8645TIP3   OH247425   0.018   6.661   4.793  0.8487 -0.0820 -0.0550
 8645TIP3    H147426   0.019   6.750   4.829 -0.3713  1.0421 -2.5315
 8645TIP3    H247427   0.050   6.672   4.703  1.1329 -2.2544 -0.2601
 8646TIP3   OH247428   3.357   4.687   5.995  0.3170 -0.2197  0.4746
 8646TIP3    H147429   3.356   4.673   6.090  1.2591 -1.0785  0.3672
 8646TIP3    H247430   3.425   4.753   5.981  0.5568 -0.4981  0.3394
 8647TIP3   OH247431   4.530   0.060  14.471 -0.6267  0.1931  0.5201
 8647TIP3    H147432   4.528   0.155  14.475 -0.9498  0.1911  0.4013
 8647TIP3    H247433   4.438   0.033  14.471 -0.5317 -0.1428  1.1148
 8648TIP3   OH247434   1.249   0.838   5.516  0.4562  0.0335  0.0555
 8648TIP3    H147435   1.163   0.866   5.548  0.2116  0.0685 -0.6070
 8648TIP3    H247436   1.262   0.751   5.553  0.1112  0.0103  0.1273
 8649TIP3   OH247437   4.145   2.705   3.250  0.0424 -0.6629  0.1401
 8649TIP3    H147438   4.149   2.706   3.155 -0.9391 -1.0699  0.0841
 8649TIP3    H247439   4.101   2.623   3.272 -1.1452  0.1281  0.8718
 8650TIP3   OH247440   6.577   4.096  11.016 -0.6613 -0.3797  0.2665
 8650TIP3    H147441   6.652   4.124  11.069 -1.5437 -0.9957  1.9150
 8650TIP3    H247442   6.582   4.151  10.938  0.7522  0.5144  0.9278
 8651TIP3   OH247443   1.778   1.819   4.012 -0.5277  0.2383 -0.5230
 8651TIP3    H147444   1.722   1.860   4.078 -1.2859  0.0373 -1.0369
 8651TIP3    H247445   1.867   1.830   4.047 -0.7780  1.5214 -0.2305
 8652TIP3   OH247446   5.618   0.948   4.914  0.4824  0.5857 -0.1941
 8652TIP3    H147447   5.607   0.972   5.006 -0.1619  0.7202 -0.2966
 8652TIP3    H247448   5.559   1.007   4.866  0.2733  0.0456 -0.6202
 8653TIP3   OH247449   5.924   0.896  14.203  0.1053 -0.7907 -0.1927
 8653TIP3    H147450   5.908   0.880  14.110 -0.0087  0.1769 -0.3588
 8653TIP3    H247451   5.926   0.992  14.210 -0.2864 -0.8442  0.8612
 8654TIP3   OH247452   0.197   1.377  14.456  0.4840  0.6679  0.0084
 8654TIP3    H147453   0.287   1.405  14.469  0.1324  1.1560  1.6175
 8654TIP3    H247454   0.193   1.290  14.495  0.2071  0.7394  0.1405
 8655TIP3   OH247455   3.403   5.892   1.352 -0.6674  0.8484  0.0196
 8655TIP3    H147456   3.324   5.839   1.336  1.6272 -2.7658 -0.4725
 8655TIP3    H247457   3.419   5.936   1.269 -0.9437 -0.2265 -0.6284
 8656TIP3   OH247458   5.222   3.773  15.845  0.0230 -0.3654  0.2627
 8656TIP3    H147459   5.233   3.686  15.805 -0.8236 -0.4471  0.1803
 8656TIP3    H247460   5.131   3.774  15.875 -0.2677  0.8460 -0.5964
 8657TIP3   OH247461   0.367   2.518   1.699  0.2329  0.2617 -0.5476
 8657TIP3    H147462   0.363   2.433   1.656 -0.0119  0.4458 -0.8894
 8657TIP3    H247463   0.417   2.573   1.639 -0.6136  0.6829 -0.8818
 8658TIP3   OH247464   1.443   0.463   0.487 -0.0529  0.5472 -0.6997
 8658TIP3    H147465   1.415   0.519   0.559 -1.5906 -2.4122  1.1862
 8658TIP3    H247466   1.385   0.487   0.414 -1.0370  1.0304  0.2189
 8659TIP3   OH247467   0.160   1.822   4.537  0.6818  0.0426  0.2094
 8659TIP3    H147468   0.154   1.911   4.569  0.3887  0.6866 -1.5006
 8659TIP3    H247469   0.238   1.786   4.580  0.1318  0.6995  1.8210
 8660TIP3   OH247470   5.833   3.744   2.542  0.0893  0.3416 -0.5163
 8660TIP3    H147471   5.828   3.650   2.522 -0.0350 -0.2393  1.9000
 8660TIP3    H247472   5.880   3.748   2.625 -0.4543  2.3818 -0.2549
 8661TIP3   OH247473   2.143   2.555  14.842  0.0766 -0.0350  0.5746
 8661TIP3    H147474   2.188   2.555  14.757  0.6650  1.3503  0.8519
 8661TIP3    H247475   2.052   2.534  14.821  0.6082 -1.9451 -0.1147
 8662TIP3   OH247476   4.172   5.112  16.747 -0.2003 -0.6184 -0.2086
 8662TIP3    H147477   4.241   5.085  16.806 -0.8464 -0.6647  0.5384
 8662TIP3    H247478   4.215   5.121  16.662  0.2149 -3.2055 -0.3333
 8663TIP3   OH247479   0.364   4.635   3.423 -0.0166 -0.1096 -0.1153
 8663TIP3    H147480   0.377   4.546   3.453  0.0730 -0.0534  0.0115
 8663TIP3    H247481   0.329   4.681   3.499  0.4026  0.0806 -0.0327
 8664TIP3   OH247482   1.868   2.910   0.855  0.0423 -0.1225  0.0348
 8664TIP3    H147483   1.883   2.991   0.806 -0.6261 -0.3213 -0.5241
 8664TIP3    H247484   1.775   2.915   0.879  0.5490  0.3936  2.0769
 8665TIP3   OH247485   5.333   4.055   0.623  0.1354 -0.2664 -0.7433
 8665TIP3    H147486   5.423   4.074   0.650  0.6372 -1.6101 -1.3779
 8665TIP3    H247487   5.280   4.119   0.669  1.4922  1.0660 -0.9751
 8666TIP3   OH247488   4.007   2.852   0.947  0.3125  0.3352  0.0717
 8666TIP3    H147489   3.979   2.909   1.020  0.4996  0.8059 -0.2185
 8666TIP3    H247490   4.046   2.776   0.990 -1.8437 -0.5968  0.5104
 8667TIP3   OH247491   2.379   3.195   3.215  0.0945  0.2698  0.1124
 8667TIP3    H147492   2.467   3.161   3.227 -0.1155 -0.3944 -0.2107
 8667TIP3    H247493   2.322   3.118   3.216 -0.3121  0.5178 -1.3206
 8668TIP3   OH247494   4.295   0.471  11.287 -0.3203  0.0471  0.5707
 8668TIP3    H147495   4.390   0.478  11.276 -0.0292 -1.5765  1.5988
 8668TIP3    H247496   4.269   0.555  11.325  0.6489  0.6097  0.0429
 8669TIP3   OH247497   5.842   2.593   5.426 -0.3568  0.1975 -0.2774
 8669TIP3    H147498   5.915   2.608   5.486 -0.7199 -2.5038  1.0257
 8669TIP3    H247499   5.862   2.508   5.385 -1.7692  0.3870 -1.4463
 8670TIP3   OH247500   1.795   5.181  16.535 -0.1559  0.5510 -0.4723
 8670TIP3    H147501   1.723   5.143  16.585 -0.5562  1.4203 -0.3557
 8670TIP3    H247502   1.850   5.224  16.600  1.4417 -1.5270 -0.3439
 8671TIP3   OH247503   6.163   2.358  13.864  0.2986  0.1586  0.4808
 8671TIP3    H147504   6.243   2.361  13.811 -1.0072  0.1517 -1.5644
 8671TIP3    H247505   6.114   2.435  13.838 -0.5930 -0.0943  1.3550
 8672TIP3   OH247506   2.402   0.276   0.269 -0.1899  0.2901  0.6196
 8672TIP3    H147507   2.466   0.273   0.341 -0.9901 -0.6969  1.3272
 8672TIP3    H247508   2.357   0.360   0.280 -0.7360 -0.1193  1.6941
 8673TIP3   OH247509   5.908   1.142   3.571 -0.1844 -0.1154 -0.0001
 8673TIP3    H147510   5.870   1.134   3.484  1.5275  0.3966 -0.8308
 8673TIP3    H247511   5.952   1.227   3.571  0.1616 -0.2657  1.2466
 8674TIP3   OH247512   0.279   0.233  16.633 -0.0336  0.8263  0.4569
 8674TIP3    H147513   0.287   0.301  16.700  2.1104 -1.5861  2.8847
 8674TIP3    H247514   0.367   0.225  16.596 -0.6080  0.3509 -0.8915
 8675TIP3   OH247515   3.273   4.509  16.497 -0.4137  0.5830  0.2929
 8675TIP3    H147516   3.217   4.454  16.443  0.5257 -2.0977  1.8894
 8675TIP3    H247517   3.362   4.491  16.467  0.1429 -1.0197  2.6216
 8676TIP3   OH247518   5.840   6.216   5.788 -0.1873 -0.2364  0.0169
 8676TIP3    H147519   5.811   6.295   5.833 -1.2049 -1.1040  0.9255
 8676TIP3    H247520   5.835   6.147   5.854  0.8195 -1.0493 -0.7161
 8677TIP3   OH247521   2.586   6.803  15.512  0.7024  0.0613  1.1758
 8677TIP3    H147522   2.539   6.844  15.439  1.9823  0.9775  0.8091
 8677TIP3    H247523   2.544   6.838  15.590 -1.8202 -2.2564  0.9794
 8678TIP3   OH247524   4.285   1.125  12.745 -0.2774  0.2723 -0.5685
 8678TIP3    H147525   4.221   1.196  12.739  0.1135  0.5846 -1.0935
 8678TIP3    H247526   4.284   1.085  12.658  3.0635  2.7501 -1.9284
 8679TIP3   OH247527   1.372   3.705   5.845 -0.5336  0.6816 -0.0331
 8679TIP3    H147528   1.351   3.642   5.914 -0.0760  0.5039 -0.0562
 8679TIP3    H247529   1.293   3.759   5.839 -0.6298  0.6198  0.5393
 8680TIP3   OH247530   5.900   2.800   3.013 -0.0035 -0.7027 -0.2179
 8680TIP3    H147531   5.962   2.873   3.023  1.1222 -1.7514  0.7948
 8680TIP3    H247532   5.814   2.842   3.006  0.7394  0.7653 -1.0471
 8681TIP3   OH247533   6.079   0.504   3.050  0.1462 -0.0977  0.3512
 8681TIP3    H147534   6.003   0.553   3.018 -0.3181  0.2902  1.9400
 8681TIP3    H247535   6.041   0.438   3.108  0.8974 -1.2620 -0.4416
 8682TIP3   OH247536   6.165   4.039   0.069  0.0051  0.2834  0.4632
 8682TIP3    H147537   6.098   3.977   0.040 -0.2377 -0.3491  2.2872
 8682TIP3    H247538   6.162   4.108   0.003  1.3593 -2.2720 -2.5715
 8683TIP3   OH247539   3.143   5.461   2.519  0.1379  0.4587  0.2050
 8683TIP3    H147540   3.091   5.389   2.556 -0.3930  0.4364 -0.5395
 8683TIP3    H247541   3.234   5.433   2.528 -0.0143  0.1507  0.8384
 8684TIP3   OH247542   3.088   0.691   1.689  0.4887 -0.9381 -0.2921
 8684TIP3    H147543   3.010   0.724   1.733  0.3894 -2.3786  0.6533
 8684TIP3    H247544   3.073   0.712   1.596  0.1001  0.9326  0.1348
 8685TIP3   OH247545   5.467   3.304   2.974 -0.0858  0.2130  0.2451
 8685TIP3    H147546   5.382   3.314   3.017 -0.9008  0.6769 -1.3841
 8685TIP3    H247547   5.458   3.353   2.892  2.1463  1.2602  0.5368
 8686TIP3   OH247548   6.232   3.268   1.598  0.0391 -0.0332  0.8762
 8686TIP3    H147549   6.303   3.210   1.570 -1.5690 -0.7865 -2.0591
 8686TIP3    H247550   6.252   3.352   1.557  0.3338  0.3961  1.8733
 8687TIP3   OH247551   1.011   5.940   1.037 -0.4527  0.0642  0.3929
 8687TIP3    H147552   1.052   5.883   0.973  0.3119  3.2039 -2.1877
 8687TIP3    H247553   0.920   5.911   1.041 -0.4963 -0.3083 -2.0808
 8688TIP3   OH247554   1.882   0.170  12.036 -0.3633  0.3931  0.3713
 8688TIP3    H147555   1.868   0.113  11.960  0.2966  1.1059 -0.3178
 8688TIP3    H247556   1.976   0.163  12.053 -0.0725  2.0013 -0.3635
 8689TIP3   OH247557   6.776   3.367   0.077  0.2381 -0.4644 -0.6461
 8689TIP3    H147558   6.867   3.369   0.108  0.2472 -0.2121 -0.6853
 8689TIP3    H247559   6.730   3.316   0.144 -0.0677  1.4683  0.7103
 8690TIP3   OH247560   4.098   2.526   1.343  0.2821  0.2276  0.1043
 8690TIP3    H147561   4.017   2.492   1.304  1.1402 -0.7893 -0.8644
 8690TIP3    H247562   4.079   2.530   1.437  0.0745 -2.9795  0.3102
 8691TIP3   OH247563   5.871   1.118  15.020 -0.7277 -0.0355 -0.0537
 8691TIP3    H147564   5.935   1.067  14.969  0.6981 -1.6652  3.1278
 8691TIP3    H247565   5.916   1.201  15.038  0.1240 -0.7447  1.2347
 8692TIP3   OH247566   2.117   6.211  12.775 -0.0420  0.2629  0.1517
 8692TIP3    H147567   2.042   6.236  12.720  0.2543  2.6364  0.7111
 8692TIP3    H247568   2.178   6.168  12.714 -1.7086 -1.5191 -0.3515
 8693TIP3   OH247569   2.913   4.935  11.951  0.0832  0.0171 -0.9093
 8693TIP3    H147570   2.855   4.983  11.892 -0.2987 -0.6572 -1.0946
 8693TIP3    H247571   2.858   4.865  11.987  0.6257 -0.2810 -0.6508
 8694TIP3   OH247572   0.631   3.355   5.672 -0.3287  0.2594 -0.0449
 8694TIP3    H147573   0.608   3.416   5.742 -1.6988  0.7215 -0.8477
 8694TIP3    H247574   0.630   3.409   5.593 -0.2800 -0.5492 -0.6049
 8695TIP3   OH247575   5.441   6.074   0.340  0.3889 -0.6100  0.1614
 8695TIP3    H147576   5.460   6.135   0.410  0.8627 -0.3235 -0.2117
 8695TIP3    H247577   5.362   6.109   0.298  0.9680  0.0569 -0.3931
 8696TIP3   OH247578   6.197   1.935  15.725 -0.4912  0.0916  0.3028
 8696TIP3    H147579   6.237   1.993  15.660 -0.0877  0.5646  0.9550
 8696TIP3    H247580   6.103   1.944  15.711 -0.4153 -1.3614 -1.5392
 8697TIP3   OH247581   1.888   0.979  16.468 -0.2310  0.6977 -0.1363
 8697TIP3    H147582   1.880   0.959  16.561 -0.5862  0.4375 -0.2166
 8697TIP3    H247583   1.837   0.910  16.425  1.5597 -0.3690 -0.6566
 8698TIP3   OH247584   1.564   5.407   6.143  0.5886  0.0666  0.0914
 8698TIP3    H147585   1.551   5.442   6.231 -2.5516  0.7794 -0.5484
 8698TIP3    H247586   1.508   5.329   6.139  1.4979 -0.5608 -0.9581
 8699TIP3   OH247587   1.142   5.898   5.514  0.1879 -0.2196 -0.3059
 8699TIP3    H147588   1.051   5.869   5.511  0.5374 -1.4518  0.3255
 8699TIP3    H247589   1.137   5.993   5.497 -1.3754  0.0558  1.3212
 8700TIP3   OH247590   5.978   6.628  13.497 -0.1215  0.4992  0.0659
 8700TIP3    H147591   5.968   6.558  13.433 -1.2375  0.4907  0.2290
 8700TIP3    H247592   5.894   6.675  13.496 -0.6547 -0.2455  2.3484
 8701TIP3   OH247593   3.150   6.599  12.778 -0.0141 -0.1539  0.6568
 8701TIP3    H147594   3.084   6.584  12.846  1.3069 -1.8184  1.6368
 8701TIP3    H247595   3.099   6.629  12.702 -1.6316  0.8925  2.0619
 8702TIP3   OH247596   3.069   1.938  13.601  0.2309  0.2156 -0.0472
 8702TIP3    H147597   3.065   2.032  13.616  1.1056  0.1306  0.8459
 8702TIP3    H247598   3.155   1.912  13.635 -0.3922 -1.0490  0.6384
 8703TIP3   OH247599   1.883   4.212  15.617 -0.6615  0.2319 -0.4330
 8703TIP3    H147600   1.807   4.265  15.593 -1.1260 -0.6350 -0.8911
 8703TIP3    H247601   1.926   4.192  15.534  0.3657  1.1278 -0.1454
 8704TIP3   OH247602   4.644   5.534  16.558 -0.5584  0.0485 -0.1133
 8704TIP3    H147603   4.735   5.531  16.529 -0.4548 -1.0662  0.2569
 8704TIP3    H247604   4.645   5.487  16.642 -1.4089  0.3392  0.0617
 8705TIP3   OH247605   5.513   6.739   2.314  0.2227  0.4704 -0.1391
 8705TIP3    H147606   5.533   6.832   2.317 -0.6869  0.7302 -1.3454
 8705TIP3    H247607   5.583   6.700   2.262  0.2202  0.5856 -0.2265
 8706TIP3   OH247608   3.262   5.981  16.808 -0.6196 -0.5297 -0.2945
 8706TIP3    H147609   3.265   5.997  16.714  1.2678  1.5759  0.0523
 8706TIP3    H247610   3.353   5.991  16.837 -0.8112 -3.0230  1.5139
 8707TIP3   OH247611   4.590   1.445  17.036 -0.1189 -0.4624  0.4427
 8707TIP3    H147612   4.670   1.495  17.023 -0.0939 -0.4578  0.6177
 8707TIP3    H247613   4.607   1.361  16.994 -0.8276  0.3126 -1.5126
 8708TIP3   OH247614   0.112   1.891   6.237 -0.3143  0.8207  0.6299
 8708TIP3    H147615   0.131   1.962   6.298  1.6021  1.6953 -0.8469
 8708TIP3    H247616   0.132   1.811   6.285  1.2665  1.4913  1.1487
 8709TIP3   OH247617   1.602   4.324  13.669  0.3970  0.7236  0.1872
 8709TIP3    H147618   1.633   4.414  13.669 -1.9527  1.6342 -1.7143
 8709TIP3    H247619   1.601   4.299  13.577  2.7217 -1.9784  0.7523
 8710TIP3   OH247620   0.683   0.645   0.506  0.0742 -0.5773 -0.0625
 8710TIP3    H147621   0.726   0.645   0.420  2.1100  0.1669  0.8705
 8710TIP3    H247622   0.676   0.738   0.529  0.2182 -0.7793  0.8602
 8711TIP3   OH247623   4.164   2.130   4.681 -0.0636  0.0751 -0.3994
 8711TIP3    H147624   4.113   2.094   4.755  0.5888 -0.6480 -0.2904
 8711TIP3    H247625   4.098   2.150   4.615 -0.6308  0.4317  0.2560
 8712TIP3   OH247626   0.694   0.256   2.429 -0.1267 -0.4174 -0.0796
 8712TIP3    H147627   0.690   0.211   2.344 -1.2515 -1.8529  0.6813
 8712TIP3    H247628   0.750   0.200   2.483 -0.0996  0.0349  0.3659
 8713TIP3   OH247629   6.383   2.419   2.600 -0.0921  0.6861 -0.3231
 8713TIP3    H147630   6.362   2.491   2.540 -1.5795  0.2694 -0.3558
 8713TIP3    H247631   6.297   2.388   2.630  0.5921  0.4618  1.5199
 8714TIP3   OH247632   2.576   4.048   2.768  0.7308  0.1524  0.1371
 8714TIP3    H147633   2.570   4.102   2.847 -0.5067  1.6308 -0.8975
 8714TIP3    H247634   2.490   4.005   2.762  0.3767  0.9554 -0.9739
 8715TIP3   OH247635   3.453   6.106   3.656 -0.1546 -0.0390 -0.1794
 8715TIP3    H147636   3.380   6.146   3.702  0.6410 -0.4022  1.4868
 8715TIP3    H247637   3.513   6.178   3.637  0.3886 -0.1158  1.1101
 8716TIP3   OH247638   2.548   4.174   3.066  0.0656 -0.0016 -0.1202
 8716TIP3    H147639   2.552   4.242   3.133  0.6415  1.6041 -1.7137
 8716TIP3    H247640   2.475   4.200   3.010  0.9876 -0.0918 -1.3853
 8717TIP3   OH247641   0.927   3.601   3.533  0.6280 -0.2185  0.2780
 8717TIP3    H147642   0.929   3.506   3.548  0.0295 -0.0326  1.7514
 8717TIP3    H247643   0.835   3.624   3.548  0.7631  0.5943 -0.1343
 8718TIP3   OH247644   6.827   5.840  14.885  0.1855 -0.1678  0.2513
 8718TIP3    H147645   6.836   5.881  14.971 -0.3662  0.4996  0.0021
 8718TIP3    H247646   6.917   5.819  14.860  0.3566 -0.3410  0.9744
 8719TIP3   OH247647   1.262   3.335   0.219  0.2713  0.0691 -0.4399
 8719TIP3    H147648   1.345   3.318   0.264  1.0712 -0.4323 -2.0571
 8719TIP3    H247649   1.203   3.267   0.253  1.7461 -2.3589 -2.3619
 8720TIP3   OH247650   4.476   3.792  11.803 -0.0322 -0.0231  1.0184
 8720TIP3    H147651   4.555   3.741  11.788  0.2912  0.6193  0.4693
 8720TIP3    H247652   4.505   3.883  11.797 -1.1741  0.2431 -1.2724
 8721TIP3   OH247653   0.266   1.732   3.753  0.3301 -0.3256 -0.0881
 8721TIP3    H147654   0.334   1.785   3.795  1.5835 -0.7768 -1.4278
 8721TIP3    H247655   0.211   1.702   3.825 -0.8402  3.2405  0.6937
 8722TIP3   OH247656   4.266   1.012   6.157  0.3761  0.5250  0.1145
 8722TIP3    H147657   4.281   0.950   6.229 -2.4333  0.7819  1.0510
 8722TIP3    H247658   4.350   1.055   6.145  1.9463 -2.1479  0.6785
 8723TIP3   OH247659   0.305   4.080  10.964  0.1918 -0.3886  0.6112
 8723TIP3    H147660   0.327   4.164  11.004 -1.2251  0.6375 -0.6135
 8723TIP3    H247661   0.225   4.053  11.008 -1.5488  0.8967 -1.5472
 8724TIP3   OH247662   4.529   3.261   2.131  0.1958  0.4390 -0.2758
 8724TIP3    H147663   4.580   3.187   2.162  2.4034  1.6155 -0.9236
 8724TIP3    H247664   4.507   3.310   2.210 -1.0177 -0.6782  0.1229
 8725TIP3   OH247665   4.081   4.528   0.505 -0.5905  0.1807 -0.2785
 8725TIP3    H147666   4.054   4.462   0.441 -1.3017 -0.1612  0.3543
 8725TIP3    H247667   4.174   4.511   0.519 -0.8437 -0.9360  0.1454
 8726TIP3   OH247668   4.414   3.292  17.075  0.0347 -0.3831  0.0706
 8726TIP3    H147669   4.486   3.269  17.134  0.1671 -0.0259  0.0522
 8726TIP3    H247670   4.378   3.372  17.113 -1.1455 -1.2195  0.7777
 8727TIP3   OH247671   1.856   0.542   0.142 -0.0393 -0.1126 -0.0206
 8727TIP3    H147672   1.885   0.457   0.173 -1.0179 -0.1411  0.8220
 8727TIP3    H247673   1.938   0.592   0.130  0.5466 -1.1996 -0.6911
 8728TIP3   OH247674   4.988   5.851  13.574 -0.0786  0.0153 -0.3382
 8728TIP3    H147675   4.982   5.762  13.609  1.8612  0.3119  0.9266
 8728TIP3    H247676   4.962   5.908  13.647 -0.3205  0.5269 -0.8133
 8729TIP3   OH247677   4.522   3.386   2.381 -0.1819  0.4242 -0.0884
 8729TIP3    H147678   4.498   3.445   2.452  1.5565  2.4656 -1.0819
 8729TIP3    H247679   4.614   3.405   2.363 -0.0357 -1.3884 -1.6396
 8730TIP3   OH247680   4.845   6.451   3.608  0.4230 -0.3323 -0.2750
 8730TIP3    H147681   4.881   6.451   3.519 -2.5440 -0.7690 -1.6213
 8730TIP3    H247682   4.765   6.504   3.601 -1.3938 -2.6433  1.3812
 8731TIP3   OH247683   0.440   4.144  14.357 -0.0181  0.8386  0.3121
 8731TIP3    H147684   0.470   4.223  14.313 -1.3861  0.7680 -0.8234
 8731TIP3    H247685   0.392   4.096  14.290 -0.3046 -0.3403  1.3239
 8732TIP3   OH247686   3.171   2.205   0.991 -0.6195  0.6903 -0.7623
 8732TIP3    H147687   3.184   2.110   0.998 -1.7706  0.3331 -2.7386
 8732TIP3    H247688   3.154   2.233   1.081  0.1545 -0.8808 -0.0691
 8733TIP3   OH247689   6.389   1.553  16.990  0.0999  0.4378 -0.4722
 8733TIP3    H147690   6.403   1.550  17.084  0.8635  0.0185 -0.5951
 8733TIP3    H247691   6.463   1.602  16.955 -0.2611  0.7324 -0.8449
 8734TIP3   OH247692   4.422   6.483  15.666 -0.0600  0.2723  0.3566
 8734TIP3    H147693   4.420   6.575  15.639  0.8018  0.6496  1.4397
 8734TIP3    H247694   4.444   6.487  15.760 -0.6428 -1.0169  0.5632
 8735TIP3   OH247695   0.922   0.847  16.254 -0.3415 -0.2182  0.8634
 8735TIP3    H147696   0.845   0.888  16.213  0.1762 -1.7110 -1.8271
 8735TIP3    H247697   0.989   0.848  16.186  1.8243  0.2556  2.8650
 8736TIP3   OH247698   2.078   5.685   0.449  0.1047 -0.3944 -0.2669
 8736TIP3    H147699   2.140   5.703   0.520 -1.2862 -0.2783  0.9406
 8736TIP3    H247700   2.072   5.769   0.402 -1.5931  0.6073  1.5984
 8737TIP3   OH247701   3.737   0.381   2.071  0.6353 -0.1923  0.0796
 8737TIP3    H147702   3.816   0.435   2.076  0.5224  0.1281 -1.1829
 8737TIP3    H247703   3.719   0.373   1.977 -0.8598 -0.2211  0.3392
 8738TIP3   OH247704   1.946   1.226   5.908 -0.7743 -0.5736  0.1768
 8738TIP3    H147705   1.976   1.253   5.995 -0.6337  0.1683 -0.0917
 8738TIP3    H247706   1.997   1.281   5.847 -2.5052  0.5806 -0.3017
 8739TIP3   OH247707   0.435   1.680  13.474  0.0561 -0.1913  0.1236
 8739TIP3    H147708   0.528   1.703  13.472 -0.1718  0.7591 -0.0990
 8739TIP3    H247709   0.423   1.625  13.397 -0.1352  2.0658 -1.5438
 8740TIP3   OH247710   1.288   4.103  16.479 -0.1454  0.0327  0.4662
 8740TIP3    H147711   1.226   4.154  16.530  0.0757  1.2796 -0.4776
 8740TIP3    H247712   1.371   4.149  16.488 -0.5490  1.7345 -2.8404
 8741TIP3   OH247713   0.673   3.434  13.187  0.0844  0.0912 -0.4640
 8741TIP3    H147714   0.579   3.419  13.171  0.4052 -2.2864 -0.3459
 8741TIP3    H247715   0.713   3.348  13.182  2.1739  0.9437  0.4074
 8742TIP3   OH247716   4.799   4.391  17.033  0.2621 -0.1186 -0.7138
 8742TIP3    H147717   4.812   4.409  17.126 -1.6256 -1.8523 -0.0329
 8742TIP3    H247718   4.740   4.460  17.003 -1.1084 -0.9224  0.0381
 8743TIP3   OH247719   3.190   5.458  14.348 -1.0998 -0.1492 -0.3674
 8743TIP3    H147720   3.157   5.435  14.261  0.9945  0.3429 -1.3538
 8743TIP3    H247721   3.277   5.418  14.353 -1.5779 -1.0387  1.9413
 8744TIP3   OH247722   5.545   1.410  10.308 -0.4226 -0.3398 -0.5149
 8744TIP3    H147723   5.534   1.446  10.220 -2.4965 -1.8864 -0.9670
 8744TIP3    H247724   5.554   1.486  10.364  1.1010  0.6968 -2.0491
 8745TIP3   OH247725   4.579   6.126   2.372 -0.2687 -0.1166 -0.4510
 8745TIP3    H147726   4.541   6.142   2.458  0.0606  0.1617 -0.3525
 8745TIP3    H247727   4.539   6.045   2.342 -1.4459  0.5097 -0.6374
 8746TIP3   OH247728   6.809   3.929   2.414 -0.3946 -0.0773 -0.0735
 8746TIP3    H147729   6.900   3.939   2.385 -0.0716 -0.5196  0.7638
 8746TIP3    H247730   6.795   3.834   2.419 -1.2154 -0.0402 -1.1143
 8747TIP3   OH247731   3.207   2.271   2.800  0.9576 -0.2686  0.6177
 8747TIP3    H147732   3.207   2.216   2.878  1.5132 -2.1111 -0.6123
 8747TIP3    H247733   3.290   2.318   2.804  0.4684  0.5584  1.6932
 8748TIP3   OH247734   2.101   6.422  13.566 -0.2265  0.0401  0.7298
 8748TIP3    H147735   2.166   6.487  13.540  0.6276 -0.5660  1.2964
 8748TIP3    H247736   2.022   6.448  13.519  0.9039 -0.2779 -1.5007
 8749TIP3   OH247737   6.013   1.726  14.776 -0.1968 -0.0633 -0.2941
 8749TIP3    H147738   6.098   1.689  14.801 -1.4879 -2.9137  0.1747
 8749TIP3    H247739   6.009   1.810  14.822  0.7254 -1.6556  2.9298
 8750TIP3   OH247740   4.786   4.417  13.311 -0.1621 -0.4968  0.5940
 8750TIP3    H147741   4.717   4.401  13.247 -0.9208 -2.8754  1.8865
 8750TIP3    H247742   4.771   4.352  13.379  1.9568  0.4781  2.1047
 8751TIP3   OH247743   0.965   4.410   6.479  0.4826 -0.2247 -0.2850
 8751TIP3    H147744   0.880   4.449   6.502  0.5913 -0.0510 -0.1761
 8751TIP3    H247745   1.026   4.484   6.478  1.0592 -0.6152  1.6800
 8752TIP3   OH247746   2.044   5.027   1.345 -0.5264 -0.4020  0.3404
 8752TIP3    H147747   1.983   4.972   1.295  1.7514 -1.8048 -1.0916
 8752TIP3    H247748   2.031   5.115   1.310  0.4116 -1.2019 -2.2529
 8753TIP3   OH247749   1.048   2.018   1.286 -0.1602  0.6099 -0.4592
 8753TIP3    H147750   1.074   2.075   1.359  0.9281  1.0639 -1.1721
 8753TIP3    H247751   0.972   1.971   1.318  0.3779  0.7014  1.0297
 8754TIP3   OH247752   4.494   5.249  14.322 -0.2615  0.3298  0.1220
 8754TIP3    H147753   4.472   5.197  14.245  0.0101 -1.6054  1.2990
 8754TIP3    H247754   4.445   5.208  14.394  1.4319  0.5098  1.4302
 8755TIP3   OH247755   5.126   6.323   6.363  0.1996 -0.6080 -0.6089
 8755TIP3    H147756   5.134   6.228   6.373 -2.4232 -0.9534 -0.8853
 8755TIP3    H247757   5.085   6.352   6.445  0.5684  0.2243 -0.7058
 8756TIP3   OH247758   2.792   3.635   1.495  0.7373 -0.2560 -0.3406
 8756TIP3    H147759   2.714   3.579   1.493  0.8690 -0.4481 -0.1090
 8756TIP3    H247760   2.759   3.723   1.474  0.1591  0.0157  1.5235
 8757TIP3   OH247761   3.989   1.938   1.816 -0.0962 -0.2169  0.7376
 8757TIP3    H147762   4.061   1.887   1.777  0.0837 -0.3470  1.2357
 8757TIP3    H247763   3.952   1.880   1.882 -1.4132 -0.5864 -0.2896
 8758TIP3   OH247764   4.955   1.789   1.711 -0.0668 -0.2804 -0.1448
 8758TIP3    H147765   4.991   1.869   1.672  1.8372 -1.6169 -1.2806
 8758TIP3    H247766   4.946   1.810   1.804 -0.3438  1.4841 -0.5325
 8759TIP3   OH247767   6.619   0.296   2.372  0.0612 -0.0979  0.3724
 8759TIP3    H147768   6.537   0.246   2.379 -0.2462  0.2901 -0.2832
 8759TIP3    H247769   6.656   0.295   2.460  0.3587 -1.9750  0.2628
 8760TIP3   OH247770   6.357   1.000   0.307 -0.1990  0.0590 -0.2894
 8760TIP3    H147771   6.338   0.914   0.342  0.6259  0.9877  2.6854
 8760TIP3    H247772   6.327   0.996   0.216 -1.2796 -2.9360  0.1003
 8761TIP3   OH247773   0.604   3.233  10.593 -0.4369 -0.0456  0.0077
 8761TIP3    H147774   0.584   3.197  10.680 -0.4695 -1.0405 -0.3968
 8761TIP3    H247775   0.520   3.233  10.548 -0.2442 -0.4839 -0.3564
 8762TIP3   OH247776   5.750   5.746   0.813 -0.2763  0.8300 -0.0551
 8762TIP3    H147777   5.748   5.816   0.748  1.1141  0.9428  0.0033
 8762TIP3    H247778   5.835   5.754   0.855  0.2615 -1.3953 -0.5925
 8763TIP3   OH247779   0.842   5.844  11.300  0.1131 -0.4771  0.3427
 8763TIP3    H147780   0.923   5.795  11.285  0.5150 -1.4619  4.3890
 8763TIP3    H247781   0.774   5.794  11.255  1.4683 -0.5889 -1.6987
 8764TIP3   OH247782   1.986   5.551  13.772  0.2130  0.1498  0.2048
 8764TIP3    H147783   2.042   5.482  13.808 -0.6390 -0.9204 -0.4736
 8764TIP3    H247784   1.901   5.509  13.761 -0.1674  1.1475 -0.7696
 8765TIP3   OH247785   1.920   4.708   5.197  0.7326  0.1542 -0.8368
 8765TIP3    H147786   1.907   4.657   5.277 -0.7545  0.4857 -0.8425
 8765TIP3    H247787   1.883   4.794   5.218 -0.2601  0.0529 -2.0837
 8766TIP3   OH247788   0.030   2.228  17.124  0.0979 -0.4277 -0.0798
 8766TIP3    H147789  -0.026   2.218  17.201  0.8179  0.9764  0.6742
 8766TIP3    H247790   0.114   2.192  17.150  0.8715  1.6134  0.4832
 8767TIP3   OH247791   6.040   6.750  16.452 -0.4370  0.6401  0.0832
 8767TIP3    H147792   5.952   6.713  16.445 -0.3944  0.4218  0.6060
 8767TIP3    H247793   6.060   6.782  16.365 -0.4522 -0.6083 -0.3986
 8768TIP3   OH247794   3.379   1.511  14.363  0.2987  0.4413  0.4412
 8768TIP3    H147795   3.457   1.483  14.315  0.9939  0.6574  1.4191
 8768TIP3    H247796   3.352   1.434  14.413 -0.7233  0.0626 -0.6431
 8769TIP3   OH247797   4.241   1.467   2.588 -0.4006  0.2921 -0.0511
 8769TIP3    H147798   4.156   1.432   2.560 -1.2538  0.2642  2.3912
 8769TIP3    H247799   4.227   1.496   2.678  1.9465  1.1866  0.0911
 8770TIP3   OH247800   4.218   2.562  13.734 -0.5069 -0.2258 -0.2391
 8770TIP3    H147801   4.253   2.474  13.740 -0.5803 -0.2013  0.7668
 8770TIP3    H247802   4.169   2.563  13.652  1.4551 -0.3827 -1.4796
 8771TIP3   OH247803   4.674   0.260   5.918 -0.4163 -0.5822 -0.7798
 8771TIP3    H147804   4.688   0.345   5.878  1.5465 -0.1782  0.6051
 8771TIP3    H247805   4.659   0.278   6.010 -1.8046 -1.6617 -0.7526
 8772TIP3   OH247806   3.075   0.502   1.261 -0.2423 -0.1134 -0.0424
 8772TIP3    H147807   2.986   0.533   1.245  0.2841  0.9705 -1.0948
 8772TIP3    H247808   3.086   0.429   1.200 -0.6649 -0.7619  0.6531
 8773TIP3   OH247809   6.047   6.547  12.861 -0.3793 -0.1990  0.1134
 8773TIP3    H147810   6.105   6.619  12.885 -1.7940  1.0378 -0.0304
 8773TIP3    H247811   6.006   6.520  12.943 -1.7247  0.8691 -0.1981
 8774TIP3   OH247812   4.364   0.860   4.794 -0.3330  0.1960 -0.1689
 8774TIP3    H147813   4.318   0.927   4.844 -1.2380 -0.3530 -0.2495
 8774TIP3    H247814   4.305   0.837   4.723  0.6289  0.4199 -1.0717
 8775TIP3   OH247815   1.204   2.204  12.393 -0.0058  0.4074  0.1851
 8775TIP3    H147816   1.257   2.279  12.420 -0.0777  0.9665 -1.1723
 8775TIP3    H247817   1.118   2.242  12.374 -0.1895 -0.0996 -0.0155
 8776TIP3   OH247818   0.245   4.314   5.804 -0.6608  0.3344 -0.0196
 8776TIP3    H147819   0.158   4.287   5.773 -0.2119 -2.8221  1.1515
 8776TIP3    H247820   0.235   4.320   5.899  0.4874 -0.5354  0.1717
 8777TIP3   OH247821   3.774   2.931   1.238  0.1186 -0.0055 -0.2545
 8777TIP3    H147822   3.849   2.974   1.196  0.0655 -1.4185 -1.9174
 8777TIP3    H247823   3.813   2.860   1.289  0.0249  0.3702  0.3461
 8778TIP3   OH247824   1.595   6.306   3.773  0.6254 -0.0863  0.6526
 8778TIP3    H147825   1.647   6.258   3.708 -0.4016  0.2598 -0.4635
 8778TIP3    H247826   1.525   6.347   3.722  0.0795  0.6169  1.9221
 8779TIP3   OH247827   0.031   1.694   6.512  0.0300  0.2016  0.1634
 8779TIP3    H147828   0.124   1.702   6.533  0.6953 -0.7244 -2.0707
 8779TIP3    H247829  -0.004   1.782   6.523  0.8584  0.3259  2.2324
 8780TIP3   OH247830   5.657   2.038   2.167 -0.0788  0.3595  0.0778
 8780TIP3    H147831   5.607   1.957   2.177  0.3081  0.2874  1.6892
 8780TIP3    H247832   5.726   2.016   2.104  0.7240 -0.9344  1.3441
 8781TIP3   OH247833   3.816   4.807   5.267  0.3128 -0.0404  0.1125
 8781TIP3    H147834   3.802   4.876   5.332 -0.8263 -1.2292  1.2046
 8781TIP3    H247835   3.761   4.832   5.193 -0.6452 -0.1044  0.7844
 8782TIP3   OH247836   1.861   1.936   3.633 -0.2190  0.0026  0.1707
 8782TIP3    H147837   1.843   1.848   3.667  1.1971 -0.3805 -0.0166
 8782TIP3    H247838   1.801   1.993   3.682  0.0791 -0.8409  1.5823
 8783TIP3   OH247839   2.652   0.795   3.612 -0.4544 -0.0047  0.0820
 8783TIP3    H147840   2.589   0.867   3.613 -1.5704 -0.8487 -2.0253
 8783TIP3    H247841   2.702   0.807   3.531 -0.8364 -1.7006 -0.4584
 8784TIP3   OH247842   6.348   1.289   0.181  0.0006  0.6452 -0.3566
 8784TIP3    H147843   6.254   1.292   0.165  0.0958  2.3374 -0.7470
 8784TIP3    H247844   6.379   1.377   0.161  1.6328  0.1955  0.0335
 8785TIP3   OH247845   2.325   0.216  15.475 -0.7049 -0.1403  0.1405
 8785TIP3    H147846   2.377   0.278  15.423 -1.5559  0.1812 -0.3461
 8785TIP3    H247847   2.310   0.143  15.415  0.4837 -0.9448  0.7842
 8786TIP3   OH247848   4.440   2.537  13.471 -0.2794 -0.5073 -0.1378
 8786TIP3    H147849   4.502   2.505  13.406 -0.9481 -2.2144 -0.0081
 8786TIP3    H247850   4.460   2.487  13.550 -1.8648 -1.2150 -0.1312
 8787TIP3   OH247851   1.991   4.768   2.811 -0.3450  0.0393 -0.1098
 8787TIP3    H147852   2.048   4.751   2.735  0.7094 -3.2958  1.2213
 8787TIP3    H247853   1.920   4.704   2.801 -2.1630  1.9531 -0.0299
 8788TIP3   OH247854   6.224   4.315   0.730 -0.1174 -0.3433  0.9326
 8788TIP3    H147855   6.160   4.368   0.777 -1.5767  0.0725 -1.3539
 8788TIP3    H247856   6.265   4.375   0.668  0.1999 -1.2922  0.1965
 8789TIP3   OH247857   4.949   4.485  13.987 -0.3078 -0.7060 -0.6532
 8789TIP3    H147858   4.900   4.414  13.946 -2.3069  0.8195 -1.0751
 8789TIP3    H247859   4.915   4.564  13.946  0.0275  0.6654  1.5468
 8790TIP3   OH247860   0.950   2.960   5.933  0.0034 -0.0552  0.3394
 8790TIP3    H147861   0.905   3.042   5.915 -0.3354 -0.3813 -0.3302
 8790TIP3    H247862   1.013   2.951   5.861 -0.9964 -1.1094 -0.4366
 8791TIP3   OH247863   1.684   3.048   1.341 -0.1727 -0.6576  0.0042
 8791TIP3    H147864   1.750   2.980   1.354  0.3662 -0.3903 -1.2344
 8791TIP3    H247865   1.606   3.013   1.385  1.0588 -0.4556  2.5572
 8792TIP3   OH247866   4.994   6.069  15.794 -0.5852 -0.7291 -0.3058
 8792TIP3    H147867   5.077   6.044  15.834  0.3306  0.1803 -1.5567
 8792TIP3    H247868   4.980   6.005  15.725 -0.9339 -0.8982 -0.0759
 8793TIP3   OH247869   3.821   5.639  11.645  0.1647  0.0087 -1.1703
 8793TIP3    H147870   3.809   5.645  11.740  1.7248 -1.0324 -0.8490
 8793TIP3    H247871   3.865   5.721  11.621 -0.2622  0.2884 -0.9975
 8794TIP3   OH247872   3.277   1.643  13.205 -0.2787  0.1945 -0.3277
 8794TIP3    H147873   3.257   1.567  13.150  0.5041  1.2257 -2.1262
 8794TIP3    H247874   3.371   1.654  13.197 -0.1155  0.3180  1.3786
 8795TIP3   OH247875   2.022   2.681   4.824  0.1544 -0.0886 -0.3628
 8795TIP3    H147876   1.943   2.694   4.876  0.3560  1.6365 -0.4110
 8795TIP3    H247877   1.994   2.623   4.753 -0.4451 -1.4122  0.9180
 8796TIP3   OH247878   2.107   0.145   1.476  0.0722  0.0739  0.4923
 8796TIP3    H147879   2.025   0.171   1.434 -0.4299 -0.5768  1.0451
 8796TIP3    H247880   2.173   0.204   1.439 -0.4522 -0.0887 -0.7401
 8797TIP3   OH247881   6.461   1.515  11.941 -0.4051  0.2431  0.0228
 8797TIP3    H147882   6.553   1.498  11.961  0.0292  1.9767 -0.3214
 8797TIP3    H247883   6.445   1.469  11.859  0.0553 -0.3413  0.2545
 8798TIP3   OH247884   0.288   6.827   4.977  0.4348  0.1362  0.2006
 8798TIP3    H147885   0.270   6.846   5.069 -2.2605 -1.1315  0.0330
 8798TIP3    H247886   0.357   6.760   4.979  0.9948  0.7193  1.2295
 8799TIP3   OH247887   3.699   0.499   3.666  0.6418 -0.5727 -0.3357
 8799TIP3    H147888   3.659   0.586   3.659 -0.8209 -1.1958 -0.0139
 8799TIP3    H247889   3.686   0.461   3.579 -0.2186 -1.0774  0.0021
 8800TIP3   OH247890   4.722   3.642  16.154  0.3913 -0.4320 -0.1471
 8800TIP3    H147891   4.808   3.612  16.183  0.3762  1.1337  1.7841
 8800TIP3    H247892   4.680   3.674  16.234 -1.6106 -0.2541 -1.2011
 8801TIP3   OH247893   1.313   0.474   4.226 -0.3522  0.1763 -0.6674
 8801TIP3    H147894   1.354   0.551   4.265  0.4531 -0.4444 -0.2418
 8801TIP3    H247895   1.219   0.488   4.237 -0.1792  0.4682  0.6674
 8802TIP3   OH247896   2.595   4.634  15.092 -0.2100  0.5040  0.2913
 8802TIP3    H147897   2.618   4.720  15.127  1.0846 -0.0725  0.9049
 8802TIP3    H247898   2.509   4.647  15.052  0.0042  2.1059  0.2820
 8803TIP3   OH247899   3.913   5.583  13.810  0.4911 -0.2402  0.3287
 8803TIP3    H147900   3.939   5.670  13.779  0.7293 -0.5457 -0.3663
 8803TIP3    H247901   3.887   5.596  13.901 -0.4433  0.7514 -0.0532
 8804TIP3   OH247902   6.293   4.891   3.799  0.1368 -0.0922 -0.2661
 8804TIP3    H147903   6.238   4.825   3.840 -1.9297  0.6609 -1.6702
 8804TIP3    H247904   6.268   4.973   3.842  0.2361  0.2358 -0.8129
 8805TIP3   OH247905   1.904   1.303   3.606 -0.4527  0.2971 -0.1569
 8805TIP3    H147906   1.930   1.212   3.617  0.4150  0.8129  2.8239
 8805TIP3    H247907   1.924   1.345   3.689 -1.8111  3.0113 -1.0514
 8806TIP3   OH247908   2.807   1.545   1.990  0.3445 -0.2805  0.3733
 8806TIP3    H147909   2.886   1.506   1.952  1.5077  1.4952  0.8507
 8806TIP3    H247910   2.839   1.622   2.038 -1.7040  0.5982  0.4166
 8807TIP3   OH247911   2.610   4.217   4.757 -0.1290  0.0261  0.1027
 8807TIP3    H147912   2.681   4.212   4.820 -0.9037  0.0975  0.9986
 8807TIP3    H247913   2.561   4.296   4.780  0.3215  0.7900 -1.4128
 8808TIP3   OH247914   3.677   6.083   0.345 -0.5310 -0.5064  0.7160
 8808TIP3    H147915   3.648   6.165   0.385  2.6169  0.4741  1.2343
 8808TIP3    H247916   3.642   6.015   0.402 -1.7643  0.5457  1.2562
 8809TIP3   OH247917   1.392   4.742  12.874  0.4941  0.4888  0.3701
 8809TIP3    H147918   1.305   4.777  12.895 -0.8205 -0.5333 -2.8122
 8809TIP3    H247919   1.448   4.820  12.867 -0.9820  1.5093 -0.7802
 8810TIP3   OH247920   6.019   3.462  16.631 -0.0806 -0.2810 -0.2570
 8810TIP3    H147921   5.969   3.383  16.611  0.5708 -0.5216 -1.0193
 8810TIP3    H247922   6.098   3.454  16.577 -0.8757  1.8227 -1.8889
 8811TIP3   OH247923   5.603   4.224  12.509 -0.0454  0.8373  0.5534
 8811TIP3    H147924   5.642   4.229  12.421 -0.8629  1.5268  0.2127
 8811TIP3    H247925   5.564   4.311  12.522 -1.8734  0.0346  0.6854
 8812TIP3   OH247926   0.035   1.297  13.580 -0.3840 -0.2118 -0.5857
 8812TIP3    H147927  -0.038   1.237  13.599 -0.5390 -0.0375 -0.6340
 8812TIP3    H247928   0.044   1.350  13.659  0.7993 -1.3648  0.1063
 8813TIP3   OH247929   2.629   0.073   3.002 -0.1925  0.0230 -0.8693
 8813TIP3    H147930   2.584  -0.005   2.970  0.4803 -1.3566  1.2954
 8813TIP3    H247931   2.705   0.039   3.049 -0.4973  1.9026  1.1497
 8814TIP3   OH247932   4.509   6.185   5.526  0.7646  0.0599  0.0055
 8814TIP3    H147933   4.512   6.243   5.449  0.1519 -1.7632 -1.4668
 8814TIP3    H247934   4.531   6.098   5.492  1.3555 -0.6618  2.0811
 8815TIP3   OH247935   2.492   4.406  15.778  0.2220  0.2167 -0.6212
 8815TIP3    H147936   2.536   4.321  15.775 -0.5701 -0.2576  0.6871
 8815TIP3    H247937   2.403   4.386  15.805  0.2606  1.5533  0.5844
 8816TIP3   OH247938   4.768   0.400  14.862  0.4737  0.3209  0.4028
 8816TIP3    H147939   4.708   0.441  14.925  1.5598 -0.4872  2.0342
 8816TIP3    H247940   4.757   0.306  14.876  0.7614  0.1218 -0.6114
 8817TIP3   OH247941   1.075   6.822   2.501  0.4986 -0.5855 -0.3442
 8817TIP3    H147942   1.150   6.866   2.542  0.5568 -2.2059  1.4434
 8817TIP3    H247943   0.998   6.866   2.538  0.4955  0.7772 -1.8382
 8818TIP3   OH247944   3.227   3.462  13.325  0.5138  0.2587  0.4079
 8818TIP3    H147945   3.176   3.508  13.258 -1.4688 -1.2299  0.8235
 8818TIP3    H247946   3.287   3.407  13.275 -1.2362 -1.1654 -0.2596
 8819TIP3   OH247947   3.212   6.450  14.631 -0.0708  0.7355 -0.6001
 8819TIP3    H147948   3.220   6.545  14.638 -0.8742  0.6990  1.9943
 8819TIP3    H247949   3.220   6.419  14.721 -0.8031 -1.5656 -1.2684
 8820TIP3   OH247950   5.918   5.533   5.133  0.1822  0.1302 -0.1934
 8820TIP3    H147951   5.924   5.540   5.038  0.0513  1.7120 -0.1166
 8820TIP3    H247952   5.980   5.598   5.166 -0.3917  0.2046  0.7953
 8821TIP3   OH247953   0.632   2.339  15.344  0.0008 -0.3302  0.6343
 8821TIP3    H147954   0.616   2.253  15.383  1.6115 -0.4644  1.0746
 8821TIP3    H247955   0.578   2.400  15.396 -1.8037 -1.1373 -0.2100
 8822TIP3   OH247956   4.274   0.085  10.576 -0.2508 -0.5699  0.2809
 8822TIP3    H147957   4.299   0.015  10.637 -0.2627 -0.0260  0.9197
 8822TIP3    H247958   4.252   0.159  10.632  3.8949  1.4401 -0.3452
 8823TIP3   OH247959   1.202   4.891  15.128  0.1409 -0.3760  0.6045
 8823TIP3    H147960   1.231   4.839  15.203 -0.0536  0.4881  1.2924
 8823TIP3    H247961   1.177   4.975  15.165  0.3296  0.1754 -0.4727
 8824TIP3   OH247962   0.423   1.894   3.923 -0.0878  0.2506  0.5755
 8824TIP3    H147963   0.451   1.982   3.947  1.7900 -0.2359  0.3225
 8824TIP3    H247964   0.422   1.846   4.006  0.0291  0.2123  0.5547
 8825TIP3   OH247965   2.991   5.811  14.853 -0.0405  0.1694  0.2652
 8825TIP3    H147966   2.974   5.799  14.760  0.8994 -0.5234  0.1643
 8825TIP3    H247967   3.061   5.876  14.857 -0.0097  0.1258  0.4707
 8826TIP3   OH247968   5.468   3.062   4.065  0.7488  0.4919  0.8975
 8826TIP3    H147969   5.381   3.027   4.086  0.8685  0.2030  0.9152
 8826TIP3    H247970   5.506   2.997   4.005  1.1341  0.3856  1.2520
 8827TIP3   OH247971   4.534   3.939   4.775  0.1770  0.2484 -0.5788
 8827TIP3    H147972   4.478   4.015   4.761 -1.5249 -0.7184  0.6236
 8827TIP3    H247973   4.573   3.953   4.861  1.1281  0.4883 -1.0337
 8828TIP3   OH247974   3.508   3.067  12.510 -0.0984 -0.0108 -0.2399
 8828TIP3    H147975   3.435   3.017  12.475  0.3294 -1.3240  0.6556
 8828TIP3    H247976   3.473   3.108  12.590 -0.3467  0.8644 -0.7811
 8829TIP3   OH247977   2.820   2.279  15.872 -0.3626 -0.1950 -0.1029
 8829TIP3    H147978   2.733   2.252  15.904  0.0898 -0.2704  1.1203
 8829TIP3    H247979   2.804   2.361  15.825 -0.9636  0.4004  1.0805
 8830TIP3   OH247980   0.615   3.860   1.889  0.6212  0.0056 -0.4593
 8830TIP3    H147981   0.604   3.850   1.983 -1.4433  0.2407 -0.6367
 8830TIP3    H247982   0.588   3.776   1.852  2.8108 -0.6111 -0.8125
 8831TIP3   OH247983   1.901   5.634   3.894 -0.8849 -0.2431 -0.3375
 8831TIP3    H147984   1.848   5.701   3.937 -0.5353 -1.0394  1.4241
 8831TIP3    H247985   1.945   5.588   3.965 -0.0908 -1.5015 -1.5695
 8832TIP3   OH247986   6.794   3.866   1.455  0.4005  0.2737  0.4556
 8832TIP3    H147987   6.769   3.909   1.374  0.6504  0.4522  0.4703
 8832TIP3    H247988   6.888   3.849   1.445 -0.3375 -4.0078 -1.3071
 8833TIP3   OH247989   4.593   6.635  14.448 -0.5360  0.2023 -0.2062
 8833TIP3    H147990   4.579   6.728  14.433 -2.8157 -0.0707 -0.1528
 8833TIP3    H247991   4.562   6.593  14.368  1.2452 -0.4947 -0.5644
 8834TIP3   OH247992   2.146   0.314  12.326 -0.1892  0.0030  0.0825
 8834TIP3    H147993   2.225   0.366  12.337 -0.3207  0.1551  0.2982
 8834TIP3    H247994   2.078   0.361  12.373 -0.3313 -0.3090  0.1951
 8835TIP3   OH247995   5.617   2.037   5.338  0.0134 -0.1430  0.2471
 8835TIP3    H147996   5.670   2.108   5.375  0.7240 -0.2944 -0.4543
 8835TIP3    H247997   5.681   1.976   5.302 -0.6618  0.4145 -2.0293
 8836TIP3   OH247998   2.574   0.639  15.055 -0.2834  0.2891 -0.5677
 8836TIP3    H147999   2.497   0.583  15.049  0.4871 -0.7908 -0.6201
 8836TIP3    H248000   2.558   0.695  15.132 -0.9912 -0.1135 -0.4189
 8837TIP3   OH248001   2.080   3.325  11.614 -0.5780 -0.2293 -0.0171
 8837TIP3    H148002   2.127   3.319  11.697  0.5379 -2.6996 -0.7581
 8837TIP3    H248003   2.141   3.369  11.555  0.3091 -2.1335 -0.5827
 8838TIP3   OH248004   1.287   4.216   5.347 -0.0426 -0.3077 -0.0650
 8838TIP3    H148005   1.283   4.147   5.281 -0.2210  0.5287 -0.9621
 8838TIP3    H248006   1.373   4.255   5.335 -0.1057 -0.1009  0.1468
 8839TIP3   OH248007   1.435   0.055  11.949 -0.6070 -0.5552 -0.3407
 8839TIP3    H148008   1.355   0.107  11.946 -0.8382 -0.9381 -1.0923
 8839TIP3    H248009   1.433   0.012  12.035 -0.2037  0.9645  0.4711
 8840TIP3   OH248010   5.740   1.232  11.065 -0.1529 -0.4217  0.1541
 8840TIP3    H148011   5.650   1.212  11.039 -0.4604  0.8153  0.2130
 8840TIP3    H248012   5.757   1.173  11.139 -1.6292  0.7109  1.4666
 8841TIP3   OH248013   6.280   4.515  11.549 -0.1937 -0.1529 -0.3748
 8841TIP3    H148014   6.344   4.573  11.592 -0.0604  0.9388 -1.9435
 8841TIP3    H248015   6.197   4.535  11.593  0.2980 -0.6513  0.8190
 8842TIP3   OH248016   4.047   4.737  15.408  0.1692 -0.5904 -0.4458
 8842TIP3    H148017   4.039   4.799  15.481  0.6103  0.6379 -1.4063
 8842TIP3    H248018   4.128   4.690  15.427  0.0350 -0.6086  0.1047
 8843TIP3   OH248019   6.413   5.447  13.181  0.5087  0.0353 -0.6109
 8843TIP3    H148020   6.396   5.541  13.169 -0.9176  0.2011  1.9553
 8843TIP3    H248021   6.505   5.443  13.207  0.8315  0.5988 -1.6002
 8844TIP3   OH248022   6.746   1.795  12.110 -0.5140 -0.3224  0.5266
 8844TIP3    H148023   6.802   1.825  12.182  1.7647 -2.2457 -0.3165
 8844TIP3    H248024   6.797   1.814  12.031 -0.9636 -2.2334 -0.2793
 8845TIP3   OH248025   1.465   0.898   2.107  0.1782 -0.1355  0.5651
 8845TIP3    H148026   1.490   0.855   2.024 -0.5455  1.6295 -0.6190
 8845TIP3    H248027   1.373   0.875   2.119 -0.5850  2.0133 -0.7475
 8846TIP3   OH248028   6.721   6.646  15.305  0.6215  0.4533 -0.3809
 8846TIP3    H148029   6.759   6.635  15.392 -1.3204 -2.1108  0.2622
 8846TIP3    H248030   6.765   6.723  15.269  5.2440 -1.3402  0.8048
 8847TIP3   OH248031   0.089   6.305   3.710 -0.0443  0.0629 -0.4536
 8847TIP3    H148032   0.074   6.246   3.635  0.3916  0.0440 -0.5271
 8847TIP3    H248033   0.032   6.270   3.779  0.3083 -0.5340 -0.4502
 8848TIP3   OH248034   2.900   2.736   4.888  0.0581  0.7186 -0.4171
 8848TIP3    H148035   2.941   2.785   4.816 -0.5699  2.1286  0.1518
 8848TIP3    H248036   2.918   2.788   4.966  0.7078 -0.7834  0.4829
 8849TIP3   OH248037   0.443   0.300  14.389 -0.2812  0.3889 -0.2744
 8849TIP3    H148038   0.385   0.376  14.391 -0.2473  0.4606 -1.3271
 8849TIP3    H248039   0.518   0.329  14.337  0.5488  0.1867  0.7817
 8850TIP3   OH248040   1.437   1.933   6.704  0.1929 -0.2332 -0.4909
 8850TIP3    H148041   1.366   1.953   6.644  1.1901  0.5853 -1.4305
 8850TIP3    H248042   1.469   1.847   6.676  0.1220 -0.2216 -0.6067
 8851TIP3   OH248043   3.781   2.784   0.709 -0.3073 -0.5470 -0.1142
 8851TIP3    H148044   3.854   2.824   0.662  0.1592 -1.4038 -0.1246
 8851TIP3    H248045   3.710   2.780   0.645 -0.5827  0.8305  0.0581
 8852TIP3   OH248046   3.696   0.554   0.904 -0.0218  0.3752  0.0679
 8852TIP3    H148047   3.751   0.567   0.981  1.6669  0.5631 -1.1148
 8852TIP3    H248048   3.726   0.471   0.867 -1.0814  0.0967 -0.1866
 8853TIP3   OH248049   4.474   6.378  12.751  0.0094  0.3460  1.1075
 8853TIP3    H148050   4.564   6.357  12.725 -0.1895 -0.3362  0.9408
 8853TIP3    H248051   4.423   6.366  12.671 -0.4359 -0.6538  1.5221
 8854TIP3   OH248052   3.684   2.660   2.795  0.5345  0.1476  0.4133
 8854TIP3    H148053   3.675   2.756   2.792 -0.8799  0.0173 -1.2256
 8854TIP3    H248054   3.661   2.638   2.885 -0.0028  1.3061  0.5932
 8855TIP3   OH248055   6.077   1.131   2.288  0.0399 -0.7550  0.3956
 8855TIP3    H148056   6.011   1.178   2.340  0.0103 -1.4664  1.0339
 8855TIP3    H248057   6.026   1.091   2.217  0.3801  1.9296 -1.4625
 8856TIP3   OH248058   0.023   1.996   3.146 -0.4421 -0.2626 -0.4175
 8856TIP3    H148059   0.055   1.908   3.128 -1.1391 -0.5461 -0.2721
 8856TIP3    H248060   0.090   2.053   3.109  0.6659 -0.8423  0.6138
 8857TIP3   OH248061   4.065   4.362   0.271  0.7041 -0.6642 -0.1272
 8857TIP3    H148062   4.066   4.280   0.222 -0.1402 -0.2886 -0.7962
 8857TIP3    H248063   4.021   4.424   0.214  0.4785  0.0133  0.7517
 8858TIP3   OH248064   6.058   2.252  12.856 -0.1975 -0.6169  0.1152
 8858TIP3    H148065   6.025   2.188  12.920  0.0009  3.1145  4.4642
 8858TIP3    H248066   5.982   2.307  12.835  0.4666  0.1741 -0.2694
 8859TIP3   OH248067   5.631   1.949   4.526 -0.4494 -0.0440  0.0712
 8859TIP3    H148068   5.721   1.980   4.529  0.1945 -1.8298  0.4886
 8859TIP3    H248069   5.602   1.968   4.437  0.7353 -0.4324 -0.4165
 8860TIP3   OH248070   6.666   2.438   5.247  0.2577 -0.5171  0.1981
 8860TIP3    H148071   6.702   2.526   5.236 -0.4821 -0.2710 -0.3511
 8860TIP3    H248072   6.704   2.388   5.175  0.2937 -0.5263  0.2231
 8861TIP3   OH248073   6.295   0.968   5.618 -0.1207  0.6062 -0.1069
 8861TIP3    H148074   6.350   1.039   5.650 -0.1156  1.4455 -1.8622
 8861TIP3    H248075   6.355   0.911   5.570 -0.3686  0.2127  0.0473
 8862TIP3   OH248076   4.159   1.433   5.053  0.0854 -0.4141 -0.4479
 8862TIP3    H148077   4.143   1.471   5.140  1.6118 -1.4339  0.3267
 8862TIP3    H248078   4.077   1.389   5.031 -0.2302 -0.4007  0.6363
 8863TIP3   OH248079   3.132   3.828   6.028  0.2460  0.2802 -0.6264
 8863TIP3    H148080   3.180   3.747   6.012 -0.3450 -0.4717  1.1776
 8863TIP3    H248081   3.169   3.891   5.965  1.0877 -1.2175 -1.6808
 8864TIP3   OH248082   1.773   2.548   2.201  0.1194 -0.2295  0.3731
 8864TIP3    H148083   1.794   2.638   2.227  0.0574 -0.1920  0.2950
 8864TIP3    H248084   1.684   2.554   2.165  1.2640  0.3017 -2.6739
 8865TIP3   OH248085   4.015   1.810   4.865 -0.1144  0.0108  0.1147
 8865TIP3    H148086   4.019   1.905   4.855 -0.3930 -0.0658 -0.7559
 8865TIP3    H248087   4.100   1.779   4.833  0.1565 -0.0011  0.8327
 8866TIP3   OH248088   5.586   2.195   6.273 -0.1228 -0.4492 -0.2579
 8866TIP3    H148089   5.586   2.099   6.276 -0.2449 -0.4388  2.2663
 8866TIP3    H248090   5.497   2.220   6.296 -0.0204  0.2734 -0.6273
 8867TIP3   OH248091   4.144   3.895   2.240  0.2150  0.5657  0.0549
 8867TIP3    H148092   4.131   3.886   2.146  0.5860  2.5298 -0.2308
 8867TIP3    H248093   4.174   3.808   2.269 -0.3716 -0.1995 -1.5255
 8868TIP3   OH248094   3.067   4.953   4.995  0.1179 -0.2261  0.1332
 8868TIP3    H148095   3.107   5.018   5.053  1.0537 -0.6197 -0.0689
 8868TIP3    H248096   3.102   4.973   4.908  2.3546 -2.4538  0.4209
 8869TIP3   OH248097   3.348   0.565  11.821  0.7865 -0.8153 -0.1466
 8869TIP3    H148098   3.431   0.588  11.864  0.4468  0.8535 -0.3040
 8869TIP3    H248099   3.327   0.478  11.855  2.2592 -0.9954  0.4041
 8870TIP3   OH248100   0.191   1.355   1.227 -0.6731 -0.1970 -0.1782
 8870TIP3    H148101   0.165   1.431   1.175  0.4034 -0.8163 -1.6758
 8870TIP3    H248102   0.136   1.283   1.194 -0.8927 -0.3200  0.4473
 8871TIP3   OH248103   1.142   1.182   1.400 -0.0915  0.3214  0.1184
 8871TIP3    H148104   1.168   1.093   1.378 -1.7532 -0.1243 -0.2150
 8871TIP3    H248105   1.150   1.186   1.495  1.9054  0.4894 -0.0266
 8872TIP3   OH248106   6.577   3.668  13.144 -0.9729  0.2972 -0.0957
 8872TIP3    H148107   6.592   3.761  13.155 -0.3027  0.0798  0.9217
 8872TIP3    H248108   6.510   3.646  13.210  0.2659 -0.2849  1.0087
 8873TIP3   OH248109   4.093   1.024   5.287  0.2950  0.1448 -0.4152
 8873TIP3    H148110   4.022   0.967   5.258  1.8778 -1.2428 -1.7553
 8873TIP3    H248111   4.173   0.972   5.274  1.6053  1.7889  0.6360
 8874TIP3   OH248112   0.766   5.095   2.886 -0.5690 -0.4549 -0.6173
 8874TIP3    H148113   0.825   5.106   2.960 -2.4720 -1.5015  1.1641
 8874TIP3    H248114   0.801   5.152   2.818  0.9022  1.0280  1.2949
 8875TIP3   OH248115   4.393   4.276  12.495 -0.1513 -0.0846  0.0236
 8875TIP3    H148116   4.405   4.338  12.423  2.1291  0.7153  0.9811
 8875TIP3    H248117   4.352   4.327  12.565 -1.0209 -0.4672 -0.2024
 8876TIP3   OH248118   4.181   1.365  12.679 -0.2989 -0.2322 -0.1701
 8876TIP3    H148119   4.214   1.394  12.593 -0.0682 -1.3905 -0.4926
 8876TIP3    H248120   4.088   1.386  12.677 -0.2011  0.1859 -0.5129
 8877TIP3   OH248121   3.151   0.759   6.587  0.3541 -0.3096  0.4334
 8877TIP3    H148122   3.164   0.854   6.589  1.6316 -0.4172  3.8331
 8877TIP3    H248123   3.231   0.725   6.547  1.0837 -0.0007  1.5670
 8878TIP3   OH248124   4.623   5.444  11.240  0.4836  0.6353  0.3064
 8878TIP3    H148125   4.577   5.472  11.161 -0.4889  0.2548  0.7154
 8878TIP3    H248126   4.628   5.523  11.294  1.5510  1.0019 -0.3098
 8879TIP3   OH248127   3.659   6.197  14.048  0.1556  0.4076  0.1314
 8879TIP3    H148128   3.697   6.217  14.134  0.2789  1.2429 -0.1112
 8879TIP3    H248129   3.734   6.197  13.989 -0.0058  0.4319 -0.0747
 8880TIP3   OH248130   5.531   1.827  12.395  0.5032  0.2474  0.3824
 8880TIP3    H148131   5.553   1.795  12.483 -1.4045 -1.8238  0.1622
 8880TIP3    H248132   5.475   1.903  12.411  1.6145  0.9966  0.9011
 8881TIP3   OH248133   3.092   4.442  13.713  0.0708 -0.6754 -0.2415
 8881TIP3    H148134   3.172   4.434  13.660  1.4078 -1.5507  1.7886
 8881TIP3    H248135   3.038   4.368  13.687 -0.6730  0.5490 -2.4578
 8882TIP3   OH248136   4.519   2.319  14.941  0.0178 -0.1406 -0.1312
 8882TIP3    H148137   4.583   2.373  14.895 -1.5539  1.1529 -0.9404
 8882TIP3    H248138   4.453   2.298  14.875 -0.9523 -0.4938  0.9096
 8883TIP3   OH248139   3.951   2.247   0.087 -0.0240 -0.2108 -0.1764
 8883TIP3    H148140   3.866   2.229   0.048  0.2303 -3.8396  0.5566
 8883TIP3    H248141   4.014   2.231   0.015  0.1826 -2.1315  0.3642
 8884TIP3   OH248142   2.223   2.024   5.044  0.4787  1.0626 -0.1048
 8884TIP3    H148143   2.167   1.979   5.108  0.8704 -0.0793 -0.5317
 8884TIP3    H248144   2.230   2.113   5.077  0.2920  0.6206  1.2051
 8885TIP3   OH248145   3.477   0.097   5.748  0.1696 -0.1831  0.6790
 8885TIP3    H148146   3.459   0.131   5.836 -2.3070 -1.2686  0.6786
 8885TIP3    H248147   3.429   0.014   5.744  0.2370 -0.1803 -1.6788
 8886TIP3   OH248148   5.144   1.970  14.460 -0.2115  0.4560 -0.1467
 8886TIP3    H148149   5.137   1.882  14.423 -2.1701  0.8527 -0.8435
 8886TIP3    H248150   5.185   2.022  14.392  0.9395  0.1030  0.2616
 8887TIP3   OH248151   3.798   0.555   5.141  0.0593 -0.1563 -0.1880
 8887TIP3    H148152   3.723   0.516   5.095 -0.0009  0.5365 -0.6972
 8887TIP3    H248153   3.859   0.483   5.154 -1.0278 -0.9144  0.9480
 8888TIP3   OH248154   2.616   2.647  10.377 -0.1158  0.6749 -0.2034
 8888TIP3    H148155   2.644   2.656  10.468  0.7224  0.5975 -0.4409
 8888TIP3    H248156   2.541   2.705  10.369  1.6331  3.1052 -0.2235
 8889TIP3   OH248157   3.344   4.470   1.696 -0.1159 -0.6861  0.7341
 8889TIP3    H148158   3.376   4.385   1.726 -0.7878 -1.1828  0.0650
 8889TIP3    H248159   3.400   4.492   1.622  0.5346 -0.1866  1.3571
 8890TIP3   OH248160   3.483   5.806   3.336  0.3613 -0.1012  0.3266
 8890TIP3    H148161   3.497   5.740   3.268  0.3937 -2.2969  2.3188
 8890TIP3    H248162   3.571   5.829   3.366  0.3380  0.6870 -0.1785
 8891TIP3   OH248163   0.086   6.370  16.173  0.1197 -0.4748  0.2939
 8891TIP3    H148164   0.086   6.327  16.087 -1.5305 -1.0923  0.5750
 8891TIP3    H248165   0.133   6.310  16.230 -0.7395 -1.1320  0.3155
 8892TIP3   OH248166   4.462   5.111   5.583  0.2791 -0.1869  0.2627
 8892TIP3    H148167   4.504   5.188   5.622  0.8418  1.3520 -3.1004
 8892TIP3    H248168   4.369   5.120   5.605  0.0568  2.4006 -1.3439
 8893TIP3   OH248169   2.479   6.614  11.417 -0.6970 -0.0178 -0.1350
 8893TIP3    H148170   2.388   6.588  11.435 -0.5879 -0.3786 -0.0906
 8893TIP3    H248171   2.472   6.696  11.367 -1.1357 -1.4867 -2.6503
 8894TIP3   OH248172   2.231   4.357   4.676  0.1565  0.0327 -0.7404
 8894TIP3    H148173   2.292   4.404   4.734 -0.9306 -0.7348  1.1325
 8894TIP3    H248174   2.215   4.418   4.604  1.3997  1.1357 -0.1416
 8895TIP3   OH248175   0.288   6.346  14.169 -0.6658  0.3872  0.1524
 8895TIP3    H148176   0.304   6.438  14.191  0.0073 -0.0935  1.8618
 8895TIP3    H248177   0.375   6.308  14.160 -0.9438 -0.0643 -0.6720
 8896TIP3   OH248178   5.992   4.179  13.452 -0.1110  0.5263  0.6661
 8896TIP3    H148179   6.076   4.216  13.424  0.7844 -0.1523  2.3408
 8896TIP3    H248180   5.983   4.206  13.543 -1.9022  0.8653  0.4274
 8897TIP3   OH248181   1.238   1.737  15.922  0.2269  0.3498 -0.2964
 8897TIP3    H148182   1.283   1.719  16.005  3.4769  3.9800 -0.9926
 8897TIP3    H248183   1.306   1.731  15.856 -1.9229 -0.7102 -2.5619
 8898TIP3   OH248184   1.546   2.144   4.409 -0.2484  0.1347 -0.1084
 8898TIP3    H148185   1.552   2.235   4.437  1.0303  0.1947 -0.5334
 8898TIP3    H248186   1.489   2.102   4.474  1.6943  0.5179  1.9465
 8899TIP3   OH248187   0.358   4.586  12.082  0.4643 -0.0710 -0.7903
 8899TIP3    H148188   0.384   4.510  12.031 -0.4632 -0.7069 -0.3353
 8899TIP3    H248189   0.295   4.553  12.146  1.4305  0.7369  0.6480
 8900TIP3   OH248190   4.360   1.611  16.763  0.5928  0.0415  0.3121
 8900TIP3    H148191   4.451   1.626  16.790  1.0523 -2.4026  0.3692
 8900TIP3    H248192   4.316   1.583  16.842  0.3500 -0.9156 -0.1526
 8901TIP3   OH248193   0.469   4.206  16.635 -0.2625  0.0096  0.7618
 8901TIP3    H148194   0.532   4.172  16.572  0.1679 -0.5302  1.4769
 8901TIP3    H248195   0.506   4.289  16.664 -0.3869  0.1846  0.4367
 8902TIP3   OH248196   1.286   2.329  11.772 -0.0330  0.1633  0.4594
 8902TIP3    H148197   1.363   2.273  11.776  0.4548  0.7591 -0.2400
 8902TIP3    H248198   1.239   2.300  11.694  1.6571  2.4574 -1.5608
 8903TIP3   OH248199   6.431   2.675   2.823  0.1523  0.0095 -0.0791
 8903TIP3    H148200   6.400   2.683   2.913  2.3357  0.8827  0.6619
 8903TIP3    H248201   6.353   2.691   2.769 -1.2178 -0.6197  1.6226
 8904TIP3   OH248202   6.275   0.660  13.221 -0.0282 -1.0726  0.0016
 8904TIP3    H148203   6.330   0.723  13.267 -0.2666 -1.8986  1.4550
 8904TIP3    H248204   6.244   0.600  13.289 -1.6129 -1.4485 -1.0089
 8905TIP3   OH248205   1.432   4.658   3.027  0.0535  0.2668  0.0867
 8905TIP3    H148206   1.464   4.709   3.102  1.2412 -0.7470  0.3007
 8905TIP3    H248207   1.502   4.595   3.009 -0.4424  0.1325 -1.5464
 8906TIP3   OH248208   4.595   0.202   4.525 -1.0538  0.0514 -0.1141
 8906TIP3    H148209   4.600   0.237   4.613 -0.0737 -0.5508  0.0929
 8906TIP3    H248210   4.636   0.115   4.531  1.3058  0.9437 -1.5891
 8907TIP3   OH248211   0.936   2.636   4.612 -0.3944  0.3922 -0.3424
 8907TIP3    H148212   0.874   2.687   4.663  0.3618  0.8696  0.1300
 8907TIP3    H248213   0.901   2.637   4.523 -1.5956 -0.2392  0.1088
 8908TIP3   OH248214   4.205   5.314  13.911  0.2719  0.4874  0.7334
 8908TIP3    H148215   4.115   5.317  13.879  0.0470 -0.1638  1.2662
 8908TIP3    H248216   4.213   5.391  13.968 -0.1070  0.2903  1.0625
 8909TIP3   OH248217   0.006   5.586   0.772  0.2275 -0.7042  0.5690
 8909TIP3    H148218   0.060   5.664   0.762 -2.4103  1.0959 -0.9138
 8909TIP3    H248219  -0.018   5.586   0.865  0.1744  0.3377  0.5713
 8910TIP3   OH248220   1.446   4.588  15.539 -0.4186 -0.4396 -0.0227
 8910TIP3    H148221   1.398   4.505  15.545 -1.7219  0.3778  2.0966
 8910TIP3    H248222   1.433   4.629  15.625  0.9960  1.5318 -0.6847
 8911TIP3   OH248223   1.329   5.338  14.890 -0.1608 -0.4386 -0.0899
 8911TIP3    H148224   1.393   5.409  14.884  0.3542 -0.9275 -0.4448
 8911TIP3    H248225   1.375   5.261  14.856 -0.6709 -0.9714  0.4026
 8912TIP3   OH248226   6.017   0.542   2.712  0.0884 -0.3524  0.1346
 8912TIP3    H148227   5.972   0.476   2.659  0.3929 -2.4420  2.2876
 8912TIP3    H248228   5.949   0.604   2.737  0.0970  1.2616 -3.3128
 8913TIP3   OH248229   3.607   0.027   4.210  0.1021 -0.2290 -0.2673
 8913TIP3    H148230   3.647   0.045   4.125  0.1281  0.0023 -0.2096
 8913TIP3    H248231   3.533   0.088   4.215  0.1312 -0.2053 -0.1038
 8914TIP3   OH248232   4.907   0.626   3.995 -0.0562 -0.1418  0.2047
 8914TIP3    H148233   4.911   0.580   4.079 -0.5881 -0.3703  0.1129
 8914TIP3    H248234   4.850   0.701   4.013  0.6469  0.3765  0.3026
 8915TIP3   OH248235   4.030   6.352  16.183  0.1490  0.2087 -0.1191
 8915TIP3    H148236   3.943   6.342  16.222  0.5355 -0.0915  0.6798
 8915TIP3    H248237   4.013   6.389  16.096 -0.6914  1.2779  0.4821
 8916TIP3   OH248238   0.422   2.269   1.546 -0.5432 -0.1800  0.5833
 8916TIP3    H148239   0.352   2.264   1.481  0.3651 -2.7288 -0.3249
 8916TIP3    H248240   0.409   2.193   1.602  1.4073 -0.6854  0.4369
 8917TIP3   OH248241   4.689   3.930   3.485 -0.0307  0.4003 -0.4603
 8917TIP3    H148242   4.610   3.979   3.463  0.7128  0.7426 -2.7422
 8917TIP3    H248243   4.689   3.856   3.424  0.8400 -0.2397  0.2865
 8918TIP3   OH248244   2.955   5.735  15.178 -0.2712 -0.1034 -0.1531
 8918TIP3    H148245   2.915   5.655  15.145 -1.2719  0.3383 -0.0392
 8918TIP3    H248246   3.035   5.744  15.126  0.5732 -1.8829  0.7486
 8919TIP3   OH248247   1.297   4.883   2.939 -0.3421  0.1206 -0.1075
 8919TIP3    H148248   1.313   4.951   3.004 -2.1045  0.1585  0.3301
 8919TIP3    H248249   1.362   4.815   2.960  1.9994  1.9086 -1.0539
 8920TIP3   OH248250   4.327   1.169  16.739  0.5935 -0.2868  0.0620
 8920TIP3    H148251   4.419   1.184  16.762  0.9463 -1.0035 -0.8104
 8920TIP3    H248252   4.288   1.129  16.817  0.5563  1.6199  1.0841
 8921TIP3   OH248253   5.921   0.607   1.683  0.1734 -0.2298 -0.5693
 8921TIP3    H148254   6.005   0.561   1.686  2.0884  3.0518  1.4660
 8921TIP3    H248255   5.922   0.652   1.598  2.1455  2.3850  0.7104
 8922TIP3   OH248256   3.070   2.270   3.842  0.0294 -0.1869  0.1372
 8922TIP3    H148257   3.102   2.214   3.771  2.0730 -1.1235  1.6804
 8922TIP3    H248258   3.024   2.209   3.901  1.6238 -0.1695  1.4586
 8923TIP3   OH248259   1.705   4.804   4.543 -0.1862  1.0949 -0.2217
 8923TIP3    H148260   1.770   4.814   4.613  0.6592  1.4271 -1.0263
 8923TIP3    H248261   1.753   4.826   4.463 -1.0834  0.5549 -0.9270
 8924TIP3   OH248262   4.843   5.783   4.009  0.4631  0.3082 -0.3156
 8924TIP3    H148263   4.912   5.787   4.075  1.4383  0.9653 -1.3373
 8924TIP3    H248264   4.823   5.690   4.001  0.2871  0.2193  0.9230
 8925TIP3   OH248265   1.009   2.420   0.267  0.4265  0.1587  0.3581
 8925TIP3    H148266   1.062   2.340   0.269 -3.3079 -2.6114  0.3398
 8925TIP3    H248267   0.985   2.434   0.359  1.7954  1.9273  0.4886
 8926TIP3   OH248268   6.457   1.805  11.294 -0.0998  0.2904  0.1121
 8926TIP3    H148269   6.382   1.748  11.304  0.1316  0.0678  0.5771
 8926TIP3    H248270   6.468   1.814  11.199 -2.1433  2.2280 -0.0254
 8927TIP3   OH248271   3.831   6.406  13.711 -0.5531  0.2156 -0.3481
 8927TIP3    H148272   3.751   6.453  13.685 -1.2208 -1.8741 -2.3479
 8927TIP3    H248273   3.896   6.429  13.645 -0.4132 -0.4402 -0.4417
 8928TIP3   OH248274   4.425   4.051   2.937  0.1331  0.1226 -0.0759
 8928TIP3    H148275   4.360   3.998   2.983  1.1729 -0.2763  0.9634
 8928TIP3    H248276   4.445   4.123   2.996  0.8089  0.1095 -0.2718
 8929TIP3   OH248277   1.078   0.837   6.577 -0.1946 -0.4425  0.2790
 8929TIP3    H148278   1.026   0.896   6.631 -0.2316 -0.4396  0.2400
 8929TIP3    H248279   1.068   0.751   6.618  0.8130 -0.2176  1.0377
 8930TIP3   OH248280   5.923   1.779   0.218  0.1687  0.8901 -0.4597
 8930TIP3    H148281   5.960   1.833   0.287 -1.6606 -0.4850  1.7663
 8930TIP3    H248282   5.998   1.732   0.182  1.1149  1.0215  1.2078
 8931TIP3   OH248283   1.509   5.979   2.543  0.1351 -0.2648 -0.4079
 8931TIP3    H148284   1.494   5.931   2.625  0.3246 -2.8566 -1.8020
 8931TIP3    H248285   1.484   6.069   2.564  0.0302 -0.8475  2.4426
 8932TIP3   OH248286   4.778   3.569   2.193 -0.0981  0.7465  0.1699
 8932TIP3    H148287   4.730   3.631   2.247  0.1743  2.1570 -1.1449
 8932TIP3    H248288   4.722   3.556   2.116  0.9926  1.3833 -0.7650
 8933TIP3   OH248289   2.290   2.478  14.610  0.2404 -0.1154  0.1026
 8933TIP3    H148290   2.323   2.390  14.626 -0.6000 -0.1285  1.9576
 8933TIP3    H248291   2.207   2.464  14.564  0.0498 -0.2981  0.4992
 8934TIP3   OH248292   1.099   0.992  15.397  0.1730 -0.0327  0.1357
 8934TIP3    H148293   1.151   0.912  15.391 -0.7339 -0.6229 -0.1447
 8934TIP3    H248294   1.008   0.962  15.388 -0.5565  0.5037  4.0084
 8935TIP3   OH248295   0.521   1.345  16.845  0.2321 -0.5181  0.9983
 8935TIP3    H148296   0.465   1.387  16.779 -0.6671 -0.2601  1.8968
 8935TIP3    H248297   0.501   1.251  16.837  2.4311 -0.9103 -1.1843
 8936TIP3   OH248298   4.636   1.947  10.408 -0.6970 -0.6753 -0.4644
 8936TIP3    H148299   4.622   1.854  10.421 -0.5895 -0.8134 -1.2369
 8936TIP3    H248300   4.731   1.957  10.404 -0.4228  0.1215  3.8697
 8937TIP3   OH248301   5.964   6.674   3.636  0.7585  0.2277  0.2494
 8937TIP3    H148302   6.028   6.715   3.578  0.3291  1.2796  0.4961
 8937TIP3    H248303   5.883   6.724   3.622 -0.3320 -1.6967 -0.8175
 8938TIP3   OH248304   2.125   2.841   1.741 -0.3957  0.0467  0.1753
 8938TIP3    H148305   2.108   2.878   1.654  2.0686 -3.4518 -2.0727
 8938TIP3    H248306   2.058   2.773   1.752  0.5578 -0.9477 -0.0133
 8939TIP3   OH248307   1.488   0.119   2.929 -0.3472 -0.6106 -0.3284
 8939TIP3    H148308   1.454   0.208   2.934  0.7560 -0.2449  1.6605
 8939TIP3    H248309   1.580   0.128   2.906 -0.2250 -1.2343 -0.1216
 8940TIP3   OH248310   1.265   4.573  11.443  0.3441 -0.3212  0.2808
 8940TIP3    H148311   1.194   4.561  11.506 -0.6350  1.4792 -0.4157
 8940TIP3    H248312   1.237   4.524  11.366 -1.1623  1.9374 -0.7034
 8941TIP3   OH248313   3.860   1.369   2.356  0.2735  0.6529  0.6160
 8941TIP3    H148314   3.861   1.402   2.266  2.2897 -0.6065  0.1143
 8941TIP3    H248315   3.770   1.340   2.370  0.1059  0.1490 -1.2744
 8942TIP3   OH248316   2.643   2.334  12.527  0.0971  0.6332  0.3668
 8942TIP3    H148317   2.672   2.276  12.598 -0.2019 -1.5654 -1.2133
 8942TIP3    H248318   2.634   2.420  12.569  0.3961 -0.4597  2.8681
 8943TIP3   OH248319   4.468   3.743   5.269  0.2936 -0.6061 -0.2092
 8943TIP3    H148320   4.444   3.657   5.235  0.7827 -1.1900  0.8592
 8943TIP3    H248321   4.465   3.732   5.364 -1.2451  1.0056 -0.0057
 8944TIP3   OH248322   3.279   3.085   1.934  0.0008 -0.2755  0.2401
 8944TIP3    H148323   3.316   3.017   1.878  2.8888  1.3483 -0.0275
 8944TIP3    H248324   3.335   3.161   1.920 -0.9966  1.1431  3.0798
 8945TIP3   OH248325   1.740   6.565  12.676  0.8306  0.1260  0.3997
 8945TIP3    H148326   1.659   6.514  12.676  0.5357  0.5815  0.3486
 8945TIP3    H248327   1.775   6.555  12.764 -0.1571  1.2705  0.9603
 8946TIP3   OH248328   4.636   3.796   2.275 -0.4976 -0.6416  0.0127
 8946TIP3    H148329   4.575   3.852   2.228 -0.6865  0.3325  1.3557
 8946TIP3    H248330   4.720   3.840   2.269 -0.2422 -1.1810 -0.4992
 8947TIP3   OH248331   2.629   1.760  11.690 -0.1438  0.6062 -0.6494
 8947TIP3    H148332   2.593   1.832  11.741 -2.3259 -1.7061  1.3225
 8947TIP3    H248333   2.687   1.714  11.750  0.4734  0.1278 -1.5785
 8948TIP3   OH248334   1.816   2.225  13.514  0.2895  0.4752 -0.3858
 8948TIP3    H148335   1.843   2.317  13.518  0.7027  0.3379  0.1301
 8948TIP3    H248336   1.787   2.205  13.603  1.9431 -0.3971  0.0031
 8949TIP3   OH248337   5.055   4.110  11.911 -0.2476 -0.0092 -0.2732
 8949TIP3    H148338   5.090   4.193  11.945 -1.0354 -0.2338  1.1790
 8949TIP3    H248339   5.031   4.129  11.821  1.4918  0.7612 -0.6146
 8950TIP3   OH248340   0.029   5.233   6.570 -0.2947 -0.0613  0.3255
 8950TIP3    H148341   0.107   5.223   6.515  1.8767 -0.6646  3.2585
 8950TIP3    H248342   0.031   5.324   6.599 -0.7234 -0.0653  0.3763
 8951TIP3   OH248343   4.957   4.548  11.814 -0.0638 -0.0993 -0.3363
 8951TIP3    H148344   4.980   4.615  11.750 -0.0701 -1.0475 -1.3533
 8951TIP3    H248345   4.939   4.470  11.762  1.4581 -1.3405  0.8927
 8952TIP3   OH248346   0.651   1.693   3.781 -0.1118  0.1387  0.3583
 8952TIP3    H148347   0.582   1.709   3.846 -1.7613 -1.2378 -0.9508
 8952TIP3    H248348   0.723   1.656   3.831 -0.7764  0.4977  1.6235
 8953TIP3   OH248349   1.098   6.037   1.557  0.6838  0.0834 -0.6228
 8953TIP3    H148350   1.135   5.970   1.498  1.0706 -0.2908  0.0319
 8953TIP3    H248351   1.024   5.993   1.599  1.9197 -0.5189  1.0328
 8954TIP3   OH248352   4.579   4.647  15.489  0.7119  0.4710  0.4050
 8954TIP3    H148353   4.609   4.703  15.561 -0.6064 -2.1015  3.1706
 8954TIP3    H248354   4.642   4.575  15.488 -1.0597 -1.1750  1.2674
 8955TIP3   OH248355   4.234   2.043   5.155 -0.8633 -0.6075  0.2355
 8955TIP3    H148356   4.248   2.136   5.141  1.1490 -1.0886 -1.3142
 8955TIP3    H248357   4.214   2.036   5.249 -0.7476  1.3101  0.4439
 8956TIP3   OH248358   6.554   6.027   2.483  0.5946 -0.1764 -0.3042
 8956TIP3    H148359   6.648   6.035   2.470  0.5262  0.8889 -0.2174
 8956TIP3    H248360   6.534   5.937   2.457  1.3251  0.1708 -2.2703
 8957TIP3   OH248361   3.002   3.241  15.407 -0.1239  0.3744 -0.4040
 8957TIP3    H148362   2.987   3.330  15.375 -0.1772  0.5160  0.0133
 8957TIP3    H248363   3.095   3.226  15.390 -0.6087 -0.3798 -2.6713
 8958TIP3   OH248364   1.482   5.149   3.324 -0.9160 -0.1245 -0.1886
 8958TIP3    H148365   1.486   5.181   3.414 -1.5371 -1.6617  0.4093
 8958TIP3    H248366   1.419   5.207   3.281 -0.0669  1.0897  0.1352
 8959TIP3   OH248367   1.746   0.567   6.491  0.5769 -0.1678  0.5391
 8959TIP3    H148368   1.682   0.498   6.475  1.2521 -1.1430  1.8200
 8959TIP3    H248369   1.831   0.524   6.479  1.0102  0.7060  0.3645
 8960TIP3   OH248370   4.704   3.061  16.980 -0.1462  0.5512  0.0080
 8960TIP3    H148371   4.635   2.996  16.971 -1.3193  1.6438  0.8291
 8960TIP3    H248372   4.669   3.140  16.938 -1.7935  2.8150  4.9384
 8961TIP3   OH248373   5.632   2.825  13.336 -0.5205  0.5116 -0.3800
 8961TIP3    H148374   5.702   2.870  13.289 -2.4048  3.4738 -0.6295
 8961TIP3    H248375   5.585   2.776  13.267  0.2404 -0.0957 -0.4865
 8962TIP3   OH248376   3.180   5.736   1.275  0.4747  0.1883 -0.1503
 8962TIP3    H148377   3.157   5.645   1.255 -0.6512  0.7294 -1.4007
 8962TIP3    H248378   3.135   5.754   1.358 -0.7704  0.1348 -0.7944
 8963TIP3   OH248379   5.647   0.346  12.253  0.4429  0.1465  0.1519
 8963TIP3    H148380   5.611   0.431  12.226 -2.0402 -0.9024 -0.0572
 8963TIP3    H248381   5.596   0.282  12.204  2.2148 -1.5143  0.3709
 8964TIP3   OH248382   4.202   6.379  14.238 -0.2856 -0.3498  0.8814
 8964TIP3    H148383   4.273   6.425  14.284 -0.0882 -0.3085  0.5367
 8964TIP3    H248384   4.123   6.427  14.263  0.1068  1.3672 -0.9251
 8965TIP3   OH248385   4.322   1.008   2.238 -0.4348  0.3642 -0.5371
 8965TIP3    H148386   4.339   1.054   2.156  2.7882  2.7585  1.2037
 8965TIP3    H248387   4.266   1.068   2.288  1.1720  1.0245  0.5536
 8966TIP3   OH248388   4.022   3.418  11.947 -0.1794  0.5750  0.2381
 8966TIP3    H148389   3.943   3.383  11.986  0.0149 -1.1772 -0.8552
 8966TIP3    H248390   4.062   3.471  12.016 -2.9940  2.7683  0.3885
 8967TIP3   OH248391   5.593   0.993  11.891  0.2630  0.6708  0.0910
 8967TIP3    H148392   5.655   0.963  11.957 -0.1765  0.0446  0.2193
 8967TIP3    H248393   5.545   1.064  11.933  0.6467  0.9274  0.1062
 8968TIP3   OH248394   2.801   3.438  13.405  0.3209  0.2794  0.3190
 8968TIP3    H148395   2.733   3.444  13.473 -2.4967 -0.2264 -2.2297
 8968TIP3    H248396   2.866   3.504  13.430 -1.4484  1.3359  2.5376
 8969TIP3   OH248397   1.530   1.544   4.387  0.0934 -0.0201  0.3378
 8969TIP3    H148398   1.554   1.456   4.418  2.4152  0.7520  0.9488
 8969TIP3    H248399   1.478   1.528   4.309  1.3621 -1.9714 -0.2013
 8970TIP3   OH248400   5.101   5.668   5.297  0.3571 -0.4872  0.0573
 8970TIP3    H148401   5.179   5.660   5.242  0.3506  0.8828 -0.2018
 8970TIP3    H248402   5.089   5.763   5.306 -2.1408 -0.6263 -1.1430
 8971TIP3   OH248403   1.346   4.980  12.119  0.4402 -0.1095  0.1860
 8971TIP3    H148404   1.280   4.970  12.051 -0.4034  1.5961  0.6970
 8971TIP3    H248405   1.297   5.007  12.197  1.6853  0.9815  0.6391
 8972TIP3   OH248406   2.234   5.578  13.601 -0.4494 -0.6992 -0.8101
 8972TIP3    H148407   2.258   5.580  13.694  0.0693  2.9952 -0.8766
 8972TIP3    H248408   2.169   5.508  13.595  1.4662 -2.9048  1.7380
 8973TIP3   OH248409   1.982   3.818   4.066 -0.4445 -0.0449  0.3570
 8973TIP3    H148410   2.039   3.743   4.048  0.6467  1.1137 -1.3310
 8973TIP3    H248411   1.910   3.808   4.004 -0.6001  0.0048  0.5289
 8974TIP3   OH248412   2.177   1.103   1.325  0.2453 -0.1102 -0.5775
 8974TIP3    H148413   2.264   1.141   1.342 -0.3313  1.0861 -0.2054
 8974TIP3    H248414   2.189   1.053   1.244  0.9159  1.3617 -1.4399
 8975TIP3   OH248415   0.461   0.053   3.993 -0.2634  0.4208 -0.5890
 8975TIP3    H148416   0.424   0.054   3.905 -0.3719 -2.1014 -0.6637
 8975TIP3    H248417   0.390   0.019   4.048  0.5851 -0.4422  0.0001
 8976TIP3   OH248418   1.254   0.987   0.842  0.3134 -0.0868 -0.0167
 8976TIP3    H148419   1.236   0.960   0.932 -0.7263 -2.0346 -0.7483
 8976TIP3    H248420   1.331   0.936   0.816  0.2314 -0.0040 -0.4279
 8977TIP3   OH248421   4.232   4.570  15.545  0.0283  0.4978  0.0047
 8977TIP3    H148422   4.279   4.520  15.479  2.8703 -0.8432  2.7892
 8977TIP3    H248423   4.197   4.505  15.605  0.1140  1.6978  1.4314
 8978TIP3   OH248424   2.494   3.728  16.055 -0.1484  0.4751 -0.8026
 8978TIP3    H148425   2.480   3.808  16.105 -0.4828  0.3453 -0.6824
 8978TIP3    H248426   2.545   3.755  15.979  0.9998  0.5570 -0.0201
 8979TIP3   OH248427   3.546   0.567  10.659  0.1418 -0.7049 -0.0217
 8979TIP3    H148428   3.486   0.639  10.638 -0.8531 -1.5006  0.0024
 8979TIP3    H248429   3.576   0.535  10.574 -0.9951 -1.5501 -0.1151
 8980TIP3   OH248430   0.397   4.215   1.724  0.0948  0.4089 -0.6884
 8980TIP3    H148431   0.380   4.242   1.815 -0.5486 -1.0926 -0.3375
 8980TIP3    H248432   0.381   4.294   1.673  1.3255  1.5295  0.5736
 8981TIP3   OH248433   2.580   4.767  14.285 -0.6193  0.2543  0.4821
 8981TIP3    H148434   2.554   4.675  14.294 -1.3136  0.4911  0.9917
 8981TIP3    H248435   2.653   4.777  14.346  1.2384 -0.5951 -1.4825
 8982TIP3   OH248436   2.653   3.427  15.836  0.5261 -0.2705 -0.8381
 8982TIP3    H148437   2.689   3.495  15.893  1.3193 -0.1738 -1.4338
 8982TIP3    H248438   2.576   3.467  15.796  1.2990  0.4955 -1.6093
 8983TIP3   OH248439   0.378   0.685  13.285  0.5439  0.1304 -0.2231
 8983TIP3    H148440   0.283   0.673  13.276  0.3440  0.9926  0.6111
 8983TIP3    H248441   0.407   0.712  13.198  0.0621 -0.3102 -0.5298
 8984TIP3   OH248442   6.155   4.383   3.724 -0.6522  0.3516  0.4001
 8984TIP3    H148443   6.099   4.374   3.647 -0.5050  0.2935  0.2975
 8984TIP3    H248444   6.139   4.472   3.755  0.4001  0.9174 -0.5922
 8985TIP3   OH248445   4.398   4.049  11.472 -0.0715 -0.3875  0.7990
 8985TIP3    H148446   4.416   4.058  11.565  1.9595 -0.4165  0.4539
 8985TIP3    H248447   4.479   4.076  11.429 -1.1223  0.1138 -0.9959
 8986TIP3   OH248448   3.496   4.292   0.496  0.3638 -0.0877 -0.1963
 8986TIP3    H148449   3.582   4.264   0.466 -0.9448 -1.8933 -2.6599
 8986TIP3    H248450   3.463   4.346   0.424  0.4479  3.0801  1.9283
 8987TIP3   OH248451   5.749   4.644  12.028 -0.2874 -0.1621  0.5217
 8987TIP3    H148452   5.824   4.591  12.002 -0.1201 -0.8924  2.3680
 8987TIP3    H248453   5.783   4.704  12.095 -1.2130 -0.0844  0.9369
 8988TIP3   OH248454   1.014   2.881  13.752 -0.0262 -0.2937 -0.2179
 8988TIP3    H148455   1.071   2.814  13.788 -0.4784  0.3134  1.7648
 8988TIP3    H248456   1.045   2.963  13.790  1.5660  0.9973 -3.8350
 8989TIP3   OH248457   2.956   5.605  12.077  0.0223 -0.2756  0.1290
 8989TIP3    H148458   2.991   5.543  12.141  1.3483 -0.7068 -0.9663
 8989TIP3    H248459   3.024   5.612  12.010 -0.3945  1.8498 -0.1476
 8990TIP3   OH248460   5.331   1.211   4.588 -0.5668  0.3689 -0.3553
 8990TIP3    H148461   5.289   1.153   4.525 -3.0782  3.8340 -2.2548
 8990TIP3    H248462   5.424   1.206   4.567 -1.0333 -0.7573 -2.3848
 8991TIP3   OH248463   3.052   6.436  15.160 -0.7754  0.2721  0.6189
 8991TIP3    H148464   2.963   6.409  15.139 -1.1391  0.4699  1.8031
 8991TIP3    H248465   3.047   6.531  15.165 -0.7305  0.2399  1.5726
 8992TIP3   OH248466   3.525   5.005   3.695 -0.4290  0.6784 -0.4900
 8992TIP3    H148467   3.563   5.084   3.657  0.8059  0.6188  0.5804
 8992TIP3    H248468   3.596   4.941   3.694 -1.2691 -0.2881 -0.8760
 8993TIP3   OH248469   6.809   2.475  13.587  0.0989  0.2479 -0.0528
 8993TIP3    H148470   6.775   2.548  13.535  0.9980 -0.2692 -1.4316
 8993TIP3    H248471   6.857   2.517  13.658 -0.3556  0.9932 -0.1765
 8994TIP3   OH248472   3.201   4.802   5.489 -0.1511 -0.0335 -0.2869
 8994TIP3    H148473   3.203   4.779   5.582 -0.1228 -1.7646 -0.6751
 8994TIP3    H248474   3.129   4.865   5.482 -0.2639  0.0012  0.8869
 8995TIP3   OH248475   0.849   0.538   1.122 -0.1118  0.1475  0.6613
 8995TIP3    H148476   0.920   0.477   1.106 -0.3617 -0.3432  1.3470
 8995TIP3    H248477   0.859   0.606   1.056  0.9033  0.0098  0.6680
 8996TIP3   OH248478   5.728   0.270  11.895 -0.5235 -0.6638 -0.0838
 8996TIP3    H148479   5.766   0.193  11.938 -2.6531 -2.0739 -0.6199
 8996TIP3    H248480   5.639   0.275  11.928 -0.7385  0.9944 -0.8248
 8997TIP3   OH248481   5.552   3.196  14.941  0.4884 -0.6095 -0.1997
 8997TIP3    H148482   5.582   3.108  14.916  1.7263 -0.3821  0.3990
 8997TIP3    H248483   5.612   3.255  14.897 -0.2057 -0.0566 -0.4202
 8998TIP3   OH248484   2.114   0.834   1.424 -0.3714 -0.4199 -0.2805
 8998TIP3    H148485   2.032   0.821   1.378 -1.0132  2.6470 -0.1730
 8998TIP3    H248486   2.139   0.925   1.406  0.6806  0.1626  3.2691
 8999TIP3   OH248487   4.720   0.890   4.620  0.5524  0.1304 -0.3345
 8999TIP3    H148488   4.797   0.855   4.665 -1.0947  1.0464  3.6579
 8999TIP3    H248489   4.728   0.985   4.630  0.6420  0.4905 -3.1875
 9000TIP3   OH248490   0.479   3.289  16.360  0.1182 -0.6056 -0.7555
 9000TIP3    H148491   0.551   3.229  16.382  1.1890  0.8062 -0.1934
 9000TIP3    H248492   0.482   3.296  16.265 -0.7009 -2.2070 -0.9318
 9001TIP3   OH248493   6.477   3.385   2.759 -0.4621 -0.3307  0.1067
 9001TIP3    H148494   6.467   3.341   2.843 -2.8963  1.4868  0.8748
 9001TIP3    H248495   6.395   3.367   2.713  0.4622 -0.5223 -1.5418
 9002TIP3   OH248496   1.927   0.180  14.669 -0.4738  0.2295 -0.1527
 9002TIP3    H148497   1.906   0.168  14.577 -1.0155 -0.7122  0.0755
 9002TIP3    H248498   1.850   0.223  14.706  0.0485  1.2926 -0.2789
 9003TIP3   OH248499   6.801   2.015   5.036  0.0894  0.4266  0.2769
 9003TIP3    H148500   6.824   2.012   4.943 -0.4425  1.1893  0.1032
 9003TIP3    H248501   6.882   1.998   5.083  0.2948 -0.3007 -0.3293
 9004TIP3   OH248502   6.225   6.096  11.848 -0.0843 -0.3111  0.0307
 9004TIP3    H148503   6.303   6.149  11.831  0.0585  0.1854  1.9886
 9004TIP3    H248504   6.201   6.060  11.762  0.5501  1.9071 -1.1416
 9005TIP3   OH248505   1.580   5.467  17.022  0.0431  0.3023 -0.3905
 9005TIP3    H148506   1.503   5.430  16.979  0.8250 -1.8443 -0.1013
 9005TIP3    H248507   1.550   5.490  17.110 -0.6836  1.2112 -0.8651
 9006TIP3   OH248508   2.265   4.710   5.542  0.4852  0.0079  0.7240
 9006TIP3    H148509   2.262   4.782   5.604  0.4143 -0.7301  1.5968
 9006TIP3    H248510   2.175   4.677   5.538  0.5675 -0.2030  0.5358
 9007TIP3   OH248511   5.514   2.696  11.726 -0.0377  0.1462 -0.0470
 9007TIP3    H148512   5.453   2.716  11.655  0.8415  1.4223 -0.4742
 9007TIP3    H248513   5.581   2.642  11.685  0.2354  0.5127 -0.0848
 9008TIP3   OH248514   5.815   2.544   3.120 -0.3077 -0.2227  0.3028
 9008TIP3    H148515   5.852   2.630   3.100  0.8679 -0.8519 -0.3425
 9008TIP3    H248516   5.769   2.518   3.041  1.4666 -1.2361 -0.4668
 9009TIP3   OH248517   6.575   5.411  16.296 -0.8710 -0.3463 -0.3112
 9009TIP3    H148518   6.648   5.368  16.251 -0.8435 -1.5476  0.8166
 9009TIP3    H248519   6.576   5.373  16.384 -0.2553  2.6994  1.0970
 9010TIP3   OH248520   0.425   0.349   6.018 -0.2160 -0.3120 -0.8324
 9010TIP3    H148521   0.521   0.346   6.012 -0.3014 -1.8441 -1.7181
 9010TIP3    H248522   0.406   0.442   6.029  1.4553 -0.1130  1.2566
 9011TIP3   OH248523   0.363   6.402  13.267  0.2038 -0.2975 -0.1820
 9011TIP3    H148524   0.341   6.448  13.348  3.7808 -1.3516  1.6040
 9011TIP3    H248525   0.397   6.471  13.209 -3.0006  0.5761 -1.2428
 9012TIP3   OH248526   5.404   5.592  10.923  0.1974  0.0108 -0.2108
 9012TIP3    H148527   5.401   5.539  11.003 -1.3083 -0.9776 -0.8786
 9012TIP3    H248528   5.396   5.682  10.954 -0.6560 -0.3712  0.7484
 9013TIP3   OH248529   3.229   3.117   0.612  0.2630 -0.2636  0.1636
 9013TIP3    H148530   3.188   3.101   0.527 -0.1504  2.2204 -0.2043
 9013TIP3    H248531   3.169   3.079   0.675 -0.7884  0.1621 -0.5467
 9014TIP3   OH248532   0.453   2.230  16.451  0.2655 -0.0072  0.2836
 9014TIP3    H148533   0.373   2.280  16.434 -0.4567 -0.6712  1.5593
 9014TIP3    H248534   0.471   2.186  16.368 -1.3504 -0.7362  0.2766
 9015TIP3   OH248535   2.270   3.319   3.660  0.7431 -0.0006 -0.1631
 9015TIP3    H148536   2.341   3.346   3.601  0.2422 -0.9749 -1.2532
 9015TIP3    H248537   2.226   3.249   3.613 -0.7892  0.4002  0.6262
 9016TIP3   OH248538   6.238   6.223  13.746 -0.3531 -0.1150 -0.6403
 9016TIP3    H148539   6.295   6.153  13.714 -1.0684 -0.4051 -1.3128
 9016TIP3    H248540   6.215   6.273  13.667  1.8875  2.2374  0.0618
 9017TIP3   OH248541   1.695   1.600  14.777 -0.5002 -0.0772 -0.7672
 9017TIP3    H148542   1.755   1.583  14.850  0.3108  1.1253 -1.1303
 9017TIP3    H248543   1.608   1.596  14.817 -0.0554  0.8441  0.3457
 9018TIP3   OH248544   2.979   5.382  16.765 -0.1217  0.6541  0.0625
 9018TIP3    H148545   2.972   5.286  16.757  0.0910  0.5822  0.6761
 9018TIP3    H248546   2.917   5.404  16.835 -0.2788  0.9867 -0.1806
 9019TIP3   OH248547   2.685   1.287   0.690 -0.8188 -0.0143  0.0404
 9019TIP3    H148548   2.631   1.323   0.619 -0.9634 -0.8251 -0.2711
 9019TIP3    H248549   2.692   1.194   0.670  0.0006 -0.0705  0.5413
 9020TIP3   OH248550   1.664   4.886   2.176  0.3214  0.3749  0.6388
 9020TIP3    H148551   1.597   4.864   2.241 -0.8700  0.8811 -0.3808
 9020TIP3    H248552   1.636   4.843   2.096  1.1459  0.7224  0.1484
 9021TIP3   OH248553   2.657   3.571  16.474  0.0795  0.6546  0.0107
 9021TIP3    H148554   2.622   3.572  16.563 -0.3738 -2.3030 -0.0209
 9021TIP3    H248555   2.741   3.527  16.482  0.8098  1.8576 -0.8253
 9022TIP3   OH248556   4.013   1.413  16.175 -0.2892 -0.4234  0.0032
 9022TIP3    H148557   3.974   1.453  16.253  1.4062  1.0661  0.1537
 9022TIP3    H248558   3.941   1.409  16.112 -0.7422  2.4703  0.1793
 9023TIP3   OH248559   4.576   3.626   4.120  0.3535 -0.1311 -0.4209
 9023TIP3    H148560   4.561   3.687   4.192  1.6980 -1.4892  1.0724
 9023TIP3    H248561   4.669   3.634   4.100  0.4305 -1.2618 -0.5845
 9024TIP3   OH248562   1.077   0.390  17.194  0.0986  0.1505 -0.0797
 9024TIP3    H148563   0.998   0.342  17.217 -0.1926  1.1932  1.1784
 9024TIP3    H248564   1.137   0.375  17.267  1.2137 -0.8724 -1.1564
 9025TIP3   OH248565   6.544   3.128  14.197 -0.1717  0.0765 -0.2205
 9025TIP3    H148566   6.557   3.034  14.210 -0.5337 -0.0558 -0.7758
 9025TIP3    H248567   6.458   3.135  14.156  0.0154  0.6232 -0.5347
 9026TIP3   OH248568   0.132   4.395  13.368 -0.0716 -0.2332  0.8091
 9026TIP3    H148569   0.136   4.377  13.274 -1.4046 -0.5705  0.7993
 9026TIP3    H248570   0.182   4.476  13.379 -1.5296  0.9243 -0.5117
 9027TIP3   OH248571   1.781   3.582   5.765 -0.4118 -0.0428 -0.3893
 9027TIP3    H148572   1.716   3.579   5.695 -0.4068  0.0167 -0.3967
 9027TIP3    H248573   1.742   3.639   5.831  0.0584  0.8121 -0.8244
 9028TIP3   OH248574   0.879   4.531   2.137  0.5004  0.0698 -0.2390
 9028TIP3    H148575   0.871   4.577   2.221  0.9648  0.4698 -0.4108
 9028TIP3    H248576   0.849   4.442   2.156 -0.0126  0.3273  0.1948
 9029TIP3   OH248577   1.913   1.370   4.709 -0.4341 -0.0476  0.0772
 9029TIP3    H148578   1.972   1.345   4.779 -0.0661 -1.7175 -0.7777
 9029TIP3    H248579   1.839   1.412   4.753  1.8071  3.2460  1.1233
 9030TIP3   OH248580   1.353   0.105  10.536 -0.3400 -0.0854  0.1379
 9030TIP3    H148581   1.293   0.098  10.462  0.5539 -0.4829 -0.5650
 9030TIP3    H248582   1.398   0.020  10.538  0.7895  0.5015  0.1419
 9031TIP3   OH248583   3.659   4.880  11.830 -0.1111  0.7742 -0.2290
 9031TIP3    H148584   3.737   4.895  11.776  0.4298 -1.0578 -0.0332
 9031TIP3    H248585   3.625   4.968  11.847  1.5646  1.5982 -0.8209
 9032TIP3   OH248586   5.910   5.576   0.565 -0.1836 -0.3925  0.1680
 9032TIP3    H148587   5.941   5.545   0.650  1.0936 -1.1052 -0.5200
 9032TIP3    H248588   5.823   5.537   0.556  0.6244 -2.3046  0.1513
 9033TIP3   OH248589   0.087   0.404   4.478  0.3507  0.0181  0.8601
 9033TIP3    H148590   0.131   0.476   4.433 -0.5306  0.5781  0.8838
 9033TIP3    H248591  -0.005   0.430   4.482 -0.1436 -1.4967  0.0964
 9034TIP3   OH248592   2.420   6.298  11.912  0.4924 -0.3303 -0.9546
 9034TIP3    H148593   2.438   6.258  11.997  1.0567  1.7680 -0.0160
 9034TIP3    H248594   2.455   6.236  11.848  1.9096 -1.0230  0.4272
 9035TIP3   OH248595   1.062   4.340  12.896 -0.5454 -0.3536 -0.1855
 9035TIP3    H148596   1.120   4.283  12.947  0.1389  0.3135 -0.1992
 9035TIP3    H248597   0.999   4.374  12.959 -0.4197 -0.4438 -0.0127
 9036TIP3   OH248598   0.777   6.010  12.035 -0.5532 -0.3603  0.4097
 9036TIP3    H148599   0.722   5.952  11.984 -0.5880 -0.2912  0.3683
 9036TIP3    H248600   0.837   5.952  12.082  0.5697 -0.3537 -0.9589
 9037TIP3   OH248601   0.835   3.360  11.743  0.0746  0.6895  0.9260
 9037TIP3    H148602   0.801   3.365  11.654  0.2775  0.6291  0.8458
 9037TIP3    H248603   0.902   3.292  11.739 -1.8141 -1.3889  1.7278
 9038TIP3   OH248604   2.025   2.868  11.913 -0.0152  0.3235  0.8067
 9038TIP3    H148605   1.934   2.885  11.937 -0.0951 -1.1969  1.7096
 9038TIP3    H248606   2.035   2.773  11.924  1.3416  0.2754 -0.4819
 9039TIP3   OH248607   5.203   4.905   0.142 -0.0263  0.0735  0.4133
 9039TIP3    H148608   5.268   4.907   0.072 -1.9851  1.4806 -1.4765
 9039TIP3    H248609   5.155   4.823   0.128  0.3933 -0.2631  0.9160
 9040TIP3   OH248610   1.260   2.924   4.286 -0.2873 -0.2618  0.0562
 9040TIP3    H148611   1.299   2.971   4.212  0.3659 -0.1677  0.4554
 9040TIP3    H248612   1.310   2.952   4.362  0.3242 -1.8260  0.2638
 9041TIP3   OH248613   3.645   5.598   5.402  0.4824 -0.0787 -0.2054
 9041TIP3    H148614   3.622   5.523   5.458 -0.2083  0.5404  0.3472
 9041TIP3    H248615   3.590   5.588   5.325 -0.4394  0.4799  0.3731
 9042TIP3   OH248616   0.384   2.410   3.224  0.6020 -0.4317  0.2756
 9042TIP3    H148617   0.344   2.435   3.140 -2.2163 -0.0307  1.6313
 9042TIP3    H248618   0.446   2.340   3.200 -0.8615 -1.0754 -2.0323
 9043TIP3   OH248619   1.590   1.141  14.604 -0.0599  0.3514 -0.4742
 9043TIP3    H148620   1.499   1.142  14.633  0.0129 -0.2617 -0.2144
 9043TIP3    H248621   1.588   1.094  14.520  0.2555 -1.2736  0.3964
 9044TIP3   OH248622   6.590   5.170   6.525 -0.6690  0.0389  0.0567
 9044TIP3    H148623   6.682   5.185   6.543 -0.5548  0.5893 -0.9143
 9044TIP3    H248624   6.549   5.165   6.611  0.1357  0.6345  0.4883
 9045TIP3   OH248625   4.441   4.755  10.634 -0.2027 -0.1862 -0.3151
 9045TIP3    H148626   4.427   4.841  10.594  2.4213 -0.5117 -2.2361
 9045TIP3    H248627   4.431   4.693  10.561 -2.0072 -1.5817  1.0180
 9046TIP3   OH248628   4.533   2.876   4.272  0.0699  0.0413 -0.2639
 9046TIP3    H148629   4.475   2.947   4.298 -0.5775 -0.7569  0.5841
 9046TIP3    H248630   4.527   2.873   4.177 -0.9582  0.2535 -0.2193
 9047TIP3   OH248631   6.604   6.672  16.887  0.5504 -0.0998  0.2775
 9047TIP3    H148632   6.574   6.763  16.884 -1.1666 -0.6367  0.0969
 9047TIP3    H248633   6.675   6.668  16.823  0.3571  1.0034 -0.0316
 9048TIP3   OH248634   4.672   5.443  12.989  0.6697 -0.3162 -0.3319
 9048TIP3    H148635   4.595   5.490  13.020  2.0558  0.4966  2.0958
 9048TIP3    H248636   4.705   5.497  12.918  0.4033  0.6630  0.2675
 9049TIP3   OH248637   3.880   3.590  13.915 -0.3526  0.7169 -0.4496
 9049TIP3    H148638   3.789   3.616  13.909 -1.2783 -1.8461  0.7596
 9049TIP3    H248639   3.879   3.511  13.970  2.5217  0.2792 -0.8410
 9050TIP3   OH248640   4.692   5.929  11.773  0.0706 -0.0603  0.0433
 9050TIP3    H148641   4.700   5.908  11.680 -3.7480 -1.3216 -0.1676
 9050TIP3    H248642   4.625   5.997  11.777  0.7239  0.5537  1.8748
 9051TIP3   OH248643   0.147   6.032  16.813  0.5356  0.0452  0.5476
 9051TIP3    H148644   0.114   6.121  16.799 -4.0665 -1.0524  2.3871
 9051TIP3    H248645   0.173   6.030  16.905  0.6668 -0.4578  0.5046
 9052TIP3   OH248646   2.508   6.597  14.770  0.1605  0.1594 -0.4065
 9052TIP3    H148647   2.456   6.676  14.758  2.6174  1.9338 -0.1988
 9052TIP3    H248648   2.557   6.612  14.851 -0.1144 -2.0904  0.2480
 9053TIP3   OH248649   1.944   6.641   3.368  0.2974 -0.4276 -0.1026
 9053TIP3    H148650   1.997   6.717   3.396  0.4980 -0.9171  0.9091
 9053TIP3    H248651   1.917   6.600   3.450 -0.9162 -0.7065 -0.6211
 9054TIP3   OH248652   2.130   3.574   5.762  0.0789  0.6975  0.4669
 9054TIP3    H148653   2.184   3.509   5.718 -0.1335  0.7209  0.1651
 9054TIP3    H248654   2.181   3.655   5.759  0.7377  0.3513  1.6379
 9055TIP3   OH248655   0.778   5.197  12.874  0.3380 -0.1556  0.0629
 9055TIP3    H148656   0.820   5.176  12.791  2.2590 -0.5217  1.0678
 9055TIP3    H248657   0.692   5.155  12.869 -0.3933  1.4493 -2.4622
 9056TIP3   OH248658   1.145   4.914   2.481  0.6206 -0.4079  0.3721
 9056TIP3    H148659   1.155   4.864   2.400  0.2948  0.1697 -0.0292
 9056TIP3    H248660   1.233   4.917   2.518  0.9862  0.2049 -0.4980
 9057TIP3   OH248661   6.453   5.722  13.098  0.0638 -0.1183 -0.0099
 9057TIP3    H148662   6.516   5.666  13.054  0.2025 -0.0139  0.0556
 9057TIP3    H248663   6.476   5.811  13.071  0.5241 -0.0068  0.7473
 9058TIP3   OH248664   1.706   4.499   5.211 -0.2132 -0.4797  0.2020
 9058TIP3    H148665   1.747   4.424   5.168 -1.4342 -0.8772 -0.3072
 9058TIP3    H248666   1.660   4.544   5.140 -0.0314  0.3844  0.6254
 9059TIP3   OH248667   3.708   6.153   2.000  0.4369  0.2414 -0.2459
 9059TIP3    H148668   3.749   6.070   1.975 -2.9129 -1.9031  0.7071
 9059TIP3    H248669   3.641   6.167   1.934 -0.8262  0.6860  1.0796
 9060TIP3   OH248670   1.008   4.364  13.209  0.1896 -0.9186  0.3786
 9060TIP3    H148671   0.927   4.380  13.162  0.0570  0.5046  1.0243
 9060TIP3    H248672   1.013   4.269  13.217 -0.0686 -1.1857 -1.9405
 9061TIP3   OH248673   5.652   2.909   2.439 -0.3993 -0.0666  0.2160
 9061TIP3    H148674   5.714   2.864   2.497 -0.5934 -2.8680 -1.5679
 9061TIP3    H248675   5.707   2.961   2.381  0.0525 -0.1822  0.5355
 9062TIP3   OH248676   0.292   5.869   2.473 -0.5942 -0.1295  0.2450
 9062TIP3    H148677   0.229   5.836   2.409  0.8766  0.9693 -1.9093
 9062TIP3    H248678   0.266   5.828   2.555 -2.4203 -1.8663 -1.0786
 9063TIP3   OH248679   6.215   1.788  11.679 -0.5075  0.0189  0.3008
 9063TIP3    H148680   6.306   1.815  11.683 -0.4049 -0.4184  1.0495
 9063TIP3    H248681   6.168   1.855  11.728 -0.1186 -1.6143  3.1686
 9064TIP3   OH248682   3.136   6.769   2.384  0.1462 -0.4613 -0.0864
 9064TIP3    H148683   3.164   6.804   2.300 -1.6609  0.2432 -0.4506
 9064TIP3    H248684   3.062   6.711   2.362  1.1739 -2.1838  0.8006
 9065TIP3   OH248685   5.418   1.148  14.126 -0.0800  0.2390  0.1296
 9065TIP3    H148686   5.345   1.164  14.185 -0.3025 -1.1551  0.2631
 9065TIP3    H248687   5.476   1.089  14.174 -0.6106 -1.4868 -1.2477
 9066TIP3   OH248688   1.045   1.938  14.224 -0.2198 -0.5537  0.2919
 9066TIP3    H148689   1.063   1.892  14.141  0.5389 -1.2496  0.8311
 9066TIP3    H248690   1.094   2.019  14.217 -1.7466  0.3422 -0.7641
 9067TIP3   OH248691   1.813   0.958   2.378 -0.0411 -0.0493 -0.7740
 9067TIP3    H148692   1.792   0.888   2.440  0.6916  0.3406 -0.0577
 9067TIP3    H248693   1.906   0.945   2.357 -0.2327 -0.0597 -1.6450
 9068TIP3   OH248694   5.591   3.672  11.216 -0.0870  0.2984 -0.3774
 9068TIP3    H148695   5.580   3.700  11.308 -1.6188  1.2047 -0.7949
 9068TIP3    H248696   5.502   3.651  11.187  0.3625  0.1606 -1.7044
 9069TIP3   OH248697   0.372   1.666   4.654  0.3515 -0.6799 -0.4730
 9069TIP3    H148698   0.304   1.684   4.718 -0.4400 -2.8074 -0.6427
 9069TIP3    H248699   0.336   1.596   4.599  2.1675 -0.9612 -1.3960
 9070TIP3   OH248700   1.570   5.149   2.779  0.3441 -0.2191  0.5374
 9070TIP3    H148701   1.611   5.122   2.861  0.6184  1.5460  1.0078
 9070TIP3    H248702   1.637   5.201   2.734 -0.4295  0.3849  0.0570
 9071TIP3   OH248703   2.523   3.689  13.162 -0.0274 -0.0880  0.0145
 9071TIP3    H148704   2.451   3.640  13.120 -1.4181  1.8878 -0.0453
 9071TIP3    H248705   2.601   3.662  13.115 -1.0524 -0.6087 -1.4571
 9072TIP3   OH248706   5.095   3.592   5.385  0.1714  0.0051 -0.0790
 9072TIP3    H148707   5.137   3.676   5.366  1.6767  0.1504  3.2198
 9072TIP3    H248708   5.006   3.602   5.353  0.5706  2.4878 -0.6364
 9073TIP3   OH248709   1.012   0.605  12.095  0.6612 -0.2920 -0.0852
 9073TIP3    H148710   0.964   0.638  12.020  1.0506  0.8540  0.1532
 9073TIP3    H248711   1.001   0.672  12.162 -0.3605 -1.6602  1.1863
 9074TIP3   OH248712   1.334   4.465  11.820 -0.3795 -0.1934 -0.2657
 9074TIP3    H148713   1.371   4.386  11.859 -0.5941 -0.5735 -0.8192
 9074TIP3    H248714   1.287   4.434  11.743  0.9104  0.6441 -1.4354
 9075TIP3   OH248715   6.216   0.864  15.130 -0.1489  0.3263  0.2614
 9075TIP3    H148716   6.165   0.787  15.155  1.6111 -0.9087  0.1908
 9075TIP3    H248717   6.230   0.911  15.213  0.3876 -0.4505  0.6214
 9076TIP3   OH248718   2.257   0.580  13.470 -0.0651 -0.0927 -0.9369
 9076TIP3    H148719   2.249   0.567  13.376 -0.8254  1.0129 -1.0462
 9076TIP3    H248720   2.344   0.619  13.482 -0.0518 -0.0369 -1.2127
 9077TIP3   OH248721   3.197   3.957  14.977 -0.8070 -0.2201 -0.4182
 9077TIP3    H148722   3.169   3.888  14.917 -5.6458  1.6246 -0.7104
 9077TIP3    H248723   3.255   4.012  14.925  1.9526 -3.0504 -0.6080
 9078TIP3   OH248724   2.923   4.502   4.151  0.2143  0.2281 -0.0142
 9078TIP3    H148725   2.895   4.506   4.060  0.7180  1.0136 -0.1407
 9078TIP3    H248726   2.895   4.586   4.189 -0.8188 -0.4609  0.8040
 9079TIP3   OH248727   2.035   5.877   0.912  0.0404  0.0059  0.2059
 9079TIP3    H148728   2.049   5.904   0.821 -0.2936  1.4143  0.5463
 9079TIP3    H248729   2.112   5.908   0.959 -0.3108  0.3064  0.5974
 9080TIP3   OH248730   2.050   2.476   0.798  0.2462  0.6386  0.2679
 9080TIP3    H148731   2.134   2.512   0.825  1.4000 -0.8558 -1.1257
 9080TIP3    H248732   2.057   2.466   0.703 -0.8259 -1.1212  0.3150
 9081TIP3   OH248733   3.574   5.228  13.721 -0.0722  0.4732  0.1464
 9081TIP3    H148734   3.500   5.202  13.666 -0.1223  0.9103  0.0054
 9081TIP3    H248735   3.579   5.159  13.788 -1.0727  0.8036  0.5903
 9082TIP3   OH248736   3.086   0.374   6.303  0.5936  0.3849 -0.1702
 9082TIP3    H148737   3.030   0.330   6.368  0.3990  0.3546 -0.3579
 9082TIP3    H248738   3.157   0.412   6.355  1.5140 -1.2875 -0.1437
 9083TIP3   OH248739   0.042   1.891   0.481 -0.1707 -0.0162  0.3575
 9083TIP3    H148740   0.041   1.982   0.451 -0.8681 -0.5710 -1.4648
 9083TIP3    H248741  -0.000   1.893   0.567 -2.6817  1.0489 -0.8037
 9084TIP3   OH248742   5.214   4.889   1.337  0.5502 -0.0437  0.4868
 9084TIP3    H148743   5.141   4.890   1.276  1.4528  1.1143 -0.6205
 9084TIP3    H248744   5.174   4.907   1.422 -0.5237 -0.0704  0.0051
 9085TIP3   OH248745   2.155   4.984   3.409  0.0276 -0.0360 -0.4449
 9085TIP3    H148746   2.229   4.982   3.349  1.1538  1.6864  0.7731
 9085TIP3    H248747   2.115   5.070   3.395  1.0009  0.9055  1.9313
 9086TIP3   OH248748   4.164   6.476   0.879  0.4879  0.1005 -0.1471
 9086TIP3    H148749   4.178   6.410   0.811  0.1975 -0.0345 -0.0765
 9086TIP3    H248750   4.132   6.553   0.832  0.3097  0.0148 -0.1686
 9087TIP3   OH248751   4.969   2.739   4.721 -0.4652 -0.2777 -0.1014
 9087TIP3    H148752   4.926   2.673   4.775  0.6791 -0.3147  0.7906
 9087TIP3    H248753   5.058   2.743   4.754  0.0857  0.1640 -1.5763
 9088TIP3   OH248754   6.109   2.506  16.484  0.0466  0.1578  0.0771
 9088TIP3    H148755   6.097   2.579  16.424 -0.2875  0.2251  0.2190
 9088TIP3    H248756   6.155   2.440  16.433 -1.6081 -0.4091 -0.7827
 9089TIP3   OH248757   3.529   6.626  15.331 -0.5707 -0.5644 -0.2159
 9089TIP3    H148758   3.528   6.721  15.317  0.3084 -0.5669 -0.3096
 9089TIP3    H248759   3.621   6.602  15.325 -0.6630 -1.2579  0.9276
 9090TIP3   OH248760   0.701   5.521   0.184  0.6607  0.4302  0.8109
 9090TIP3    H148761   0.731   5.431   0.182  0.9390  0.5341 -0.1119
 9090TIP3    H248762   0.777   5.571   0.214  0.5632  0.3835  1.1406
 9091TIP3   OH248763   1.950   2.126   5.593 -0.2134  0.2524 -0.1303
 9091TIP3    H148764   2.032   2.175   5.602 -0.7149  0.7775  2.2448
 9091TIP3    H248765   1.882   2.193   5.591 -0.6594 -0.1338 -2.7806
 9092TIP3   OH248766   0.957   1.228   3.958 -0.5975  0.1557  0.9107
 9092TIP3    H148767   0.872   1.184   3.953  0.1439 -1.3401  0.9091
 9092TIP3    H248768   0.955   1.291   3.887 -1.6333  0.0046  0.7869
 9093TIP3   OH248769   6.121   1.626  16.983 -0.3811  0.5571 -0.4785
 9093TIP3    H148770   6.108   1.580  17.067 -0.1866 -1.6619 -1.5864
 9093TIP3    H248771   6.213   1.609  16.961 -0.7057  0.2290 -1.6227
 9094TIP3   OH248772   3.449   3.247   3.416 -0.4435  0.3055 -0.5562
 9094TIP3    H148773   3.484   3.175   3.363 -0.7067 -2.0445  2.2065
 9094TIP3    H248774   3.355   3.230   3.421 -0.5911  1.1663 -0.3160
 9095TIP3   OH248775   6.442   6.597  13.765  0.1109 -0.0332 -0.3637
 9095TIP3    H148776   6.512   6.609  13.829  0.8051 -1.5837 -0.7936
 9095TIP3    H248777   6.485   6.604  13.680 -0.4460  0.0263 -0.6477
 9096TIP3   OH248778   1.802   4.400   5.790  0.5146  0.3612 -0.3962
 9096TIP3    H148779   1.708   4.417   5.797  0.1996 -1.6544  1.5833
 9096TIP3    H248780   1.832   4.396   5.881  2.6485  1.4236 -1.0042
 9097TIP3   OH248781   2.012   0.356  14.146  0.0107  0.2020 -0.6039
 9097TIP3    H148782   2.058   0.427  14.192  0.7863 -0.0103 -1.0332
 9097TIP3    H248783   2.025   0.376  14.053 -0.3263 -0.1556 -0.7287
 9098TIP3   OH248784   2.772   3.444  12.370 -0.0222 -0.2451  0.2181
 9098TIP3    H148785   2.751   3.360  12.411 -1.0765 -0.4442 -0.6654
 9098TIP3    H248786   2.688   3.489  12.364 -0.0343 -0.4352 -2.1325
 9099TIP3   OH248787   2.785   4.745   3.370  0.3250 -0.4632 -0.5815
 9099TIP3    H148788   2.862   4.786   3.410  0.8991 -1.9503 -0.0738
 9099TIP3    H248789   2.735   4.712   3.445  0.2928 -1.3646 -0.9858
 9100TIP3   OH248790   3.233   3.619  10.664 -0.6641  0.6442  0.1596
 9100TIP3    H148791   3.203   3.695  10.614  0.4844  0.6886 -0.4886
 9100TIP3    H248792   3.284   3.568  10.602  0.5286  0.5305  1.1917
 9101TIP3   OH248793   6.518   4.149   5.741  0.6311 -0.3511 -0.2076
 9101TIP3    H148794   6.487   4.167   5.830  0.1477  2.4587 -0.8269
 9101TIP3    H248795   6.452   4.091   5.703  0.4411 -0.9573  0.9965
 9102TIP3   OH248796   5.972   4.342  16.098 -0.4594 -0.0249  0.1260
 9102TIP3    H148797   6.036   4.366  16.031 -0.2939 -0.1230  0.2486
 9102TIP3    H248798   6.002   4.257  16.131  0.6477  0.9614  1.8009
 9103TIP3   OH248799   2.135   5.387   3.116  0.0744 -0.5046 -0.0075
 9103TIP3    H148800   2.152   5.461   3.058 -2.0331  0.4640  0.5017
 9103TIP3    H248801   2.164   5.310   3.067  2.4213  0.6115 -0.5014
 9104TIP3   OH248802   0.070   5.023  16.367  1.0575  0.3034  0.3359
 9104TIP3    H148803   0.137   4.985  16.309 -0.7591 -0.6778 -1.2050
 9104TIP3    H248804   0.025   4.947  16.404 -0.4410  0.9102 -0.1684
 9105TIP3   OH248805   2.987   1.031   2.939 -0.4082  1.0626  0.3422
 9105TIP3    H148806   2.981   0.961   3.003 -0.5386  0.7743  0.0148
 9105TIP3    H248807   3.047   1.095   2.979  2.0671 -0.5531 -0.5803
 9106TIP3   OH248808   5.595   2.236   3.778  0.6118 -0.2912  0.7634
 9106TIP3    H148809   5.642   2.300   3.831 -0.2562  0.4010  0.7258
 9106TIP3    H248810   5.519   2.284   3.745  0.1599 -1.2327  0.4015
 9107TIP3   OH248811   3.952   5.631  12.207 -0.1224  0.1140 -0.5274
 9107TIP3    H148812   3.937   5.726  12.206  0.3367  0.2273  0.8888
 9107TIP3    H248813   4.036   5.621  12.251 -1.0652 -1.0255  1.0875
 9108TIP3   OH248814   6.299   4.924   2.296  0.6842 -0.0068 -0.7036
 9108TIP3    H148815   6.274   5.008   2.334  3.4657  0.3138  0.6314
 9108TIP3    H248816   6.353   4.947   2.221 -0.3420 -0.6595 -1.6773
 9109TIP3   OH248817   5.518   2.960  11.335 -0.4320  0.2899  0.0778
 9109TIP3    H148818   5.585   3.020  11.306 -0.8105  0.6112 -0.1338
 9109TIP3    H248819   5.485   2.919  11.255  0.5227 -0.9587  0.2893
 9110TIP3   OH248820   1.975   2.583   1.783 -0.6161 -0.2111  0.5734
 9110TIP3    H148821   1.882   2.585   1.761 -0.8030 -0.0269  1.3387
 9110TIP3    H248822   1.983   2.516   1.851 -0.0603 -0.7634 -0.0223
 9111TIP3   OH248823   1.709   3.505   6.052 -0.1909  0.2309  0.0520
 9111TIP3    H148824   1.655   3.578   6.022  2.1890  1.4085 -1.6598
 9111TIP3    H248825   1.711   3.514   6.147  0.0676  2.4551 -0.1183
 9112TIP3   OH248826   4.096   0.432   2.431 -0.4872  0.0696 -0.3543
 9112TIP3    H148827   4.178   0.406   2.474 -0.4466 -2.8804 -1.9815
 9112TIP3    H248828   4.028   0.391   2.484 -0.7470  0.2766 -0.5281
 9113TIP3   OH248829   3.396   2.128  13.770  0.3419 -0.3465  0.1675
 9113TIP3    H148830   3.426   2.156  13.856  0.2501  1.3300 -0.3248
 9113TIP3    H248831   3.440   2.186  13.708  0.2131 -1.3537 -0.9115
 9114TIP3   OH248832   1.339   6.158   4.715  0.0351 -0.0145  0.3339
 9114TIP3    H148833   1.392   6.227   4.676 -0.4362  1.3619  2.0412
 9114TIP3    H248834   1.294   6.200   4.788 -1.7175 -1.6753  0.2917
 9115TIP3   OH248835   4.417   3.679   3.314  0.0971 -0.2084  0.1179
 9115TIP3    H148836   4.471   3.675   3.235  0.3164  0.8083  0.1975
 9115TIP3    H248837   4.334   3.640   3.288 -0.2837  1.2727 -1.0199
 9116TIP3   OH248838   3.160   2.794  14.041 -0.4162 -0.2130 -0.7602
 9116TIP3    H148839   3.170   2.771  14.133 -1.0774  1.1298 -0.3279
 9116TIP3    H248840   3.070   2.825  14.033  0.6283  3.3276 -0.9443
 9117TIP3   OH248841   0.833   6.245   3.307 -0.6189  0.1334 -0.4667
 9117TIP3    H148842   0.860   6.252   3.399  0.0792 -1.3110 -0.5311
 9117TIP3    H248843   0.741   6.270   3.307 -0.8123 -0.4839  0.7477
 9118TIP3   OH248844   4.247   1.875  14.484  0.2264  0.4474 -0.5022
 9118TIP3    H148845   4.261   1.860  14.578 -2.3450 -0.3338 -0.1801
 9118TIP3    H248846   4.329   1.847  14.443  1.7750  1.6719  1.5369
 9119TIP3   OH248847   5.575   2.001   3.352 -0.0804  0.6948 -0.0504
 9119TIP3    H148848   5.638   1.989   3.423 -0.5461 -0.0800  0.2414
 9119TIP3    H248849   5.502   2.048   3.392 -0.0705  0.8100 -0.1686
 9120TIP3   OH248850   3.506   1.418  10.887 -0.1945  0.5532  0.0895
 9120TIP3    H148851   3.533   1.354  10.952  1.1647  0.9831 -0.0195
 9120TIP3    H248852   3.432   1.377  10.842  0.4056 -0.7763  0.2657
 9121TIP3   OH248853   1.392   1.029  12.433  0.4267 -0.2656  0.3230
 9121TIP3    H148854   1.433   1.059  12.352  2.0028 -1.7043  0.5448
 9121TIP3    H248855   1.353   0.945  12.410  0.2590 -0.3460  0.8945
 9122TIP3   OH248856   3.398   3.674  14.302 -0.5104  0.2023 -0.0766
 9122TIP3    H148857   3.347   3.751  14.277 -0.6103 -0.6135 -2.7027
 9122TIP3    H248858   3.474   3.676  14.245  0.0202 -1.0793  0.5507
 9123TIP3   OH248859   2.743   2.582   1.451  0.0370  0.4331 -0.5284
 9123TIP3    H148860   2.762   2.664   1.406  1.0396  0.1313 -0.6844
 9123TIP3    H248861   2.751   2.603   1.544 -0.5950  0.7178 -0.5379
 9124TIP3   OH248862   2.684   1.821   4.834 -0.0702  0.0827 -0.1230
 9124TIP3    H148863   2.671   1.729   4.809 -1.1311  0.0792  0.3616
 9124TIP3    H248864   2.595   1.853   4.853  0.2476  1.3043 -0.6099
 9125TIP3   OH248865   6.180   0.363   4.481  0.6150 -0.1011 -0.2858
 9125TIP3    H148866   6.214   0.358   4.571  0.1302 -0.6657 -0.1261
 9125TIP3    H248867   6.159   0.455   4.469  2.4323  0.3334 -0.4859
 9126TIP3   OH248868   5.144   6.166   4.007  0.0889 -0.4650  0.0511
 9126TIP3    H148869   5.083   6.120   3.951  0.1270 -0.4221 -0.0260
 9126TIP3    H248870   5.127   6.259   3.990 -1.2029 -0.3959  1.4947
 9127TIP3   OH248871   0.892   0.631  13.886  0.4689  0.7714 -0.0080
 9127TIP3    H148872   0.810   0.676  13.866  0.5160  2.9100  3.6519
 9127TIP3    H248873   0.948   0.648  13.811 -1.4223  2.0019 -1.2130
 9128TIP3   OH248874   4.413   3.582   0.852 -0.6308 -0.0819  0.0935
 9128TIP3    H148875   4.410   3.563   0.945  0.4408  1.1507  0.4085
 9128TIP3    H248876   4.351   3.654   0.840  0.7500  1.1812  0.2610
 9129TIP3   OH248877   2.597   2.433   1.186  0.3448 -0.0103 -0.7649
 9129TIP3    H148878   2.659   2.419   1.257 -0.0663 -1.3623 -0.6350
 9129TIP3    H248879   2.607   2.525   1.162  0.8662  0.3303  0.6779
 9130TIP3   OH248880   6.545   0.531   5.311 -0.5777  0.3911  0.2321
 9130TIP3    H148881   6.520   0.473   5.383 -0.8215 -0.9414 -0.8804
 9130TIP3    H248882   6.628   0.570   5.340 -0.1822 -0.8452  0.8474
 9131TIP3   OH248883   1.786   5.915   3.763 -0.6520  0.1593 -0.6026
 9131TIP3    H148884   1.877   5.934   3.786 -0.6892 -2.1263  1.7982
 9131TIP3    H248885   1.734   5.975   3.818 -0.6244 -0.0447 -0.3533
 9132TIP3   OH248886   3.670   3.989   4.991  0.1887 -0.2354 -0.1468
 9132TIP3    H148887   3.653   4.083   4.981  0.9736 -0.1010 -0.3228
 9132TIP3    H248888   3.765   3.981   4.980  0.1917 -0.9857  0.3748
 9133TIP3   OH248889   4.788   2.315  12.305 -0.3151 -0.3589 -0.1707
 9133TIP3    H148890   4.872   2.301  12.261 -0.5273 -1.7877 -0.1826
 9133TIP3    H248891   4.746   2.228  12.304 -2.0605  0.4367 -0.7086
 9134TIP3   OH248892   0.360   2.339  12.720 -0.3034  0.2926  0.3667
 9134TIP3    H148893   0.294   2.274  12.694  0.0181  0.8787 -2.0982
 9134TIP3    H248894   0.443   2.294  12.708 -0.1368 -0.2486  2.9273
 9135TIP3   OH248895   4.849   0.804   0.066  0.2208 -0.1764 -0.0175
 9135TIP3    H148896   4.876   0.743  -0.003 -1.4873 -0.6656 -0.2956
 9135TIP3    H248897   4.789   0.864   0.022 -0.0340  0.1842  0.8042
 9136TIP3   OH248898   5.486   5.927   5.626 -0.3230  0.1418 -0.2495
 9136TIP3    H148899   5.563   5.941   5.680  0.4955  2.3176 -1.8474
 9136TIP3    H248900   5.516   5.873   5.554 -0.0733  1.5375 -1.2251
 9137TIP3   OH248901   2.899   5.172   5.420  0.4798 -0.2158  0.2734
 9137TIP3    H148902   2.937   5.092   5.457  1.8518 -0.0888 -0.7897
 9137TIP3    H248903   2.837   5.140   5.354  0.1856 -0.4084  0.6393
 9138TIP3   OH248904   2.082   5.598   4.578  0.7261  0.6949 -0.0588
 9138TIP3    H148905   2.051   5.654   4.649 -0.6232  1.2999 -1.0760
 9138TIP3    H248906   2.145   5.652   4.531  0.4062  0.8830 -0.2718
 9139TIP3   OH248907   5.628   1.607  13.391  0.3088  0.3951 -0.1713
 9139TIP3    H148908   5.537   1.633  13.406  0.0486  0.6770 -1.9548
 9139TIP3    H248909   5.676   1.690  13.381  0.1363  0.3037 -2.3265
 9140TIP3   OH248910   0.685   4.095  12.513  0.2230 -0.1868  0.7758
 9140TIP3    H148911   0.665   4.172  12.567 -0.1057  0.1443  0.2004
 9140TIP3    H248912   0.677   4.127  12.423  0.1630 -0.8824  0.5301
 9141TIP3   OH248913   1.544   3.913   3.001  0.4714 -0.4965 -0.1536
 9141TIP3    H148914   1.618   3.855   2.987  0.2854 -0.4371 -1.4394
 9141TIP3    H248915   1.469   3.854   3.013  0.4534 -0.5383 -0.4654
 9142TIP3   OH248916   5.450   5.607   5.627  0.3624 -0.5120 -0.1999
 9142TIP3    H148917   5.355   5.618   5.618  0.4121 -0.9372 -1.4083
 9142TIP3    H248918   5.471   5.532   5.572  1.3408 -0.7610  0.4798
 9143TIP3   OH248919   3.924   3.031  10.624 -0.7630  0.4818 -0.2698
 9143TIP3    H148920   3.935   2.961  10.688 -2.1998 -0.9467 -1.4634
 9143TIP3    H248921   4.006   3.033  10.575 -0.2982  0.4019  0.5069
 9144TIP3   OH248922   5.203   5.805  13.175 -0.3920 -0.1330 -0.1127
 9144TIP3    H148923   5.214   5.782  13.267  0.4676 -1.1772 -0.4569
 9144TIP3    H248924   5.262   5.879  13.161  0.4912 -0.8237 -0.1256
 9145TIP3   OH248925   3.399   4.937   0.566 -0.1249  0.3136  0.0097
 9145TIP3    H148926   3.440   4.980   0.491  0.7678 -0.4775  0.0326
 9145TIP3    H248927   3.448   4.856   0.577  1.3815  1.4852  2.9365
 9146TIP3   OH248928   4.694   0.137   0.966 -0.2737 -0.4798 -0.6546
 9146TIP3    H148929   4.734   0.050   0.959  0.0341 -0.3504 -0.5229
 9146TIP3    H248930   4.743   0.180   1.037 -0.3746 -0.1722 -0.7717
 9147TIP3   OH248931   0.731   0.154   1.913 -0.4866  0.0977  0.3081
 9147TIP3    H148932   0.760   0.207   1.839  0.8496 -0.5318  0.3566
 9147TIP3    H248933   0.764   0.066   1.895 -1.1762 -0.3370  1.0681
 9148TIP3   OH248934   2.632   3.168   3.881  0.1551 -0.4879  0.2123
 9148TIP3    H148935   2.547   3.155   3.840  0.3361 -0.2702 -0.2316
 9148TIP3    H248936   2.622   3.130   3.969 -0.1857 -1.0719 -0.0734
 9149TIP3   OH248937   3.232   2.763   5.453 -1.0185  0.1997  0.1692
 9149TIP3    H148938   3.246   2.740   5.362 -0.4484  0.1594  0.2680
 9149TIP3    H248939   3.319   2.764   5.492 -1.1621  1.0818  0.5059
 9150TIP3   OH248940   0.387   3.478  13.479 -0.1864 -0.0546 -0.2743
 9150TIP3    H148941   0.401   3.550  13.417  2.5998  0.9038  1.3360
 9150TIP3    H248942   0.296   3.451  13.463 -1.4648  3.9117 -0.8673
 9151TIP3   OH248943   1.911   1.462  11.950  0.0252 -0.0315  0.2208
 9151TIP3    H148944   1.890   1.479  12.041  0.3465 -1.4245  0.5875
 9151TIP3    H248945   1.991   1.408  11.954 -0.5775 -1.0453 -0.8215
 9152TIP3   OH248946   3.932   4.550  12.636 -0.2874  0.0912  0.2702
 9152TIP3    H148947   3.915   4.456  12.631  1.6366 -0.2953  0.5590
 9152TIP3    H248948   3.995   4.567  12.566  1.3845  0.6670  1.8648
 9153TIP3   OH248949   1.489   0.200   0.482  0.5288 -0.1673 -0.3744
 9153TIP3    H148950   1.505   0.295   0.487 -0.3758  0.0263 -1.0002
 9153TIP3    H248951   1.435   0.182   0.559  0.9469 -0.2334 -0.0924
 9154TIP3   OH248952   0.174   5.744   6.943  0.3218 -0.1416  0.0247
 9154TIP3    H148953   0.083   5.734   6.972 -0.0237  1.2552 -0.5175
 9154TIP3    H248954   0.171   5.733   6.848  1.3381 -3.9401  0.2735
 9155TIP3   OH248955   3.031   4.137   4.233  0.2072 -0.6670  1.0361
 9155TIP3    H148956   2.938   4.112   4.234 -0.1744  0.5502  2.9654
 9155TIP3    H248957   3.064   4.104   4.150 -1.6120 -2.3519  0.9073
 9156TIP3   OH248958   4.451   0.864   3.221 -0.6132 -0.1035 -0.0539
 9156TIP3    H148959   4.545   0.852   3.211 -0.2967  1.7895  0.1932
 9156TIP3    H248960   4.425   0.914   3.144 -1.4546 -0.6806 -0.1644
 9157TIP3   OH248961   0.081   0.900  12.083  0.0480  0.0212  1.0902
 9157TIP3    H148962   0.083   0.804  12.084 -3.0416 -0.1559  0.0885
 9157TIP3    H248963  -0.011   0.923  12.092  0.5489  2.8781  0.1011
 9158TIP3   OH248964   2.342   1.656  13.579  0.2241 -0.2398 -0.3109
 9158TIP3    H148965   2.366   1.733  13.631 -1.2800  0.6196 -0.8271
 9158TIP3    H248966   2.302   1.596  13.643  0.6551 -0.2524 -0.0486
 9159TIP3   OH248967   4.523   6.696   1.238  0.3184 -0.1267 -0.0776
 9159TIP3    H148968   4.574   6.635   1.291  0.2016  1.2180  1.6818
 9159TIP3    H248969   4.583   6.727   1.171  1.2943  0.0746  0.8663
 9160TIP3   OH248970   3.230   6.244   3.768  0.4103  0.4203  0.0196
 9160TIP3    H148971   3.161   6.267   3.706  0.9190  0.4107 -0.5633
 9160TIP3    H248972   3.184   6.201   3.840 -0.2569  0.9685 -0.0684
 9161TIP3   OH248973   5.516   0.336   1.718  0.3005  0.2726  0.1704
 9161TIP3    H148974   5.541   0.311   1.629  0.6869  0.0126  0.3528
 9161TIP3    H248975   5.426   0.305   1.728 -0.0941  1.1526 -0.4649
 9162TIP3   OH248976   3.419   5.078  13.152  0.1300  0.6731 -0.0411
 9162TIP3    H148977   3.360   5.126  13.095 -0.8504  0.8154  1.0542
 9162TIP3    H248978   3.371   4.999  13.176  1.2709 -0.3213 -0.8959
 9163TIP3   OH248979   0.844   5.929  16.780 -0.3897 -0.2354 -0.4941
 9163TIP3    H148980   0.770   5.907  16.837 -1.1468 -0.3957 -1.5277
 9163TIP3    H248981   0.807   5.935  16.692  0.6769  0.5171 -0.9162
 9164TIP3   OH248982   5.038   2.500   4.263 -0.0551 -0.2487  0.4050
 9164TIP3    H148983   5.081   2.463   4.340 -1.5294 -1.0820  0.8896
 9164TIP3    H248984   4.988   2.427   4.226  2.0243 -0.3778 -2.4827
 9165TIP3   OH248985   5.659   3.610   5.677  0.4644  0.1354 -0.2366
 9165TIP3    H148986   5.603   3.582   5.605  1.4055  0.7476 -1.2376
 9165TIP3    H248987   5.672   3.531   5.729 -1.1007 -0.0769 -0.1077
 9166TIP3   OH248988   5.236   2.446   3.118  0.3149  0.0041  0.1937
 9166TIP3    H148989   5.273   2.371   3.072 -2.8100 -1.2482 -0.5161
 9166TIP3    H248990   5.311   2.504   3.133  2.3006 -1.7674 -2.0765
 9167TIP3   OH248991   5.884   0.261   0.486  0.1744  0.6052  0.4697
 9167TIP3    H148992   5.931   0.321   0.428  0.0327  0.9322  0.6941
 9167TIP3    H248993   5.820   0.219   0.429  0.1750  0.7747  0.3437
 9168TIP3   OH248994   1.488   3.537  16.237  0.3335  0.2835 -0.3484
 9168TIP3    H148995   1.568   3.551  16.288  0.3156  1.7458 -0.6569
 9168TIP3    H248996   1.518   3.514  16.150  0.3939 -0.4761 -0.1276
 9169TIP3   OH248997   5.905   2.112   0.805  0.2227 -0.8402 -0.4395
 9169TIP3    H148998   5.893   2.098   0.899  1.4291 -0.7905 -0.2560
 9169TIP3    H248999   5.817   2.125   0.770 -0.1986 -0.3647  0.7687
 9170TIP3   OH249000   2.257   3.419  11.382 -0.1092 -0.4377  0.3608
 9170TIP3    H149001   2.164   3.414  11.359 -0.5056 -0.4501  1.8775
 9170TIP3    H249002   2.260   3.483  11.452  1.0596 -0.3678  0.2596
 9171TIP3   OH249003   2.615   4.167   0.911  0.5501  0.0216 -0.6042
 9171TIP3    H149004   2.704   4.137   0.892  0.1133 -2.1456  0.3820
 9171TIP3    H249005   2.563   4.139   0.836  0.3065 -0.9584 -0.0947
 9172TIP3   OH249006   0.930   2.418   2.742  0.3449 -0.4659 -0.4406
 9172TIP3    H149007   0.970   2.337   2.709  2.7128 -0.0064  1.0574
 9172TIP3    H249008   0.914   2.470   2.663  2.5730 -0.7993 -1.1860
 9173TIP3   OH249009   1.394   6.134   2.769 -0.0613 -0.6539 -0.1945
 9173TIP3    H149010   1.387   6.200   2.700 -0.7137  0.2863  0.7407
 9173TIP3    H249011   1.328   6.160   2.834  2.2783  0.0459  2.0448
 9174TIP3   OH249012   5.268   2.831  15.063  0.3975 -0.5780  0.3528
 9174TIP3    H149013   5.230   2.917  15.043 -0.6881 -1.2570 -0.6666
 9174TIP3    H249014   5.362   2.842  15.051  0.2018  0.3004 -0.4325
 9175TIP3   OH249015   6.168   2.877   5.220 -0.3420  0.2954  0.0198
 9175TIP3    H149016   6.116   2.822   5.162 -0.7902 -1.5493  2.0163
 9175TIP3    H249017   6.144   2.848   5.308  1.1980  2.0981  1.1142
 9176TIP3   OH249018   4.805   6.545  15.688 -0.2474 -0.2878  0.1988
 9176TIP3    H149019   4.834   6.627  15.646 -1.3954 -0.7234 -1.5413
 9176TIP3    H249020   4.739   6.573  15.751  1.2155  0.3409  1.5333
 9177TIP3   OH249021   5.152   5.940  14.144  0.0115 -0.0003  0.1330
 9177TIP3    H149022   5.230   5.982  14.179 -0.4397  0.3769  0.7160
 9177TIP3    H249023   5.165   5.846  14.160 -0.0988  0.1465  1.1659
 9178TIP3   OH249024   6.356   5.765   4.769 -0.3009 -0.1599  0.5790
 9178TIP3    H149025   6.441   5.809   4.779  0.4941 -1.0255 -1.6733
 9178TIP3    H249026   6.303   5.827   4.719  0.7911 -1.5408 -2.5204
 9179TIP3   OH249027   1.616   4.807   1.904 -0.8730  0.2115  0.4330
 9179TIP3    H149028   1.651   4.799   1.816  0.8428 -1.3812  1.1869
 9179TIP3    H249029   1.548   4.740   1.910 -1.1315  0.4596  0.2500
 9180TIP3   OH249030   0.731   2.425   4.855 -0.4586  0.3908  0.1816
 9180TIP3    H149031   0.733   2.331   4.870 -1.2881  0.2200 -0.7057
 9180TIP3    H249032   0.728   2.435   4.760 -0.6158  1.3071  0.2679
 9181TIP3   OH249033   5.715   6.230  13.245 -0.4459  0.0463  0.0286
 9181TIP3    H149034   5.625   6.257  13.226 -0.3281 -0.3612 -1.2419
 9181TIP3    H249035   5.710   6.135  13.256 -0.4129  0.2087  1.6006
 9182TIP3   OH249036   0.414   0.973   0.301  0.2400  0.3786  0.3432
 9182TIP3    H149037   0.348   0.964   0.370 -1.3184  0.7349 -1.0446
 9182TIP3    H249038   0.411   1.065   0.277  0.3636  0.1509 -0.5715
 9183TIP3   OH249039   1.399   3.828  10.282 -0.1474 -0.2048 -0.0848
 9183TIP3    H149040   1.430   3.813  10.371 -0.0153 -0.4013 -0.1611
 9183TIP3    H249041   1.310   3.793  10.281 -0.6754  1.0706  0.3482
 9184TIP3   OH249042   0.428   0.648   6.762  0.2529 -0.6813 -0.1696
 9184TIP3    H149043   0.502   0.699   6.795  0.7142 -1.2179 -0.3452
 9184TIP3    H249044   0.399   0.596   6.837 -0.9934  0.7017  0.3405
 9185TIP3   OH249045   4.530   2.358   1.877 -0.2449  0.7048 -0.1578
 9185TIP3    H149046   4.611   2.309   1.863  0.4624  1.6478  0.4870
 9185TIP3    H249047   4.461   2.300   1.844  0.6365 -0.3263 -0.2637
 9186TIP3   OH249048   3.815   1.912  16.904  0.0693 -0.0977  0.8160
 9186TIP3    H149049   3.784   1.989  16.858 -1.4196 -0.8775  0.4701
 9186TIP3    H249050   3.910   1.915  16.895 -0.0357  1.1598 -0.0252
 9187TIP3   OH249051   1.362   6.483  12.510 -0.0005  0.1903  0.4116
 9187TIP3    H149052   1.308   6.406  12.525 -0.0072  0.1370  0.1195
 9187TIP3    H249053   1.353   6.501  12.416 -2.0178  2.0566  0.8720
 9188TIP3   OH249054   4.405   5.155   1.202  0.3032 -0.0769  0.1414
 9188TIP3    H149055   4.377   5.246   1.191  1.3812  0.7233  3.1080
 9188TIP3    H249056   4.429   5.127   1.114 -0.5083  2.3264 -0.9457
 9189TIP3   OH249057   6.187   0.190  17.000 -0.1714  0.0248  0.3725
 9189TIP3    H149058   6.234   0.145  17.070 -0.5153  0.6784  1.0434
 9189TIP3    H249059   6.180   0.281  17.031 -1.2839  0.0842 -0.0189
 9190TIP3   OH249060   1.295   1.439   3.736  0.1151  0.7475  0.4389
 9190TIP3    H149061   1.257   1.522   3.765 -0.5627  1.5645 -2.4586
 9190TIP3    H249062   1.381   1.463   3.700  0.3289  0.0152  0.4418
 9191TIP3   OH249063   2.418   0.248   2.003  0.2424  0.5103 -1.1681
 9191TIP3    H149064   2.385   0.312   2.066  1.2037  1.2026 -1.3419
 9191TIP3    H249065   2.377   0.274   1.920  0.5797  0.8682 -1.2251
 9192TIP3   OH249066   4.462   3.625   6.320  0.3671 -0.7345  0.1004
 9192TIP3    H149067   4.437   3.687   6.388  0.1504  0.8509 -1.3718
 9192TIP3    H249068   4.553   3.602   6.340  1.6863  2.7800 -1.1859
 9193TIP3   OH249069   5.484   3.249   5.639 -0.2588 -0.1171 -0.5173
 9193TIP3    H149070   5.557   3.225   5.582 -0.5661 -1.3647 -0.4094
 9193TIP3    H249071   5.525   3.295   5.712  0.3459 -0.1733 -0.8194
 9194TIP3   OH249072   2.675   3.150  11.091  0.3420  0.6940  0.6990
 9194TIP3    H149073   2.734   3.099  11.036 -2.4754 -2.1248  0.0007
 9194TIP3    H249074   2.699   3.241  11.075  2.2306 -0.1866 -2.1076
 9195TIP3   OH249075   3.697   0.340  11.058 -0.0316  0.8943 -0.4642
 9195TIP3    H149076   3.645   0.272  11.015  0.6493  0.3494 -0.4365
 9195TIP3    H249077   3.701   0.411  10.993 -0.4919  0.7914 -0.6081
 9196TIP3   OH249078   4.335   5.419  12.739  0.0929 -0.2113 -0.7528
 9196TIP3    H149079   4.278   5.473  12.793  3.5937  0.6122  2.6219
 9196TIP3    H249080   4.356   5.474  12.663  0.7178  1.8389  0.7976
 9197TIP3   OH249081   3.621   1.739  15.615 -0.2222  0.2931  0.3627
 9197TIP3    H149082   3.689   1.690  15.568  0.3905  1.0393  0.4510
 9197TIP3    H249083   3.639   1.721  15.708  1.1358  2.0775  0.4996
 9198TIP3   OH249084   0.546   2.659   2.655  0.7332  0.4020 -0.2786
 9198TIP3    H149085   0.458   2.691   2.631  0.3614 -0.0800  0.4252
 9198TIP3    H249086   0.596   2.665   2.574 -0.0196  0.4582 -0.7502
 9199TIP3   OH249087   4.542   3.491   0.466  0.0019 -0.4135 -0.1730
 9199TIP3    H149088   4.460   3.532   0.495  1.1923  1.2248  1.1230
 9199TIP3    H249089   4.575   3.447   0.544  0.4195 -0.9552 -0.6506
 9200TIP3   OH249090   2.295   4.739  15.513 -0.1630 -0.3070 -0.0488
 9200TIP3    H149091   2.378   4.700  15.540 -0.1568 -0.6080 -0.4948
 9200TIP3    H249092   2.305   4.833  15.530 -0.2743 -0.5174  1.2934
 9201TIP3   OH249093   5.950   1.424   2.765  0.1688  0.4309  0.2430
 9201TIP3    H149094   5.919   1.491   2.705 -0.4204 -0.2319 -0.2185
 9201TIP3    H249095   5.888   1.351   2.753  0.3508  0.0943  1.2712
 9202TIP3   OH249096   5.075   4.346   5.346 -0.3380  0.5102 -0.2996
 9202TIP3    H149097   5.165   4.374   5.329 -0.3257 -0.0651 -1.2577
 9202TIP3    H249098   5.081   4.252   5.359 -0.6920  0.5960  0.5467
 9203TIP3   OH249099   4.680   6.771   4.492  0.6031 -0.8962 -0.0185
 9203TIP3    H149100   4.654   6.728   4.411  0.4458 -1.3591  0.2706
 9203TIP3    H249101   4.746   6.835   4.466 -0.2467 -0.2621 -0.6635
 9204TIP3   OH249102   0.072   3.251  13.176 -0.2615 -0.0937 -0.3184
 9204TIP3    H149103   0.008   3.256  13.247  0.2378  0.3722  0.1103
 9204TIP3    H249104   0.061   3.334  13.128 -0.3633 -0.2582 -0.5814
 9205TIP3   OH249105   3.435   4.441   5.953 -0.0651 -0.5270  0.5802
 9205TIP3    H149106   3.524   4.435   5.988 -0.1279 -0.3327  0.7805
 9205TIP3    H249107   3.419   4.536   5.945 -0.3622 -0.5525  0.8294
 9206TIP3   OH249108   5.069   0.410   0.770 -0.7114  0.2498 -0.0227
 9206TIP3    H149109   5.097   0.318   0.766 -2.0977 -0.1813 -0.3698
 9206TIP3    H249110   5.042   0.430   0.680 -1.4152  0.6552  0.2738
 9207TIP3   OH249111   0.426   5.302  13.634  0.1257 -0.1529 -0.1116
 9207TIP3    H149112   0.374   5.331  13.708  0.3528  0.6940 -0.2717
 9207TIP3    H249113   0.390   5.349  13.559 -0.6332 -1.6060 -0.6946
 9208TIP3   OH249114   5.829   2.341   5.829  0.1071  0.0225  0.2371
 9208TIP3    H149115   5.875   2.425   5.836 -1.0367  0.6859  0.2028
 9208TIP3    H249116   5.841   2.300   5.914 -0.4805  0.8664  0.7455
 9209TIP3   OH249117   2.956   3.810  15.325 -0.1628 -0.1991  0.0174
 9209TIP3    H149118   2.938   3.818  15.419  0.6409 -1.2181  0.2695
 9209TIP3    H249119   3.041   3.852  15.314  0.3488 -1.2056 -0.0135
 9210TIP3   OH249120   5.215   4.053  12.807  0.0516 -0.0886  0.1044
 9210TIP3    H149121   5.206   3.987  12.739  1.5522  0.8932 -1.1181
 9210TIP3    H249122   5.136   4.106  12.800 -0.8098 -1.2681  0.5992
 9211TIP3   OH249123   3.470   3.164  16.281 -0.0834  0.1763  0.3602
 9211TIP3    H149124   3.451   3.169  16.188  1.2635  0.8629  0.0853
 9211TIP3    H249125   3.471   3.070  16.300 -1.0136  0.0491 -0.1547
 9212TIP3   OH249126   3.014   5.347  15.145  0.4010 -0.6470  0.0416
 9212TIP3    H149127   3.084   5.309  15.092  0.9718  0.5442 -0.0789
 9212TIP3    H249128   2.964   5.401  15.083  0.8227  0.4187  0.6035
 9213TIP3   OH249129   1.503   1.431  13.048 -0.2379 -0.4491  0.0521
 9213TIP3    H149130   1.576   1.492  13.038 -0.3960 -0.2336  0.2094
 9213TIP3    H249131   1.509   1.374  12.971  2.4099 -2.9161  1.8454
 9214TIP3   OH249132   1.734   0.424  17.108  0.1792 -0.0757 -0.1666
 9214TIP3    H149133   1.755   0.462  17.193 -1.4183  0.3758  0.0561
 9214TIP3    H249134   1.815   0.381  17.080  1.8725  2.7777 -0.0546
 9215TIP3   OH249135   1.452   6.772   5.790  0.6817 -0.8502  0.0226
 9215TIP3    H149136   1.381   6.752   5.852 -0.4952 -0.3476 -1.1155
 9215TIP3    H249137   1.529   6.729   5.828 -0.1750 -1.2485  1.4041
 9216TIP3   OH249138   2.328   3.084  15.361  0.2631  0.1706  0.0299
 9216TIP3    H149139   2.257   3.137  15.324 -1.4572 -1.9353  0.1421
 9216TIP3    H249140   2.348   3.019  15.293  2.9444  1.3607 -0.4623
 9217TIP3   OH249141   4.436   1.985   4.795  0.2038  0.0606  0.2670
 9217TIP3    H149142   4.413   1.927   4.867  0.6495 -1.0733 -0.4804
 9217TIP3    H249143   4.442   2.072   4.835 -1.3620 -0.2453  1.2424
 9218TIP3   OH249144   6.348   3.496  12.332 -0.2115  0.3559 -0.4963
 9218TIP3    H149145   6.383   3.572  12.287 -2.5371  1.2017 -1.0173
 9218TIP3    H249146   6.388   3.421  12.287  2.3630  1.1892  0.2367
 9219TIP3   OH249147   5.819   2.174  13.205 -0.2629  0.5400 -0.1329
 9219TIP3    H149148   5.908   2.147  13.181 -0.8149 -1.0000 -0.5524
 9219TIP3    H249149   5.764   2.098  13.185 -1.8169  1.7441 -0.6958
 9220TIP3   OH249150   4.898   5.667  16.492 -0.1083 -0.3166 -0.4210
 9220TIP3    H149151   4.923   5.641  16.404  0.1610 -1.2699 -0.0738
 9220TIP3    H249152   4.980   5.665  16.542 -0.4377 -0.8985  0.1117
 9221TIP3   OH249153   4.837   2.429   4.672 -0.1086  0.3252 -0.5065
 9221TIP3    H149154   4.752   2.399   4.639 -0.9460  2.3394 -0.3144
 9221TIP3    H249155   4.862   2.501   4.614  1.0340  0.3533 -0.0113
 9222TIP3   OH249156   5.513   6.676  16.046  0.3501  0.3073  0.1163
 9222TIP3    H149157   5.467   6.751  16.006 -0.2914 -0.6037 -0.9035
 9222TIP3    H249158   5.567   6.641  15.975  1.0194  0.0913  0.7256
 9223TIP3   OH249159   1.508   6.814   2.025 -0.3815 -0.2463 -0.5301
 9223TIP3    H149160   1.580   6.825   1.962 -0.7454  0.2177 -0.8805
 9223TIP3    H249161   1.548   6.827   2.110  0.0708 -0.6105 -0.6844
 9224TIP3   OH249162   1.357   4.921  16.718 -0.0254  0.2399 -0.5294
 9224TIP3    H149163   1.354   4.829  16.741 -2.4086  0.4483  0.2556
 9224TIP3    H249164   1.289   4.932  16.652  0.7494  1.3007 -1.1857
 9225TIP3   OH249165   3.058   3.095   3.304 -0.3545 -0.0135  0.5368
 9225TIP3    H149166   3.054   3.187   3.278  1.2338  0.1270  0.6939
 9225TIP3    H249167   3.008   3.048   3.237  1.8860  0.5620 -1.6534
 9226TIP3   OH249168   4.437   1.134  13.298 -0.1220  0.2866  0.3252
 9226TIP3    H149169   4.417   1.225  13.276  0.9870  0.4150 -0.2767
 9226TIP3    H249170   4.360   1.085  13.270 -0.8231  1.0548  0.8540
 9227TIP3   OH249171   3.517   1.104  17.086 -0.0638 -0.1946  0.6205
 9227TIP3    H149172   3.569   1.029  17.058 -0.5111 -0.5441  0.7150
 9227TIP3    H249173   3.568   1.144  17.156  0.2817 -0.2797  0.4188
 9228TIP3   OH249174   2.221   6.443  12.943 -0.1454 -0.2865  0.4066
 9228TIP3    H149175   2.229   6.390  12.863 -3.8326 -0.4326 -0.0517
 9228TIP3    H249176   2.230   6.533  12.913  1.8452 -0.4271  0.4650
 9229TIP3   OH249177   1.944   5.277  14.715  0.0036  0.2773 -0.1008
 9229TIP3    H149178   1.849   5.284  14.711  0.0695  2.0138  0.6293
 9229TIP3    H249179   1.965   5.285  14.808  0.8797  0.2455 -0.2881
 9230TIP3   OH249180   3.117   3.050  11.633  0.2110 -0.0897 -0.2167
 9230TIP3    H149181   3.196   3.037  11.580  0.2714 -0.6102 -0.0030
 9230TIP3    H249182   3.150   3.068  11.721  0.1972  2.9909 -0.7155
 9231TIP3   OH249183   4.776   0.956   5.941  0.4603 -0.5306  0.0914
 9231TIP3    H149184   4.856   0.969   5.890  0.4525 -2.8505 -0.6245
 9231TIP3    H249185   4.805   0.956   6.032  1.1209 -0.4593 -0.1150
 9232TIP3   OH249186   2.711   5.457  12.126  0.3941  0.9706 -0.0815
 9232TIP3    H149187   2.776   5.522  12.101  0.0654  0.6765 -1.7893
 9232TIP3    H249188   2.758   5.373  12.120  0.4827  0.9306  0.9569
 9233TIP3   OH249189   1.772   2.238  16.182  0.4614  0.4051  0.0798
 9233TIP3    H149190   1.798   2.322  16.146 -0.0850  0.6470  0.2326
 9233TIP3    H249191   1.735   2.259  16.267 -0.5179  0.1230 -0.2618
 9234TIP3   OH249192   3.848   0.961   1.371  0.3081 -0.6901  0.0804
 9234TIP3    H149193   3.863   0.866   1.373 -3.0473 -1.4474 -2.4504
 9234TIP3    H249194   3.754   0.970   1.362  0.5281  2.9538  0.1766
 9235TIP3   OH249195   2.966   4.504   3.601 -0.5111  0.5991  0.5446
 9235TIP3    H149196   3.014   4.461   3.672  3.1417 -0.2049 -2.1362
 9235TIP3    H249197   2.970   4.597   3.623  1.5392  0.4684  0.9566
 9236TIP3   OH249198   1.757   6.453  14.640 -0.0315 -0.5298  0.0493
 9236TIP3    H149199   1.841   6.423  14.674  0.4908  0.0539 -0.6970
 9236TIP3    H249200   1.699   6.455  14.716  0.6886 -0.7377  0.6076
 9237TIP3   OH249201   4.549   6.159   0.749 -0.3381  0.1543 -0.0367
 9237TIP3    H149202   4.548   6.171   0.844 -0.8231 -0.3500  0.0255
 9237TIP3    H249203   4.457   6.156   0.724 -0.2429  1.9470 -0.7538
 9238TIP3   OH249204   4.059   1.226   6.155 -0.4729  0.0859  0.0258
 9238TIP3    H149205   4.104   1.145   6.178 -1.2540 -0.4972 -0.4333
 9238TIP3    H249206   4.129   1.287   6.131  0.0655 -0.9151 -1.0443
 9239TIP3   OH249207   3.733   4.388  15.079 -0.1377 -0.0921 -0.0691
 9239TIP3    H149208   3.792   4.444  15.129  0.5252 -0.7834 -0.0661
 9239TIP3    H249209   3.722   4.434  14.996  1.0941 -0.3685 -0.3995
 9240TIP3   OH249210   0.035   6.760  14.403  0.0293 -0.2876 -0.1384
 9240TIP3    H149211   0.085   6.830  14.444  1.7595 -0.3749 -1.9463
 9240TIP3    H249212   0.082   6.680  14.425 -0.5649 -0.6201 -0.0578
 9241TIP3   OH249213   4.971   6.786  13.264  0.1982  0.2885  0.0520
 9241TIP3    H149214   4.910   6.808  13.194 -0.8657  2.0098  1.4259
 9241TIP3    H249215   5.020   6.711  13.231 -0.3594  0.9474 -2.4444
 9242TIP3   OH249216   6.342   2.150  13.063  0.7248 -0.0104  0.5275
 9242TIP3    H149217   6.403   2.225  13.065  0.2948  0.4111 -0.9580
 9242TIP3    H249218   6.396   2.076  13.037  1.0173 -0.0902  1.3328
 9243TIP3   OH249219   5.831   3.446   4.529  0.8080 -0.2247  0.1946
 9243TIP3    H149220   5.870   3.406   4.451  0.1485 -2.7244  1.0567
 9243TIP3    H249221   5.876   3.405   4.602 -0.7534 -0.3186  1.1500
 9244TIP3   OH249222   4.673   3.582   4.790  0.1217 -0.1561  0.8951
 9244TIP3    H149223   4.623   3.629   4.723  0.2999 -0.4431  0.5584
 9244TIP3    H249224   4.748   3.639   4.808  0.9303 -0.7923 -0.3066
 9245TIP3   OH249225   6.646   6.655  13.927  0.1445  0.3404  0.2398
 9245TIP3    H149226   6.646   6.677  14.020 -1.5306  0.4546  0.2422
 9245TIP3    H249227   6.730   6.688  13.895  1.9606 -1.9896  2.2013
 9246TIP3   OH249228   6.720   4.871  11.568  0.2853  0.1754 -0.1890
 9246TIP3    H149229   6.665   4.865  11.490 -0.1702  0.3601  0.1119
 9246TIP3    H249230   6.680   4.941  11.620  2.7008  2.7105 -1.4672
 9247TIP3   OH249231   3.322   6.807  14.926 -0.0085  0.3605 -0.3032
 9247TIP3    H149232   3.374   6.726  14.936  1.0264  1.1695  1.3258
 9247TIP3    H249233   3.366   6.870  14.982 -1.3520  1.8125 -0.8267
 9248TIP3   OH249234   1.228   3.048   1.587 -1.0984  0.3379  0.0034
 9248TIP3    H149235   1.201   3.038   1.679  2.9193  0.6465  1.4371
 9248TIP3    H249236   1.213   3.140   1.568 -0.8892  0.5541  0.8164
 9249TIP3   OH249237   3.174   3.979  14.093 -0.5557 -0.0641  0.1883
 9249TIP3    H149238   3.121   3.911  14.050  0.5847 -1.5739  1.0701
 9249TIP3    H249239   3.128   3.998  14.174 -1.5634  1.2161 -0.6396
 9250TIP3   OH249240   0.205   0.656  16.838  0.4019 -0.2793  0.3876
 9250TIP3    H149241   0.219   0.750  16.844 -0.3069 -0.1704  0.4094
 9250TIP3    H249242   0.111   0.645  16.852  0.7212 -1.1391  2.0477
 9251TIP3   OH249243   3.617   2.942  15.476 -0.0586 -0.7052 -0.2237
 9251TIP3    H149244   3.668   2.867  15.444  0.5610 -0.7539  0.8170
 9251TIP3    H249245   3.632   3.011  15.411 -0.1906 -1.3001 -0.9047
 9252TIP3   OH249246   2.154   5.425   3.530 -0.7734  0.7675 -0.1802
 9252TIP3    H149247   2.231   5.438   3.585 -0.1099 -0.3399 -0.7994
 9252TIP3    H249248   2.187   5.377   3.454 -1.5795  2.5948 -1.7588
 9253TIP3   OH249249   2.235   0.473  13.197  0.0665  0.5104  0.4843
 9253TIP3    H149250   2.285   0.393  13.214  1.1552  1.0160 -0.2787
 9253TIP3    H249251   2.270   0.506  13.115 -2.6663 -0.0209 -1.0296
 9254TIP3   OH249252   2.066   2.048   2.665  0.0281 -0.0504  0.6442
 9254TIP3    H149253   2.111   2.118   2.618 -3.1344  1.8880  0.2484
 9254TIP3    H249254   2.092   1.968   2.619  3.3909  0.7883  0.8246
 9255TIP3   OH249255   0.221   1.341  13.895  0.0369  0.0953 -0.4433
 9255TIP3    H149256   0.273   1.412  13.858 -0.2598  0.6513  0.1957
 9255TIP3    H249257   0.235   1.348  13.990  0.5411 -1.1095 -0.4002
 9256TIP3   OH249258   4.509   0.586   4.557  0.0015 -0.0061  0.0986
 9256TIP3    H149259   4.543   0.655   4.613 -0.7069  0.7558 -0.3996
 9256TIP3    H249260   4.494   0.512   4.617 -0.4592  0.6953  0.8659
 9257TIP3   OH249261   3.956   3.617  11.637  0.6623  0.3248  0.0556
 9257TIP3    H149262   3.895   3.574  11.697  1.1334  0.7766  0.8867
 9257TIP3    H249263   3.930   3.709  11.639  1.1286  0.4556  0.1202
 9258TIP3   OH249264   2.594   5.426  12.644  0.2503  1.0145 -0.1352
 9258TIP3    H149265   2.669   5.411  12.700  1.2512  1.0826 -1.4121
 9258TIP3    H249266   2.631   5.450  12.559 -1.2141  1.9198 -0.5693
 9259TIP3   OH249267   0.373   3.931  13.577 -0.2789  0.2301 -0.4953
 9259TIP3    H149268   0.453   3.906  13.623  0.0749  0.4714 -0.9731
 9259TIP3    H249269   0.307   3.869  13.609  0.4350 -0.9347 -1.1866
 9260TIP3   OH249270   4.235   5.493  15.400 -0.3662 -0.1671  0.0168
 9260TIP3    H149271   4.241   5.399  15.389 -0.1464  0.1215 -3.1097
 9260TIP3    H249272   4.283   5.530  15.326 -2.2456  2.3862 -0.0881
 9261TIP3   OH249273   6.549   6.425  12.189  0.0561 -0.7367 -0.0483
 9261TIP3    H149274   6.557   6.331  12.205  1.1056 -0.6139  0.2109
 9261TIP3    H249275   6.478   6.453  12.246  1.2451 -0.9771  1.6132
 9262TIP3   OH249276   6.030   2.222  15.425  0.0271  0.4563  0.4200
 9262TIP3    H149277   6.050   2.132  15.401 -0.0313  0.6851 -0.5162
 9262TIP3    H249278   5.987   2.215  15.510 -1.6752 -0.5703 -0.4701
 9263TIP3   OH249279   4.806   3.061   2.990 -0.4914 -0.5932  0.5976
 9263TIP3    H149280   4.745   3.122   2.951  1.0888 -0.5760 -2.0614
 9263TIP3    H249281   4.776   2.975   2.961  1.3973 -0.5050 -1.9599
 9264TIP3   OH249282   1.730   1.174   4.581 -0.2943  0.3449  0.5922
 9264TIP3    H149283   1.657   1.231   4.558  0.9249  1.9431  0.5391
 9264TIP3    H249284   1.788   1.229   4.635  0.3854 -1.1786  1.4958
 9265TIP3   OH249285   3.742   2.259  14.862 -0.2436  0.3913 -0.7625
 9265TIP3    H149286   3.832   2.229  14.852  0.0660  1.4197 -1.1939
 9265TIP3    H249287   3.691   2.200  14.807  0.3124  0.4632 -1.3701
 9266TIP3   OH249288   3.914   0.893  11.359 -0.2278  0.0573 -0.5675
 9266TIP3    H149289   3.828   0.856  11.342  0.1623 -0.2814 -1.8328
 9266TIP3    H249290   3.939   0.936  11.277  0.3630  1.0622  0.1118
 9267TIP3   OH249291   5.527   3.085   0.058 -0.7773  0.0012  0.4316
 9267TIP3    H149292   5.532   3.176   0.027  0.1426  0.2448  1.2336
 9267TIP3    H249293   5.601   3.077   0.118 -0.6575 -1.3870  0.1130
 9268TIP3   OH249294   5.251   5.787  13.454 -0.2603  0.1565  0.2559
 9268TIP3    H149295   5.244   5.692  13.462 -2.0370  0.3132  1.0896
 9268TIP3    H249296   5.185   5.821  13.515  1.0463  1.9531  0.7495
 9269TIP3   OH249297   1.342   4.287  13.775 -0.7031 -0.2650 -0.5579
 9269TIP3    H149298   1.349   4.367  13.827 -1.6704 -1.0076  0.7731
 9269TIP3    H249299   1.421   4.288  13.720  1.4496 -0.3742  2.2954
 9270TIP3   OH249300   1.281   5.533  13.338 -0.2945 -0.4084  0.0628
 9270TIP3    H149301   1.254   5.547  13.247 -0.7296 -0.7777  0.1320
 9270TIP3    H249302   1.208   5.566  13.390  0.4206  0.8259  0.3081
 9271TIP3   OH249303   3.732   1.573  10.973 -0.1703  1.1944  0.0550
 9271TIP3    H149304   3.640   1.552  10.960  0.0841 -0.7185  1.0533
 9271TIP3    H249305   3.749   1.551  11.064  1.2865  1.4830 -0.1249
 9272TIP3   OH249306   1.061   1.853  15.733 -0.1656 -0.1616  0.0771
 9272TIP3    H149307   1.112   1.924  15.694  0.6375 -0.4972  0.5105
 9272TIP3    H249308   1.115   1.819  15.804 -1.6207  0.4540  1.5527
 9273TIP3   OH249309   1.477   2.354   0.135 -0.4776  0.0356  0.4400
 9273TIP3    H149310   1.456   2.261   0.131  0.4664 -0.2061  0.7028
 9273TIP3    H249311   1.395   2.399   0.115 -0.4604 -0.8662 -1.9023
 9274TIP3   OH249312   1.022   0.155   2.133 -0.3765 -0.1628  0.1598
 9274TIP3    H149313   0.947   0.096   2.133 -0.1452 -0.4786 -0.7451
 9274TIP3    H249314   0.987   0.239   2.106 -0.3308 -0.4251 -0.7369
 9275TIP3   OH249315   0.927   6.365  15.294 -0.2216 -0.1080 -0.3479
 9275TIP3    H149316   0.971   6.348  15.211  1.7507 -0.5968  0.7483
 9275TIP3    H249317   0.910   6.459  15.294  2.5269  0.4673 -0.0865
 9276TIP3   OH249318   4.227   0.654   6.343  0.0080  0.3806 -0.6120
 9276TIP3    H149319   4.274   0.597   6.403  0.1038 -1.4614 -2.3392
 9276TIP3    H249320   4.226   0.739   6.387  0.6158 -0.7149  1.6664
 9277TIP3   OH249321   6.450   2.945   1.807  0.1157 -0.3961 -0.2370
 9277TIP3    H149322   6.392   2.934   1.882  1.2901 -1.4845  0.5532
 9277TIP3    H249323   6.500   3.025   1.827  0.8527 -1.0161  0.4613
 9278TIP3   OH249324   5.361   5.940  15.454  0.5982 -0.2860  0.6462
 9278TIP3    H149325   5.364   5.866  15.394 -0.2795  0.4538 -0.3532
 9278TIP3    H249326   5.309   6.006  15.408  2.1102  1.2940  1.1271
 9279TIP3   OH249327   6.126   1.999  11.459  1.0650 -0.5781  0.4412
 9279TIP3    H149328   6.070   2.012  11.382  1.1201  0.8519  0.6180
 9279TIP3    H249329   6.105   1.910  11.488  0.2414 -0.7463 -0.5807
 9280TIP3   OH249330   1.247   4.441  13.401  0.2536 -0.2572  0.5344
 9280TIP3    H149331   1.216   4.484  13.480  1.0765  0.7827  0.3089
 9280TIP3    H249332   1.171   4.391  13.370 -0.1363 -0.5106  1.8492
 9281TIP3   OH249333   4.390   1.251  11.164 -0.1101  0.3285 -0.0522
 9281TIP3    H149334   4.411   1.315  11.097  0.7419 -1.2756 -1.3954
 9281TIP3    H249335   4.420   1.291  11.246  2.1428  0.8825 -1.0720
 9282TIP3   OH249336   3.930   4.940  16.289  0.0602 -0.4909 -0.2500
 9282TIP3    H149337   3.932   4.975  16.200  0.0594 -1.1914 -0.5361
 9282TIP3    H249338   4.012   4.970  16.328  0.3229 -0.6436 -0.6740
 9283TIP3   OH249339   2.460   4.983   4.833  0.2478  0.0616 -0.1876
 9283TIP3    H149340   2.466   5.075   4.809 -0.3568  0.4335  1.0491
 9283TIP3    H249341   2.425   4.983   4.922  1.6876 -1.3022  0.4169
 9284TIP3   OH249342   3.098   0.236  12.130  0.2869  0.5276 -0.3529
 9284TIP3    H149343   3.082   0.279  12.214  1.7524 -0.9119  0.7453
 9284TIP3    H249344   3.053   0.290  12.066 -0.3608  2.0293  1.2838
 9285TIP3   OH249345   4.742   1.103   1.934 -0.4152  0.4799  0.0619
 9285TIP3    H149346   4.682   1.157   1.985  0.2906  2.8515 -1.4613
 9285TIP3    H249347   4.733   1.135   1.844  0.6171 -1.4777 -0.8196
 9286TIP3   OH249348   5.463   5.258   3.674 -0.5819 -0.2006 -0.2631
 9286TIP3    H149349   5.482   5.350   3.688 -0.6531 -0.0810 -0.9250
 9286TIP3    H249350   5.548   5.217   3.661 -0.5534 -0.2231 -0.0109
 9287TIP3   OH249351   3.917   0.198   4.715 -0.3435 -0.3026  0.4626
 9287TIP3    H149352   3.853   0.201   4.644 -0.3612  3.0284  0.4627
 9287TIP3    H249353   3.996   0.160   4.674 -1.2456 -1.2529 -0.4646
 9288TIP3   OH249354   3.873   5.124   3.164 -0.0467  0.2689  0.2931
 9288TIP3    H149355   3.841   5.137   3.254  2.2471 -0.8688  1.3424
 9288TIP3    H249356   3.967   5.137   3.170 -0.0294  2.0652 -2.3975
 9289TIP3   OH249357   3.278   6.154   5.211  0.7120  0.0931  0.2683
 9289TIP3    H149358   3.357   6.102   5.227  0.6234 -0.6490 -1.4850
 9289TIP3    H249359   3.310   6.232   5.165  0.6631  0.9373  1.6023
 9290TIP3   OH249360   1.547   2.405   3.493  0.4484  0.2222  0.2193
 9290TIP3    H149361   1.490   2.332   3.472  3.1292 -2.9231  2.6550
 9290TIP3    H249362   1.616   2.403   3.426  1.4230 -0.6945  1.1970
 9291TIP3   OH249363   4.920   6.560   0.745  0.0179 -0.1996 -1.1853
 9291TIP3    H149364   4.850   6.495   0.754 -0.6003  0.5111 -0.6392
 9291TIP3    H249365   4.977   6.526   0.677  0.6720 -2.1684  0.2562
 9292TIP3   OH249366   2.839   2.561   0.711  0.2519 -0.4252 -0.0671
 9292TIP3    H149367   2.832   2.468   0.733 -1.1321 -0.6462 -1.2774
 9292TIP3    H249368   2.933   2.580   0.713  0.4410 -1.2279  2.5175
 9293TIP3   OH249369   2.652   2.604  13.925 -0.0886 -0.5329  0.5611
 9293TIP3    H149370   2.662   2.591  14.020 -0.7373  0.3978  0.7736
 9293TIP3    H249371   2.562   2.635  13.914  0.0416 -0.4425 -0.3371
 9294TIP3   OH249372   4.125   1.143   0.262 -0.4198 -0.6730 -0.1449
 9294TIP3    H149373   4.084   1.221   0.299 -0.7077 -1.6694  1.7632
 9294TIP3    H249374   4.208   1.134   0.310 -0.3578 -1.4900 -0.3888
 9295TIP3   OH249375   0.453   6.818  17.086  0.3944 -0.4932 -0.0018
 9295TIP3    H149376   0.460   6.763  17.009 -0.8957  0.4300 -0.8249
 9295TIP3    H249377   0.366   6.858  17.079  0.1452 -0.5626  2.0463
 9296TIP3   OH249378   5.539   3.336   5.126  0.2277  0.0116 -0.5629
 9296TIP3    H149379   5.539   3.392   5.048  1.7311 -0.2355 -0.7713
 9296TIP3    H249380   5.506   3.252   5.095  3.8240 -1.1344 -1.8343
 9297TIP3   OH249381   4.400   5.166  12.823  0.1401 -0.4435 -0.2051
 9297TIP3    H149382   4.364   5.250  12.793  1.5151  0.1863 -0.1601
 9297TIP3    H249383   4.451   5.134  12.749  0.8131 -0.5232  0.2857
 9298TIP3   OH249384   2.133   2.500  17.046 -0.5157 -0.1314 -0.7619
 9298TIP3    H149385   2.167   2.413  17.028  1.3424  0.4075 -0.1259
 9298TIP3    H249386   2.038   2.489  17.050 -0.5020 -1.6977 -2.8406
 9299TIP3   OH249387   3.109   5.631  16.190  0.5322 -0.1140  0.0744
 9299TIP3    H149388   3.060   5.569  16.136  2.8277 -0.6732 -1.4932
 9299TIP3    H249389   3.083   5.718  16.158 -0.7067 -0.3091  0.4887
 9300TIP3   OH249390   1.352   0.309  12.621 -0.4466  0.4512 -0.6251
 9300TIP3    H149391   1.381   0.340  12.707  0.6154  1.7784 -1.4099
 9300TIP3    H249392   1.307   0.383  12.582 -1.8952 -0.4909 -0.8066
 9301TIP3   OH249393   5.787   5.603   5.555 -0.5139 -0.5313  0.2623
 9301TIP3    H149394   5.729   5.590   5.480  0.4588  0.6818 -0.7592
 9301TIP3    H249395   5.806   5.515   5.587  0.3651 -1.2263 -1.9743
 9302TIP3   OH249396   3.465   6.300  15.255  0.2803  0.1134  0.6353
 9302TIP3    H149397   3.546   6.348  15.267  0.3101 -0.2143  1.9445
 9302TIP3    H249398   3.396   6.365  15.272  0.2812  0.1704  0.4249
 9303TIP3   OH249399   0.242   1.165  14.148  0.6350 -0.3777 -0.4922
 9303TIP3    H149400   0.232   1.073  14.123 -2.1919 -0.0940 -0.7576
 9303TIP3    H249401   0.266   1.161  14.241 -0.8554 -1.4399 -0.1006
 9304TIP3   OH249402   1.331   3.917   0.006 -0.4816  0.0201 -0.0786
 9304TIP3    H149403   1.245   3.887  -0.022 -1.5208  1.3952  1.4787
 9304TIP3    H249404   1.349   3.869   0.086 -0.5739  0.9364  0.5065
 9305TIP3   OH249405   0.577   1.882   0.340 -0.5774  0.1474  0.2197
 9305TIP3    H149406   0.597   1.976   0.334 -2.7432  0.7130  0.8693
 9305TIP3    H249407   0.628   1.842   0.270  0.1885  1.8517 -0.2567
 9306TIP3   OH249408   6.756   6.148   3.123  0.2098 -0.0258 -0.3992
 9306TIP3    H149409   6.786   6.064   3.088  1.9291 -0.0694  0.9988
 9306TIP3    H249410   6.793   6.151   3.212 -2.2448  0.9488  0.6724
 9307TIP3   OH249411   5.620   6.539  13.075 -0.2850  0.6556 -0.4159
 9307TIP3    H149412   5.579   6.602  13.016 -0.9301 -0.6381 -1.3734
 9307TIP3    H249413   5.699   6.511  13.030 -0.8760 -0.4768 -0.7847
 9308TIP3   OH249414   5.404   5.628  13.678  0.0239 -0.2333 -0.2696
 9308TIP3    H149415   5.377   5.720  13.676 -1.3732 -0.6100  0.2519
 9308TIP3    H249416   5.399   5.604  13.770  0.0309 -0.9222 -0.4448
 9309TIP3   OH249417   5.005   5.198   3.208  0.1946  0.0402 -0.1165
 9309TIP3    H149418   4.938   5.130   3.204  1.3162 -1.0307 -2.0348
 9309TIP3    H249419   5.068   5.167   3.273 -0.4972  0.4702  0.7942
 9310TIP3   OH249420   5.530   2.890  15.026  0.1469 -0.4059  0.1877
 9310TIP3    H149421   5.615   2.925  15.052  0.8757 -1.3411 -0.8446
 9310TIP3    H249422   5.542   2.862  14.936 -1.1505 -0.9129  0.1535
 9311TIP3   OH249423   2.517   4.289   1.352  0.7945 -0.8320 -0.4266
 9311TIP3    H149424   2.518   4.378   1.317  0.3083 -0.3876  0.6432
 9311TIP3    H249425   2.609   4.262   1.351  1.2505  0.4794  1.1298
 9312TIP3   OH249426   4.661   3.472   0.229  0.3577  0.3197 -0.4583
 9312TIP3    H149427   4.600   3.450   0.299 -0.3532 -0.3554 -1.2660
 9312TIP3    H249428   4.625   3.551   0.189  0.6220  0.5577 -0.2275
 9313TIP3   OH249429   5.682   5.352   3.450  0.3511  0.6753 -0.2222
 9313TIP3    H149430   5.677   5.257   3.455 -0.2667  0.7320  0.2946
 9313TIP3    H249431   5.657   5.373   3.361  2.7059  0.2187 -1.0688
 9314TIP3   OH249432   3.665   3.122   4.186 -0.0153  0.4901 -0.2155
 9314TIP3    H149433   3.683   3.216   4.191  0.3893  0.5640 -2.2628
 9314TIP3    H249434   3.751   3.081   4.195 -0.3298  0.1771  2.0935
 9315TIP3   OH249435   4.140   3.539  11.331 -0.3071  0.8436  0.4971
 9315TIP3    H149436   4.089   3.482  11.273 -0.1374  1.6060 -0.4289
 9315TIP3    H249437   4.173   3.608  11.273 -0.5444  1.9119  1.5986
 9316TIP3   OH249438   1.618   4.269   6.080 -0.3374  0.2412  0.4128
 9316TIP3    H149439   1.559   4.277   6.154 -0.0091 -1.1422  0.8448
 9316TIP3    H249440   1.705   4.258   6.119  0.0324  0.9078 -0.1972
 9317TIP3   OH249441   0.424   5.078  17.103  0.1916 -0.0223 -0.5818
 9317TIP3    H149442   0.478   5.029  17.165  0.3506 -1.9737 -2.1508
 9317TIP3    H249443   0.483   5.146  17.069  0.6316 -0.0332  0.1401
 9318TIP3   OH249444   1.079   1.799   5.358  0.3911  0.0626  0.2748
 9318TIP3    H149445   1.112   1.884   5.328 -0.5598 -0.3491 -2.1382
 9318TIP3    H249446   1.032   1.819   5.439 -0.2299  1.9354 -0.4997
 9319TIP3   OH249447   3.449   1.108  14.548  0.0853 -0.1784  0.4784
 9319TIP3    H149448   3.486   1.142  14.629  0.5831  1.3540 -0.3531
 9319TIP3    H249449   3.522   1.064  14.505  0.3585  0.7685 -0.0538
 9320TIP3   OH249450   6.050   3.768   3.263  0.7306  0.2794  0.0410
 9320TIP3    H149451   6.025   3.680   3.295 -0.6399  0.4918 -0.3574
 9320TIP3    H249452   6.138   3.781   3.296  1.2820 -1.5861 -0.5639
 9321TIP3   OH249453   2.601   3.668  16.957  0.1211  0.3953 -0.2401
 9321TIP3    H149454   2.544   3.707  17.023 -0.8602  0.9851 -1.4083
 9321TIP3    H249455   2.644   3.742  16.914 -0.4250  0.1179 -1.2960
 9322TIP3   OH249456   1.459   5.010  11.056  0.3641  0.6239 -0.4543
 9322TIP3    H149457   1.485   5.065  11.129 -0.5283  0.5826 -0.0979
 9322TIP3    H249458   1.443   5.071  10.984 -2.6557  1.1335  0.4972
 9323TIP3   OH249459   4.687   1.473   5.467 -0.1642  0.4055  0.1113
 9323TIP3    H149460   4.648   1.559   5.480 -1.8777 -0.3782  0.3818
 9323TIP3    H249461   4.698   1.438   5.555  1.6849  0.8038  0.0720
 9324TIP3   OH249462   4.826   4.534  10.791  0.3553  0.4216  0.4599
 9324TIP3    H149463   4.796   4.451  10.752  1.4219 -0.1135  0.7266
 9324TIP3    H249464   4.777   4.601  10.744  0.5273 -0.2827 -0.8053
 9325TIP3   OH249465   6.770   0.196  16.801  0.2340 -0.2467  0.2544
 9325TIP3    H149466   6.799   0.140  16.729 -0.5126  0.3054 -0.5059
 9325TIP3    H249467   6.674   0.190  16.798  0.1826  0.1899  0.8787
 9326TIP3   OH249468   3.634   1.755   4.782 -0.2309 -0.2546  0.2249
 9326TIP3    H149469   3.659   1.693   4.713  0.0351  0.8638 -0.7150
 9326TIP3    H249470   3.699   1.741   4.851 -0.4731 -1.3579  0.2429
 9327TIP3   OH249471   4.090   6.589  11.200 -0.0407  0.0431  0.3983
 9327TIP3    H149472   4.152   6.548  11.260 -1.1665 -0.1270  1.4893
 9327TIP3    H249473   4.127   6.674  11.180  1.0292 -0.4520  0.2232
 9328TIP3   OH249474   5.963   4.283   5.350 -0.4182  0.1960 -0.3987
 9328TIP3    H149475   5.874   4.312   5.370 -0.5783 -1.3665  1.5116
 9328TIP3    H249476   5.957   4.187   5.348  1.3810  0.0117  0.7655
 9329TIP3   OH249477   1.683   6.645  14.390  0.8005 -0.2787  0.1398
 9329TIP3    H149478   1.766   6.693  14.394  0.9732 -0.5171 -0.4787
 9329TIP3    H249479   1.659   6.632  14.482 -0.5693  3.1710  0.3918
 9330TIP3   OH249480   6.186   5.448   1.803 -0.0980 -0.3994  0.0530
 9330TIP3    H149481   6.204   5.364   1.846 -1.0351 -0.6199  0.0326
 9330TIP3    H249482   6.092   5.448   1.789  0.0140  0.2469 -0.8063
 9331TIP3   OH249483   4.516   0.314  13.845  0.2031  0.1134  0.2702
 9331TIP3    H149484   4.423   0.298  13.859  0.1273 -0.9914 -1.2714
 9331TIP3    H249485   4.559   0.274  13.921 -0.4761 -1.0471  0.0635
 9332TIP3   OH249486   5.870   0.179  16.663 -0.0147  0.0005 -0.1749
 9332TIP3    H149487   5.817   0.222  16.730 -0.7442  0.4503 -1.0343
 9332TIP3    H249488   5.807   0.133  16.608  0.4965  0.3620 -1.0812
 9333TIP3   OH249489   4.345   4.848   2.318  0.4318 -0.4515 -0.2710
 9333TIP3    H149490   4.321   4.887   2.233 -1.6692 -0.2453  0.3634
 9333TIP3    H249491   4.383   4.921   2.367  0.1023 -0.1601 -0.4421
 9334TIP3   OH249492   3.893   0.159  16.447 -0.4656 -0.0545 -0.2168
 9334TIP3    H149493   3.846   0.098  16.504 -0.5549 -0.7289 -0.9955
 9334TIP3    H249494   3.984   0.152  16.473 -0.5361 -0.1781 -0.0020
 9335TIP3   OH249495   0.021   0.024  15.216 -0.0298  0.1040  0.4187
 9335TIP3    H149496  -0.054   0.079  15.193 -1.2444 -0.7322  2.1422
 9335TIP3    H249497   0.095   0.064  15.171 -1.4256  1.1977 -1.0280
 9336TIP3   OH249498   4.358   0.388  16.806  0.4046  0.0749 -0.1622
 9336TIP3    H149499   4.416   0.342  16.867 -2.3414 -2.5158  0.7197
 9336TIP3    H249500   4.329   0.465  16.854  1.5963  0.3747  0.1055
 9337TIP3   OH249501   4.150   5.988  11.596  0.1581 -0.3818  0.0299
 9337TIP3    H149502   4.221   5.943  11.551  0.5376  0.3383 -0.1083
 9337TIP3    H249503   4.178   5.993  11.687 -0.6308 -1.8799  0.3812
 9338TIP3   OH249504   6.321   4.069  15.157  0.2567  0.0494  0.8106
 9338TIP3    H149505   6.238   4.106  15.127 -0.4788 -2.3492 -0.4133
 9338TIP3    H249506   6.375   4.144  15.178 -1.2904  1.7668 -0.9659
 9339TIP3   OH249507   0.823   2.537  16.657  0.0383 -0.3725 -0.5878
 9339TIP3    H149508   0.889   2.496  16.712 -0.6603 -5.1403 -2.8593
 9339TIP3    H249509   0.740   2.500  16.687 -0.9709  0.9835 -1.5414
 9340TIP3   OH249510   2.890   6.198   0.297 -0.2151 -0.0256 -0.3051
 9340TIP3    H149511   2.815   6.237   0.342 -1.1787 -1.6140 -0.4400
 9340TIP3    H249512   2.947   6.168   0.367 -0.9003 -0.9801 -0.1335
 9341TIP3   OH249513   0.634   4.666  11.319  0.1981 -0.1654 -0.5328
 9341TIP3    H149514   0.730   4.663  11.326  0.3438 -2.4825 -2.2059
 9341TIP3    H249515   0.616   4.748  11.274  1.4034  0.2047 -0.3954
 9342TIP3   OH249516   5.678   3.238   6.654  0.0881  0.0378  0.4389
 9342TIP3    H149517   5.664   3.292   6.731  0.1749 -0.0831  0.5405
 9342TIP3    H249518   5.769   3.209   6.661  0.1401  0.1496  0.2132
 9343TIP3   OH249519   5.463   4.750   3.406  0.1451 -0.2341  0.5314
 9343TIP3    H149520   5.387   4.694   3.424  1.4920 -2.6521 -0.7035
 9343TIP3    H249521   5.472   4.804   3.484 -2.4342 -0.2999  0.9846
 9344TIP3   OH249522   5.471   0.247   2.865  0.3296 -0.1234 -0.0200
 9344TIP3    H149523   5.484   0.338   2.892  0.6017  0.0958 -0.8658
 9344TIP3    H249524   5.444   0.253   2.773 -0.4037 -0.8577  0.1395
 9345TIP3   OH249525   6.427   6.726  14.414 -0.7026  0.5003 -0.0446
 9345TIP3    H149526   6.430   6.652  14.352 -1.2448  0.7955 -0.4288
 9345TIP3    H249527   6.502   6.711  14.472  0.3061  0.6448 -1.2694
 9346TIP3   OH249528   4.787   6.146  13.751  0.3853  0.3558  0.9835
 9346TIP3    H149529   4.778   6.147  13.847  0.2678 -1.8050  1.0534
 9346TIP3    H249530   4.745   6.065  13.724 -0.9579  1.6754 -1.1077
 9347TIP3   OH249531   4.965   0.076   0.241 -0.8545 -0.2758 -0.1053
 9347TIP3    H149532   4.921  -0.003   0.273 -1.5574 -0.1333 -0.6920
 9347TIP3    H249533   5.058   0.056   0.248 -0.9957 -0.5663  1.2162
 9348TIP3   OH249534   1.859   4.010   2.694  0.4196 -0.1020 -0.0879
 9348TIP3    H149535   1.774   4.043   2.664 -0.1252 -1.0282  0.3936
 9348TIP3    H249536   1.864   4.037   2.786  0.4374 -0.4378  0.0107
 9349TIP3   OH249537   0.858   0.500  12.656  0.1915  0.5330  0.4006
 9349TIP3    H149538   0.772   0.488  12.698 -0.3312  0.7763 -0.5708
 9349TIP3    H249539   0.920   0.495  12.728 -0.5762 -0.4431  1.0276
 9350TIP3   OH249540   4.092   2.153  13.729  0.0123  0.2450  0.4442
 9350TIP3    H149541   4.089   2.228  13.789 -0.9628 -0.0686  0.7970
 9350TIP3    H249542   4.174   2.166  13.680 -0.1015  1.5120  0.5356
 9351TIP3   OH249543   1.588   0.750  12.361  0.0326 -0.5317  0.2061
 9351TIP3    H149544   1.607   0.844  12.356  3.3054 -1.1238 -1.3941
 9351TIP3    H249545   1.664   0.712  12.407 -0.6513 -2.5032 -0.1894
 9352TIP3   OH249546   3.544   3.553  17.125  0.0970 -0.6440 -0.1440
 9352TIP3    H149547   3.520   3.587  17.039  0.3147  2.2665  0.8435
 9352TIP3    H249548   3.596   3.475  17.107 -0.3370 -0.4298 -2.5961
 9353TIP3   OH249549   5.462   2.962   5.347  0.0435 -0.5046 -0.1008
 9353TIP3    H149550   5.503   2.880   5.375  0.1233 -0.2261  0.6268
 9353TIP3    H249551   5.534   3.026   5.349 -0.4516  0.0506  1.4425
 9354TIP3   OH249552   0.440   2.782  15.015 -0.2148 -0.0250  0.2374
 9354TIP3    H149553   0.417   2.762  14.924 -1.9036  2.0001  0.1474
 9354TIP3    H249554   0.370   2.743  15.067 -0.7408  1.1648  0.4383
 9355TIP3   OH249555   6.312   4.282  16.254  0.1040 -0.0808 -0.1504
 9355TIP3    H149556   6.281   4.281  16.163  1.7290 -1.2391 -0.7325
 9355TIP3    H249557   6.402   4.252  16.249  1.6515  3.6745  1.3607
 9356TIP3   OH249558   2.236   5.185   0.881  0.0876 -0.6905  0.2502
 9356TIP3    H149559   2.206   5.102   0.917  0.8898 -1.3840 -0.6213
 9356TIP3    H249560   2.172   5.206   0.812  0.0850 -0.7718  0.2282
 9357TIP3   OH249561   6.720   3.124  11.744 -0.1354  0.6764  0.2388
 9357TIP3    H149562   6.740   3.114  11.651 -0.5616 -1.7897  0.3428
 9357TIP3    H249563   6.785   3.070  11.788  0.3068  2.1327  1.4240
 9358TIP3   OH249564   3.288   3.247   0.029 -0.2718 -0.3222 -0.1656
 9358TIP3    H149565   3.261   3.202  -0.051 -2.0720  0.2243  0.1002
 9358TIP3    H249566   3.217   3.232   0.091  0.4840  0.3725  0.9130
 9359TIP3   OH249567   0.126   2.192  13.729  0.2220  0.2617  0.6219
 9359TIP3    H149568   0.217   2.216  13.744 -0.4877  1.8194  2.8957
 9359TIP3    H249569   0.099   2.145  13.808 -0.8302 -0.6464 -0.2339
 9360TIP3   OH249570   6.827   4.229   3.980 -0.1175 -0.0387 -0.6806
 9360TIP3    H149571   6.821   4.216   4.075  1.2581 -0.7361 -0.6633
 9360TIP3    H249572   6.833   4.324   3.969  0.2817  0.0213 -0.0165
 9361TIP3   OH249573   3.653   3.910  11.400  0.2112  0.4629 -0.4456
 9361TIP3    H149574   3.729   3.852  11.405  0.1279  0.2112 -1.7121
 9361TIP3    H249575   3.646   3.932  11.307  0.8137  3.2726  0.0725
 9362TIP3   OH249576   3.101   3.991   4.455 -0.5565  0.6295 -0.2859
 9362TIP3    H149577   3.069   4.048   4.385 -3.7490  1.1351  1.3763
 9362TIP3    H249578   3.174   4.038   4.495 -2.2384  3.0039  0.1662
 9363TIP3   OH249579   5.442   6.155   0.854 -0.2705 -0.1029 -0.1670
 9363TIP3    H149580   5.489   6.138   0.936  2.7644  1.1146 -1.4919
 9363TIP3    H249581   5.384   6.228   0.875  0.9277  0.6180  0.7875
 9364TIP3   OH249582   2.134   1.294  13.245  0.3258  0.1940  0.5496
 9364TIP3    H149583   2.081   1.288  13.324 -0.5227  0.3468  0.0020
 9364TIP3    H249584   2.184   1.375  13.255  2.3359 -1.1621  2.1880
 9365TIP3   OH249585   0.928   2.600  15.141  0.1532  0.2205 -0.4877
 9365TIP3    H149586   0.961   2.674  15.193 -0.5736 -0.4099  0.9415
 9365TIP3    H249587   0.835   2.619  15.129 -0.6762 -1.5580  2.0794
 9366TIP3   OH249588   5.210   0.415  11.536  0.6040  0.2486 -0.0109
 9366TIP3    H149589   5.283   0.476  11.530  0.0022  0.8874 -1.3051
 9366TIP3    H249590   5.134   0.466  11.508 -0.3905 -0.3391  1.5275
 9367TIP3   OH249591   0.270   0.550   4.114  0.1574 -0.4577 -0.6512
 9367TIP3    H149592   0.230   0.546   4.201  0.3549 -0.9990 -0.5772
 9367TIP3    H249593   0.344   0.489   4.120 -0.8130 -1.7989 -1.6884
 9368TIP3   OH249594   0.802   3.937  15.137 -0.0626 -0.6024  0.0664
 9368TIP3    H149595   0.896   3.935  15.152 -0.1935 -0.0825  1.0577
 9368TIP3    H249596   0.763   3.908  15.219 -0.8353  2.6232  0.9933
 9369TIP3   OH249597   3.914   3.397  15.857  0.3797  0.2573 -0.0057
 9369TIP3    H149598   3.947   3.418  15.944  1.4903  1.6272 -0.7144
 9369TIP3    H249599   3.833   3.349  15.873  0.4110  0.7211  1.7667
 9370TIP3   OH249600   5.085   6.394  11.615  0.7963  0.2867 -0.6802
 9370TIP3    H149601   5.013   6.342  11.651 -0.0970 -0.2240 -3.0320
 9370TIP3    H249602   5.123   6.438  11.691 -0.4508 -1.3079  0.9594
 9371TIP3   OH249603   0.777   6.188  13.153 -0.3332 -0.0157  0.8188
 9371TIP3    H149604   0.716   6.213  13.084 -0.0186 -2.3069 -0.4050
 9371TIP3    H249605   0.853   6.246  13.140 -0.8496  0.5246  0.1387
 9372TIP3   OH249606   4.326   2.294  13.680  0.2752  0.6344 -0.1445
 9372TIP3    H149607   4.406   2.343  13.699 -0.5116  1.3969  1.4789
 9372TIP3    H249608   4.300   2.323  13.592  0.4377  2.3495  0.3350
 9373TIP3   OH249609   1.613   3.142   0.625 -0.6810  0.3215  0.1073
 9373TIP3    H149610   1.616   3.231   0.589 -0.3988  0.0934 -0.4543
 9373TIP3    H249611   1.703   3.126   0.655 -0.2807 -0.4034 -1.3907
 9374TIP3   OH249612   1.305   0.269  14.518 -0.2167 -0.3504  0.1308
 9374TIP3    H149613   1.252   0.280  14.439  0.0807  2.8356  0.2399
 9374TIP3    H249614   1.392   0.300  14.493 -0.1247  0.7560  1.6713
 9375TIP3   OH249615   2.641   2.350  16.651 -0.3975  0.3203 -0.0371
 9375TIP3    H149616   2.628   2.337  16.557  1.0538 -1.4298 -0.0374
 9375TIP3    H249617   2.567   2.306  16.692 -0.4835  0.1949 -0.3232
 9376TIP3   OH249618   1.420   1.125   4.677 -0.0940  0.4087 -0.4417
 9376TIP3    H149619   1.397   1.044   4.724  2.4176  0.2400  0.7076
 9376TIP3    H249620   1.445   1.186   4.747 -1.0477  1.9044 -1.3520
 9377TIP3   OH249621   2.707   6.057   3.046  0.4522  0.8490  0.0329
 9377TIP3    H149622   2.690   5.984   3.106  0.2562 -0.2090 -1.2642
 9377TIP3    H249623   2.788   6.096   3.078  0.2692  0.4146  1.0718
 9378TIP3   OH249624   2.956   3.302  11.550 -0.4372  0.3146 -0.2675
 9378TIP3    H149625   3.002   3.366  11.604 -0.5505 -1.4348  2.0244
 9378TIP3    H249626   3.022   3.236  11.530 -1.1301 -0.5840  0.3342
 9379TIP3   OH249627   3.126   3.521  10.356  0.0834 -1.3117 -0.1637
 9379TIP3    H149628   3.192   3.475  10.408 -0.1396 -2.0355 -0.5120
 9379TIP3    H249629   3.051   3.530  10.415  0.2599 -1.0607  0.0251
 9380TIP3   OH249630   0.169   1.456   1.973 -0.1710  0.1682 -0.0846
 9380TIP3    H149631   0.213   1.484   1.893 -0.3803  2.2610  0.4706
 9380TIP3    H249632   0.088   1.414   1.943 -0.8653  2.0410 -0.9828
 9381TIP3   OH249633   0.723   3.781   4.895  0.0626 -0.3946  0.0782
 9381TIP3    H149634   0.750   3.760   4.984 -0.4187  0.4881  0.4537
 9381TIP3    H249635   0.771   3.720   4.839  2.1257  0.5242  0.7646
 9382TIP3   OH249636   0.926   0.041  12.386  0.0746  0.1736 -0.1633
 9382TIP3    H149637   0.963   0.128  12.396  0.4294 -0.0605  0.6662
 9382TIP3    H249638   0.848   0.041  12.442  0.2883 -0.1583  0.1391
 9383TIP3   OH249639   3.553   5.076   1.687 -0.2734  0.1749  0.0811
 9383TIP3    H149640   3.502   5.013   1.739 -0.0543  0.4167  0.6021
 9383TIP3    H249641   3.603   5.022   1.625 -1.7236 -0.0177 -0.9544
 9384TIP3   OH249642   1.169   5.432   3.851 -0.5428  0.0332  0.1723
 9384TIP3    H149643   1.204   5.425   3.940 -0.8827  1.5365  0.4500
 9384TIP3    H249644   1.157   5.342   3.823 -0.3336 -0.4678  1.6131
 9385TIP3   OH249645   1.803   1.790   0.276  0.1913 -0.0805 -0.5264
 9385TIP3    H149646   1.793   1.741   0.357  1.8611 -0.4583 -0.5049
 9385TIP3    H249647   1.792   1.724   0.207  0.5223 -0.1073 -0.5539
 9386TIP3   OH249648   1.673   1.845   5.884  0.5640 -0.6836  0.6795
 9386TIP3    H149649   1.762   1.879   5.875 -0.3497  1.2371 -2.3838
 9386TIP3    H249650   1.684   1.750   5.887  2.7222 -0.4735  0.8107
 9387TIP3   OH249651   4.506   4.416  13.993 -0.2145 -0.6070 -0.5524
 9387TIP3    H149652   4.486   4.442  13.903 -1.3809  1.7727  0.3066
 9387TIP3    H249653   4.573   4.477  14.022 -0.3891 -0.8695  0.4402
 9388TIP3   OH249654   0.478   4.966  12.303 -0.3916  0.0862 -0.7520
 9388TIP3    H149655   0.408   4.923  12.254  0.8442 -0.3277 -2.2261
 9388TIP3    H249656   0.530   5.012  12.237  0.6986  0.4254  0.2922
 9389TIP3   OH249657   4.120   5.379   0.775  0.4911 -0.4208 -0.3285
 9389TIP3    H149658   4.116   5.332   0.692 -2.3096  2.7113 -2.2172
 9389TIP3    H249659   4.150   5.467   0.751  0.5571  0.3167  2.1714
 9390TIP3   OH249660   1.283   0.427   3.395 -0.1731 -0.1967 -0.6314
 9390TIP3    H149661   1.299   0.468   3.310  1.2129  0.4509 -0.0890
 9390TIP3    H249662   1.223   0.486   3.440  1.1557  0.8696 -0.1776
 9391TIP3   OH249663   1.873   4.176   0.369  0.1523 -0.4634  0.0532
 9391TIP3    H149664   1.918   4.142   0.446 -1.1531  2.0681  2.0672
 9391TIP3    H249665   1.876   4.271   0.378 -2.0118 -0.1148 -1.8311
 9392TIP3   OH249666   0.686   1.534   0.243  0.0695  0.4481  0.3553
 9392TIP3    H149667   0.675   1.484   0.324 -0.1911 -1.8031 -0.9778
 9392TIP3    H249668   0.762   1.590   0.259  0.0981 -0.0419  2.0998
 9393TIP3   OH249669   2.375   0.162  13.138 -0.1537  0.1607  0.5433
 9393TIP3    H149670   2.324   0.196  13.064 -0.0215  0.4505  0.5823
 9393TIP3    H249671   2.347   0.071  13.147  0.4687 -0.1428 -0.4219
 9394TIP3   OH249672   3.126   4.324   2.746  0.0025 -0.1965 -0.0918
 9394TIP3    H149673   3.128   4.348   2.838 -1.2148  0.6591 -0.2641
 9394TIP3    H249674   3.085   4.237   2.744  0.8661 -0.6265  0.2226
 9395TIP3   OH249675   0.875   6.351  13.738  0.2815 -0.0101  0.0373
 9395TIP3    H149676   0.885   6.407  13.661  0.9500  0.3656  0.3847
 9395TIP3    H249677   0.940   6.282  13.726  0.5483  0.1802  0.3762
 9396TIP3   OH249678   1.963   4.346  14.734  0.3693 -0.0196 -0.1725
 9396TIP3    H149679   1.892   4.344  14.798  0.7904  0.3347  0.3107
 9396TIP3    H249680   2.041   4.325  14.784  0.5100 -1.2221 -0.8502
 9397TIP3   OH249681   1.513   4.219   1.168  0.5937  0.3886  0.3523
 9397TIP3    H149682   1.481   4.306   1.145  4.1348  1.7127 -0.1907
 9397TIP3    H249683   1.551   4.230   1.255  1.2923 -0.5554  0.1802
 9398TIP3   OH249684   4.176   2.397   3.582 -0.1226 -0.1754  0.5192
 9398TIP3    H149685   4.228   2.461   3.631  0.7209 -0.7881  0.4454
 9398TIP3    H249686   4.193   2.418   3.491 -0.1408 -0.2760  0.4932
 9399TIP3   OH249687   4.192   1.545   0.597  0.3442 -0.2485 -0.3640
 9399TIP3    H149688   4.145   1.611   0.546 -0.7437 -0.5334  0.2253
 9399TIP3    H249689   4.237   1.596   0.665 -0.7019 -0.0907  0.2519
 9400TIP3   OH249690   4.369   5.656   1.155 -0.0030 -0.5183 -0.3495
 9400TIP3    H149691   4.285   5.686   1.191  0.3610  0.9623 -0.6857
 9400TIP3    H249692   4.346   5.621   1.069 -0.4021 -1.0315 -0.0447
 9401TIP3   OH249693   3.504   3.770   4.281  0.1284  0.4921  0.4912
 9401TIP3    H149694   3.465   3.821   4.352  1.4307  0.3171  1.3613
 9401TIP3    H249695   3.593   3.751   4.311 -0.0266 -1.5147 -0.2120
 9402TIP3   OH249696   6.811   1.876  14.709  0.0988 -0.4235 -0.0949
 9402TIP3    H149697   6.788   1.958  14.753 -2.1512 -1.3387  0.5960
 9402TIP3    H249698   6.742   1.815  14.735  0.2371 -1.8237 -2.6419
 9403TIP3   OH249699   5.082   3.147  14.406  0.3692  0.3746  0.1721
 9403TIP3    H149700   5.017   3.214  14.427  0.8683  1.0005 -0.2334
 9403TIP3    H249701   5.041   3.064  14.431 -1.0693  0.6283 -1.1996
 9404TIP3   OH249702   1.530   0.257  14.317 -0.2790  0.1074 -0.0178
 9404TIP3    H149703   1.548   0.166  14.293 -1.3434  0.1340 -1.0205
 9404TIP3    H249704   1.500   0.298  14.235 -0.8340  1.0897  0.6552
 9405TIP3   OH249705   1.714   1.999  11.018  0.7654  0.4005  0.0623
 9405TIP3    H149706   1.787   1.990  10.957 -0.2762 -1.5299 -1.0167
 9405TIP3    H249707   1.663   2.073  10.986  0.9407  0.2107 -0.6691
 9406TIP3   OH249708   6.718   3.509  13.497  0.2445  1.0953 -0.1230
 9406TIP3    H149709   6.721   3.587  13.441 -2.8045  0.3690 -1.5353
 9406TIP3    H249710   6.632   3.514  13.539  0.5891 -0.7709  0.8972
 9407TIP3   OH249711   2.592   1.447   5.009 -0.1109  0.2872  0.3130
 9407TIP3    H149712   2.536   1.377   4.977  0.2645 -0.5434  1.4032
 9407TIP3    H249713   2.532   1.509   5.050 -0.3761  0.2122  0.0366
 9408TIP3   OH249714   0.279   5.158   6.465  0.3904 -0.1120 -0.5042
 9408TIP3    H149715   0.299   5.077   6.419  1.6584  1.0013 -1.9908
 9408TIP3    H249716   0.356   5.175   6.519 -0.8683 -1.1369  1.8187
 9409TIP3   OH249717   4.305   0.910   6.428  0.7080  0.6696  0.0373
 9409TIP3    H149718   4.229   0.948   6.471  1.3261 -0.2455  2.0385
 9409TIP3    H249719   4.374   0.977   6.437  0.4275  1.1329 -1.0055
 9410TIP3   OH249720   1.463   0.723  12.042 -0.0114  0.3994 -0.3951
 9410TIP3    H149721   1.389   0.683  12.089 -0.8163  0.8090 -1.2697
 9410TIP3    H249722   1.533   0.728  12.106 -0.0088 -2.0075 -0.1047
 9411TIP3   OH249723   6.346   6.644   3.885  0.5610 -0.0139 -0.0016
 9411TIP3    H149724   6.366   6.727   3.842  0.6540  0.7967  1.5630
 9411TIP3    H249725   6.256   6.625   3.860  1.3763 -0.8876 -2.6066
 9412TIP3   OH249726   5.822   3.454  14.576  0.1771  0.8442 -0.5157
 9412TIP3    H149727   5.895   3.513  14.595  0.7610  0.5508 -1.7543
 9412TIP3    H249728   5.864   3.373  14.546 -0.6478  0.8169 -1.6622
 9413TIP3   OH249729   4.011   1.696  11.288  0.3473 -0.4184  0.1948
 9413TIP3    H149730   4.020   1.785  11.254  1.0663 -0.0350  1.3655
 9413TIP3    H249731   4.100   1.661  11.289  0.0229 -1.3491 -0.7152
 9414TIP3   OH249732   0.865   3.156  12.220 -0.7526 -0.0482 -0.2508
 9414TIP3    H149733   0.813   3.233  12.244  0.2702  0.6406 -0.2035
 9414TIP3    H249734   0.872   3.107  12.302 -0.3778  0.4332  0.0111
 9415TIP3   OH249735   2.049   6.217   6.254  0.2329  0.4188  0.4178
 9415TIP3    H149736   2.136   6.181   6.268  0.9952  1.3653 -1.4286
 9415TIP3    H249737   1.990   6.156   6.297  1.4879 -2.5624 -1.7581
 9416TIP3   OH249738   4.750   3.116  13.085 -0.0354  0.4855 -0.1578
 9416TIP3    H149739   4.844   3.126  13.074 -0.2739  2.5473 -0.7528
 9416TIP3    H249740   4.726   3.181  13.152 -0.9597 -0.4538  0.4652
 9417TIP3   OH249741   5.885   5.906   2.912  0.6290  0.4893 -0.2603
 9417TIP3    H149742   5.853   5.830   2.959  2.0315 -0.7845 -1.2687
 9417TIP3    H249743   5.830   5.978   2.942 -1.7192 -1.1579 -0.3671
 9418TIP3   OH249744   2.297   2.841  13.114 -0.2167 -0.1352  0.0389
 9418TIP3    H149745   2.300   2.749  13.141  0.7302 -0.2683 -0.4659
 9418TIP3    H249746   2.280   2.838  13.020 -1.6517  0.2702  0.2533
 9419TIP3   OH249747   1.547   4.844  16.024 -0.4755 -0.3699  0.3623
 9419TIP3    H149748   1.505   4.789  16.089 -1.8975 -1.2643 -1.2367
 9419TIP3    H249749   1.515   4.933  16.043 -0.0079 -0.4445  1.5273
 9420TIP3   OH249750   0.069   0.527  13.476  0.1813  0.3628 -0.3270
 9420TIP3    H149751   0.044   0.580  13.551 -0.3976 -0.3327 -0.0199
 9420TIP3    H249752   0.135   0.466  13.511 -0.1240  0.0065 -0.3671
 9421TIP3   OH249753   2.848   3.365   0.154  0.5437 -0.5129 -0.2049
 9421TIP3    H149754   2.790   3.431   0.191  2.3128  0.2925  1.2937
 9421TIP3    H249755   2.849   3.383   0.060 -1.3820 -0.4156 -0.2509
 9422TIP3   OH249756   3.068   0.413  13.548  0.2589  0.7196 -0.1594
 9422TIP3    H149757   3.132   0.406  13.619 -0.6034  0.1294  0.5837
 9422TIP3    H249758   3.065   0.325  13.510 -0.4980  0.5942  0.1678
 9423TIP3   OH249759   0.316   3.104   0.297 -0.0526  0.6676  0.0597
 9423TIP3    H149760   0.381   3.150   0.350  1.9423 -2.2306  0.3456
 9423TIP3    H249761   0.236   3.104   0.350  1.1894 -0.0156  1.9945
 9424TIP3   OH249762   5.848   4.512  16.458  0.1311 -0.0266  0.4293
 9424TIP3    H149763   5.936   4.495  16.425 -0.1672 -1.0772  0.1576
 9424TIP3    H249764   5.842   4.462  16.540 -0.2750 -0.1102  0.3540
 9425TIP3   OH249765   3.833   1.639   5.412  0.1748  0.0579 -0.1318
 9425TIP3    H149766   3.844   1.591   5.330 -0.4044 -0.7341  0.2411
 9425TIP3    H249767   3.762   1.701   5.394  0.6384  0.4911 -0.4875
 9426TIP3   OH249768   1.546   2.721  10.459 -0.2212  0.1409 -0.1647
 9426TIP3    H149769   1.466   2.715  10.408  0.6062  0.0156 -1.4840
 9426TIP3    H249770   1.606   2.660  10.417  0.9157  0.9972  0.1676
 9427TIP3   OH249771   2.593   3.313   2.613 -0.2221 -0.1831  0.2977
 9427TIP3    H149772   2.644   3.353   2.683  0.9909  0.4205 -0.8837
 9427TIP3    H249773   2.646   3.238   2.585  0.7946  1.2262 -1.8538
 9428TIP3   OH249774   2.246   3.821   4.864 -0.2264 -0.4675 -0.6900
 9428TIP3    H149775   2.281   3.805   4.777 -1.7527 -0.2733 -1.3853
 9428TIP3    H249776   2.268   3.912   4.883 -0.5736 -0.2684 -1.2230
 9429TIP3   OH249777   4.764   6.773   4.009  0.3204 -0.0232  0.0268
 9429TIP3    H149778   4.782   6.848   4.065  1.3510 -1.8475  2.3339
 9429TIP3    H249779   4.850   6.747   3.974  0.0302 -0.3334 -0.4788
 9430TIP3   OH249780   0.857   4.790   1.359  0.6145 -0.2909  0.3831
 9430TIP3    H149781   0.914   4.823   1.428 -0.3508  0.1556  0.9790
 9430TIP3    H249782   0.771   4.829   1.377  0.4195  0.1223 -1.2682
 9431TIP3   OH249783   5.944   0.641   6.534 -0.4977  0.3985  0.2172
 9431TIP3    H149784   5.989   0.581   6.474 -1.3173 -0.0145 -0.0044
 9431TIP3    H249785   6.014   0.682   6.584  0.1275 -0.1558 -0.1826
 9432TIP3   OH249786   6.494   2.056  13.817 -0.6451 -0.5339 -0.3927
 9432TIP3    H149787   6.544   2.135  13.794  0.8599 -1.6204 -1.0322
 9432TIP3    H249788   6.442   2.037  13.739 -0.8869 -0.2735 -0.2963
 9433TIP3   OH249789   5.213   5.157  14.040 -0.4265  0.2500  0.1238
 9433TIP3    H149790   5.182   5.125  13.955  0.7044 -0.1831 -0.1443
 9433TIP3    H249791   5.192   5.086  14.101 -0.2569  0.0937  0.0012
 9434TIP3   OH249792   4.375   1.627  12.487 -0.1204  0.1342  0.4281
 9434TIP3    H149793   4.359   1.536  12.460 -2.3148  0.3723  0.7362
 9434TIP3    H249794   4.469   1.632  12.498  0.1652 -1.8433 -0.5533
 9435TIP3   OH249795   2.833   1.231  16.611 -0.0861  0.1920 -0.1031
 9435TIP3    H149796   2.899   1.217  16.544  0.2250  0.0720  0.2236
 9435TIP3    H249797   2.750   1.212  16.568 -0.3711  4.0537 -1.7181
 9436TIP3   OH249798   1.571   0.606  16.371  0.2322 -0.3419 -0.3943
 9436TIP3    H149799   1.586   0.559  16.452  0.6265  0.5582  0.0691
 9436TIP3    H249800   1.504   0.671  16.392 -1.6792 -1.8082 -1.4815
 9437TIP3   OH249801   6.273   0.393  13.117 -0.4329  0.0842 -0.1064
 9437TIP3    H149802   6.281   0.363  13.026  3.8642 -0.9854  0.4224
 9437TIP3    H249803   6.303   0.484  13.115  3.2856 -0.9872  0.5753
 9438TIP3   OH249804   1.614   5.806  16.442  0.2432 -0.0912  0.1379
 9438TIP3    H149805   1.649   5.760  16.365 -0.2696 -0.2850  0.0189
 9438TIP3    H249806   1.691   5.822  16.497  0.8278  1.1855 -0.9951
 9439TIP3   OH249807   5.538   6.049   2.275 -0.0974 -0.2151  0.0516
 9439TIP3    H149808   5.451   6.011   2.285  0.1551 -1.1086 -0.9784
 9439TIP3    H249809   5.569   6.060   2.365 -1.5352  0.7831  0.4648
 9440TIP3   OH249810   0.998   0.221  15.620 -0.3169 -0.5250 -0.2157
 9440TIP3    H149811   0.913   0.176  15.629 -1.1878  0.9998 -0.5037
 9440TIP3    H249812   0.989   0.274  15.541  0.2385  1.0358  0.7234
 9441TIP3   OH249813   6.478   3.773  17.101 -0.0046  0.2484  0.2079
 9441TIP3    H149814   6.511   3.685  17.119 -0.6801  0.2394  1.5713
 9441TIP3    H249815   6.384   3.762  17.092 -0.0580  0.7899  0.0749
 9442TIP3   OH249816   5.292   6.521  17.146 -0.1433  0.1968  0.4699
 9442TIP3    H149817   5.370   6.466  17.158  1.2162  1.4711 -1.7984
 9442TIP3    H249818   5.327   6.609  17.135 -1.6847  0.5504 -2.5828
 9443TIP3   OH249819   4.577   2.800  17.095 -0.1382 -0.3774 -0.3732
 9443TIP3    H149820   4.611   2.745  17.166 -1.6820  0.2809  0.9410
 9443TIP3    H249821   4.484   2.778  17.091 -0.5506  1.2964 -0.5847
 9444TIP3   OH249822   3.066   0.425  16.769 -0.1969  0.3599  0.2434
 9444TIP3    H149823   2.996   0.364  16.745  0.6389 -0.2685 -0.7109
 9444TIP3    H249824   3.098   0.458  16.685  1.8804 -0.7870  0.5158
 9445TIP3   OH249825   1.486   2.679  10.978 -0.6721 -0.3869  0.0690
 9445TIP3    H149826   1.487   2.695  11.072  2.1184 -1.8552  0.3857
 9445TIP3    H249827   1.493   2.584  10.969  4.9914 -0.1964 -1.3725
 9446TIP3   OH249828   5.962   3.266   0.771 -0.1852 -0.0132  0.0320
 9446TIP3    H149829   5.991   3.332   0.708 -0.2303  1.0937  1.1425
 9446TIP3    H249830   6.010   3.287   0.851 -3.3833  1.4365  1.7457
 9447TIP3   OH249831   1.324   3.319   3.885  0.0046 -0.0427 -0.7495
 9447TIP3    H149832   1.337   3.412   3.870 -0.3040  0.3098  0.8873
 9447TIP3    H249833   1.229   3.309   3.890  0.0250  0.1462  1.8881
 9448TIP3   OH249834   2.494   4.099  14.745  0.3642 -0.6637  0.1819
 9448TIP3    H149835   2.542   4.096  14.662  0.3980  0.3432  0.1569
 9448TIP3    H249836   2.425   4.164  14.730 -0.8648 -1.9008  0.3026
 9449TIP3   OH249837   0.192   2.268   1.093 -0.7669 -0.3287 -0.2207
 9449TIP3    H149838   0.133   2.211   1.044  0.5786 -2.6402  0.6452
 9449TIP3    H249839   0.279   2.232   1.076 -0.0731  0.0848  2.1164
 9450TIP3   OH249840   0.092   2.094   2.780 -0.2834  0.1381  0.4140
 9450TIP3    H149841   0.157   2.024   2.792 -0.2762 -0.2920 -1.7232
 9450TIP3    H249842   0.143   2.171   2.756 -0.4126  0.4514  1.1205
 9451TIP3   OH249843   0.918   6.213  10.726 -0.1218 -0.6526 -0.3202
 9451TIP3    H149844   0.913   6.251  10.638 -0.9271 -1.8036 -0.8118
 9451TIP3    H249845   1.006   6.233  10.756  0.4111 -0.8176 -1.6845
 9452TIP3   OH249846   4.263   4.670  15.934  0.1677  0.3904 -0.3658
 9452TIP3    H149847   4.253   4.705  16.023  0.0530  0.0107 -0.2262
 9452TIP3    H249848   4.240   4.577  15.942 -2.1790  0.8265 -1.2473
 9453TIP3   OH249849   0.099   2.515   2.698  0.1735 -0.3644 -0.0514
 9453TIP3    H149850   0.063   2.604   2.694  0.3108 -0.3051  0.0330
 9453TIP3    H249851   0.023   2.458   2.684  0.1454 -0.2258 -0.4866
 9454TIP3   OH249852   0.323   6.026  14.894 -0.1895  0.1900  0.0067
 9454TIP3    H149853   0.252   6.090  14.899 -0.7174 -0.3644 -0.3202
 9454TIP3    H249854   0.387   6.066  14.834 -1.0504 -0.0868 -1.1296
 9455TIP3   OH249855   0.132   6.227   0.941 -0.0041  0.7831  0.1144
 9455TIP3    H149856   0.186   6.265   1.010  0.5979 -0.6922  0.5059
 9455TIP3    H249857   0.160   6.270   0.861  2.5248 -0.6073  0.1536
 9456TIP3   OH249858   3.396   2.992   3.760  0.0820  0.0695  0.0004
 9456TIP3    H149859   3.320   3.028   3.713  1.9038  2.6743 -1.2342
 9456TIP3    H249860   3.392   3.033   3.847 -0.2122 -0.2184  0.1226
 9457TIP3   OH249861   5.423   3.818  16.721 -0.1086 -0.1023  0.1311
 9457TIP3    H149862   5.374   3.890  16.760 -2.7643 -1.4471 -0.4549
 9457TIP3    H249863   5.403   3.823  16.627  1.1916 -0.5273 -0.1975
 9458TIP3   OH249864   1.632   0.693   5.274  0.0433 -0.5903 -0.0075
 9458TIP3    H149865   1.536   0.689   5.269 -0.1117  1.9041 -0.2902
 9458TIP3    H249866   1.654   0.656   5.359 -1.3394  0.4089  0.8124
 9459TIP3   OH249867   1.014   3.236   1.013  0.0666  0.3941  0.0642
 9459TIP3    H149868   1.051   3.179   1.081  0.1011  1.2863  0.8148
 9459TIP3    H249869   0.953   3.292   1.060 -1.6565 -0.4988 -1.0298
 9460TIP3   OH249870   2.711   6.504   2.510 -0.6088 -0.2788  0.0683
 9460TIP3    H149871   2.716   6.567   2.582  0.7373 -0.4823  0.1754
 9460TIP3    H249872   2.666   6.428   2.547  0.9727 -0.7866  1.0149
 9461TIP3   OH249873   3.410   5.869  15.865 -0.6148  0.6713  0.4409
 9461TIP3    H149874   3.327   5.902  15.830  0.0944 -0.0352 -2.1233
 9461TIP3    H249875   3.477   5.921  15.821  0.4046 -1.7966 -1.2029
 9462TIP3   OH249876   6.756   2.693  13.788 -0.2616  0.0984  0.6984
 9462TIP3    H149877   6.664   2.685  13.762 -0.0196  0.0293 -0.1630
 9462TIP3    H249878   6.776   2.786  13.777  0.4383 -0.2681 -1.4875
 9463TIP3   OH249879   1.390   3.484   1.360  0.1981 -0.1647  0.3155
 9463TIP3    H149880   1.310   3.534   1.343  0.0558 -0.2074  0.8400
 9463TIP3    H249881   1.433   3.532   1.430  0.7559 -0.0099 -0.1289
 9464TIP3   OH249882   5.189   4.534  16.925 -0.5751 -0.1022 -0.0713
 9464TIP3    H149883   5.234   4.539  17.010  1.4537  1.5640 -1.1512
 9464TIP3    H249884   5.123   4.603  16.929  0.2239  0.6832 -0.2121
 9465TIP3   OH249885   1.608   6.820  12.679 -0.0852  0.0604 -0.3150
 9465TIP3    H149886   1.657   6.738  12.685  0.7981  0.6644  1.3473
 9465TIP3    H249887   1.517   6.795  12.697  0.2458 -0.5107  0.6377
 9466TIP3   OH249888   5.675   2.063  16.943 -0.1918 -0.7448 -0.2036
 9466TIP3    H149889   5.712   1.975  16.946 -3.7707 -2.5199 -1.9730
 9466TIP3    H249890   5.617   2.067  17.019  1.1769  0.8468  0.8370
 9467TIP3   OH249891   5.207   0.481   5.318 -0.1855  0.5798  0.6722
 9467TIP3    H149892   5.248   0.400   5.290  2.2897  1.6884  0.8249
 9467TIP3    H249893   5.118   0.477   5.282  0.3398 -1.5040 -0.5591
 9468TIP3   OH249894   5.152   4.807  14.689  0.3388  0.1977 -0.2740
 9468TIP3    H149895   5.136   4.736  14.627  1.2918  0.2805 -0.6392
 9468TIP3    H249896   5.121   4.773  14.773  0.6278 -0.5897 -0.4759
 9469TIP3   OH249897   6.145   6.246   5.790 -0.0650  0.6931 -0.4324
 9469TIP3    H149898   6.155   6.311   5.719 -1.6955  0.3927 -0.9937
 9469TIP3    H249899   6.051   6.247   5.809  0.1290 -0.3742  0.6556
 9470TIP3   OH249900   3.419   3.278   0.507  0.2960 -0.2197 -0.1138
 9470TIP3    H149901   3.338   3.268   0.557  0.3343 -0.2087 -0.0496
 9470TIP3    H249902   3.487   3.243   0.564  0.3124 -0.3976 -0.2407
 9471TIP3   OH249903   1.589   4.187  11.428  0.4131  0.6950 -0.0280
 9471TIP3    H149904   1.682   4.212  11.428  0.7067 -0.2571  1.4010
 9471TIP3    H249905   1.552   4.235  11.502  0.2553 -0.4874  0.6863
 9472TIP3   OH249906   1.561   4.204  15.302 -0.4154 -0.1988  0.2054
 9472TIP3    H149907   1.604   4.132  15.348 -1.7643 -0.2575  1.4626
 9472TIP3    H249908   1.599   4.283  15.340  0.1353 -0.2210 -0.2678
 9473TIP3   OH249909   4.144   0.520  12.333  0.3074  0.1465  0.1106
 9473TIP3    H149910   4.149   0.576  12.255 -0.4634 -1.0504 -0.8375
 9473TIP3    H249911   4.206   0.449  12.314 -0.7131 -0.7466  0.0677
 9474TIP3   OH249912   2.208   6.773   2.229  0.1804  0.7593 -0.0121
 9474TIP3    H149913   2.145   6.701   2.229  1.1875 -0.1532 -0.7846
 9474TIP3    H249914   2.220   6.793   2.322 -0.4690  0.2571  0.1929
 9475TIP3   OH249915   0.680   5.191  12.321 -0.0930  0.0051  0.2832
 9475TIP3    H149916   0.705   5.099  12.310  0.2270 -0.0719  1.4711
 9475TIP3    H249917   0.705   5.233  12.239  3.0728 -0.2775  0.9700
 9476TIP3   OH249918   2.736   6.626  16.781 -0.6788 -0.1945  0.0637
 9476TIP3    H149919   2.714   6.549  16.729  1.0028 -1.2385  0.8313
 9476TIP3    H249920   2.808   6.667  16.734  0.5136 -0.8646  1.2332
 9477TIP3   OH249921   0.696   6.320   1.591  0.0520 -0.6464  0.0388
 9477TIP3    H149922   0.665   6.246   1.643 -0.3107  0.2732  1.1924
 9477TIP3    H249923   0.791   6.308   1.586 -0.1827 -2.3112 -1.6509
 9478TIP3   OH249924   1.057   6.438   3.717  0.6733 -0.4467  0.5110
 9478TIP3    H149925   1.147   6.427   3.686  0.0053 -2.4082 -0.8840
 9478TIP3    H249926   1.054   6.389   3.799  0.8256 -0.4780  0.4986
 9479TIP3   OH249927   0.333   5.061   2.974 -0.1115  0.0790 -0.0592
 9479TIP3    H149928   0.276   4.994   3.011 -1.1353  1.0063  0.0944
 9479TIP3    H249929   0.317   5.056   2.879 -0.7398  0.5718  0.0114
 9480TIP3   OH249930   6.000   4.789  11.849  0.1490  0.1280  0.1740
 9480TIP3    H149931   5.984   4.879  11.820 -0.7030  0.3196  1.1965
 9480TIP3    H249932   6.007   4.739  11.768  0.2923  1.0635 -0.4016
 9481TIP3   OH249933   1.574   1.792  11.692  0.1203  0.6886 -0.2875
 9481TIP3    H149934   1.629   1.798  11.770 -0.0401 -0.3860 -0.0760
 9481TIP3    H249935   1.576   1.699  11.669  1.8367  1.2570 -2.7871
 9482TIP3   OH249936   4.248   5.030  10.915 -0.0950 -0.0518 -0.0765
 9482TIP3    H149937   4.184   5.100  10.929  1.0432  0.9605  0.1548
 9482TIP3    H249938   4.327   5.074  10.885  1.0968 -1.0569  1.3946
 9483TIP3   OH249939   1.688   0.495  15.343  0.2257  0.4737 -0.0076
 9483TIP3    H149940   1.634   0.443  15.285  1.3317 -0.0438 -0.6068
 9483TIP3    H249941   1.741   0.431  15.391  1.6831  0.9905 -0.8342
 9484TIP3   OH249942   4.168   4.640  17.069  0.3377  0.3083  0.2883
 9484TIP3    H149943   4.076   4.630  17.095  0.5411 -0.7494  0.6618
 9484TIP3    H249944   4.165   4.652  16.974 -0.0927 -1.9869 -0.0507
 9485TIP3   OH249945   5.792   1.082   4.316  0.1378  0.2808 -0.8088
 9485TIP3    H149946   5.762   1.055   4.402  1.5823 -2.8127 -1.1558
 9485TIP3    H249947   5.714   1.077   4.261 -0.1231 -1.2280 -0.3560
 9486TIP3   OH249948   5.801   2.196  11.387 -0.1560  0.3938  0.3727
 9486TIP3    H149949   5.867   2.162  11.327  0.0029  2.4026 -0.6663
 9486TIP3    H249950   5.851   2.237  11.457 -0.3288  0.3936  0.4982
 9487TIP3   OH249951   5.796   4.048  17.083 -0.2289 -0.3193 -0.0024
 9487TIP3    H149952   5.834   4.080  17.001  0.2707  0.1138  0.3988
 9487TIP3    H249953   5.719   3.998  17.055 -0.6567  0.6878 -0.6680
 9488TIP3   OH249954   1.055   6.716   3.709 -0.4137 -0.0761 -0.2080
 9488TIP3    H149955   1.038   6.622   3.699  0.2080 -0.1388 -0.8059
 9488TIP3    H249956   0.996   6.758   3.647 -1.3230 -0.0033  0.6902
 9489TIP3   OH249957   2.343   6.818  16.573 -0.0262  0.5856  0.2724
 9489TIP3    H149958   2.421   6.873  16.581  1.3619 -1.0331 -1.1841
 9489TIP3    H249959   2.345   6.763  16.651  0.1272  0.7459  0.3833
 9490TIP3   OH249960   3.114   2.832   0.166  0.0923  0.0570 -0.2430
 9490TIP3    H149961   3.072   2.890   0.104 -1.5107  0.1715  0.8942
 9490TIP3    H249962   3.125   2.886   0.245 -0.8966 -1.0005  0.6385
 9491TIP3   OH249963   5.783   4.374   4.702 -0.1636  0.2290 -0.3705
 9491TIP3    H149964   5.714   4.384   4.769  0.5509  0.9114  0.2834
 9491TIP3    H249965   5.813   4.284   4.712 -0.3492  0.2001 -0.0436
 9492TIP3   OH249966   6.059   0.075   5.328 -0.8123  0.0964  0.1562
 9492TIP3    H149967   5.991   0.045   5.389  0.0644 -0.7769  0.7453
 9492TIP3    H249968   6.012   0.123   5.260 -1.9950 -0.3704  0.6268
 9493TIP3   OH249969   4.113   6.562   6.264 -0.3758  0.4046 -0.9121
 9493TIP3    H149970   4.085   6.499   6.330  1.4540  1.5951  1.1124
 9493TIP3    H249971   4.096   6.647   6.304  2.3353  1.1557 -1.2119
 9494TIP3   OH249972   2.445   0.342  11.622  0.0422  0.5372  0.5690
 9494TIP3    H149973   2.356   0.328  11.589  0.9232  0.2521 -1.8769
 9494TIP3    H249974   2.433   0.360  11.715 -2.3846 -1.9246  0.8680
 9495TIP3   OH249975   2.968   6.687   0.851  0.5315  0.2986 -0.5200
 9495TIP3    H149976   2.999   6.647   0.769 -0.6054  1.8864 -1.7914
 9495TIP3    H249977   2.979   6.781   0.837 -0.3505  0.6346  0.8906
 9496TIP3   OH249978   6.111   3.074  11.226  0.1728  0.3182  0.0146
 9496TIP3    H149979   6.166   3.144  11.263  1.3746 -0.5417 -0.0999
 9496TIP3    H249980   6.092   3.104  11.137  1.2290  0.2150 -0.2573
 9497TIP3   OH249981   5.287   2.036   0.213 -1.1251 -0.6866 -1.1754
 9497TIP3    H149982   5.270   1.944   0.233 -0.1988 -0.3278  1.6669
 9497TIP3    H249983   5.212   2.082   0.250 -0.0798 -0.0857  0.2575
 9498TIP3   OH249984   4.360   2.999  13.851 -0.1615 -0.0186  0.4221
 9498TIP3    H149985   4.291   2.945  13.890 -0.3404 -0.8182 -0.9278
 9498TIP3    H249986   4.318   3.043  13.778  1.0307 -1.6889 -1.3826
 9499TIP3   OH249987   2.656   5.737   5.174  0.1809 -0.5875 -0.5515
 9499TIP3    H149988   2.591   5.772   5.113  0.5964  1.4222  0.0761
 9499TIP3    H249989   2.612   5.736   5.259  0.9641  1.0211 -0.0764
 9500TIP3   OH249990   6.065   2.079   2.917  0.1474 -0.0284 -0.2143
 9500TIP3    H149991   6.052   2.172   2.899 -1.0988 -0.2852 -0.7948
 9500TIP3    H249992   6.152   2.060   2.884 -0.2485  0.5703 -1.6837
 9501TIP3   OH249993   3.414   6.543  15.941  0.0036 -0.1231 -0.2944
 9501TIP3    H149994   3.475   6.585  16.001 -0.1302  0.8630 -0.8323
 9501TIP3    H249995   3.390   6.611  15.878 -0.1061 -1.0371 -1.2825
 9502TIP3   OH249996   0.270   0.571   0.840  0.2758  0.1755 -0.2358
 9502TIP3    H149997   0.300   0.619   0.917 -1.6656 -1.9657  2.0909
 9502TIP3    H249998   0.197   0.623   0.805  1.5032  1.4223 -1.0049
 9503TIP3   OH249999   5.281   1.882   3.262  0.1371 -0.1828 -0.2622
 9503TIP3    H150000   5.300   1.972   3.289 -2.4805  0.3761 -0.0842
 9503TIP3    H250001   5.291   1.883   3.166  0.1472  0.2768 -0.2560
 9504TIP3   OH250002   2.353   4.978  10.570  0.5693  0.1917 -0.2564
 9504TIP3    H150003   2.385   5.019  10.489 -0.0457 -0.6004 -0.9144
 9504TIP3    H250004   2.323   5.052  10.624 -1.2723  0.6024 -1.7512
 9505TIP3   OH250005   0.009   0.614  12.178  0.6448  0.1747 -0.2013
 9505TIP3    H150006  -0.004   0.554  12.104 -0.3684  0.1573 -0.0268
 9505TIP3    H250007  -0.080   0.634  12.208  1.0540 -0.3143  1.4077
 9506TIP3   OH250008   6.260   5.475   2.411 -0.0533  0.0808 -0.0377
 9506TIP3    H150009   6.301   5.462   2.496 -0.6374  0.2804  0.2764
 9506TIP3    H250010   6.209   5.555   2.420 -2.8189 -1.5985  0.5112
 9507TIP3   OH250011   3.292   0.467  12.626 -0.0465  0.6261  0.9068
 9507TIP3    H150012   3.356   0.435  12.690  1.0045  1.0865  0.1298
 9507TIP3    H250013   3.242   0.390  12.601  1.8446 -0.2933 -0.2879
 9508TIP3   OH250014   3.798   4.318   5.815  0.2945  0.2607  0.2082
 9508TIP3    H150015   3.747   4.238   5.804 -1.8761  1.8400 -2.8138
 9508TIP3    H250016   3.763   4.358   5.894 -1.7180  0.2287 -0.6090
 9509TIP3   OH250017   4.469   3.120   2.837 -0.0824 -0.5685  0.2769
 9509TIP3    H150018   4.500   3.041   2.793 -3.6058 -1.1454 -1.4616
 9509TIP3    H250019   4.546   3.178   2.837  1.5643 -2.5448 -1.8848
 9510TIP3   OH250020   6.400   1.646  10.831  0.2806  0.0505 -0.0231
 9510TIP3    H150021   6.401   1.636  10.736 -2.5318 -0.4052 -0.0882
 9510TIP3    H250022   6.489   1.624  10.858  0.8223 -1.0772 -2.4277
 9511TIP3   OH250023   4.978   0.170  15.617 -0.3971  0.1653  0.2031
 9511TIP3    H150024   4.970   0.190  15.524 -1.0119  0.0854  0.2326
 9511TIP3    H250025   4.924   0.236  15.661 -0.1099  0.2043  0.5046
 9512TIP3   OH250026   1.436   0.811   0.772  0.0590  0.1967 -0.0461
 9512TIP3    H150027   1.397   0.727   0.796  0.0486  0.3541  0.4760
 9512TIP3    H250028   1.444   0.806   0.676  2.0175 -1.2801  0.1302
 9513TIP3   OH250029   5.188   3.794   0.640  0.6359  0.2270 -0.0266
 9513TIP3    H150030   5.215   3.733   0.571  1.3986  0.0094  0.4496
 9513TIP3    H250031   5.252   3.866   0.634  0.2540  0.5709 -0.0311
 9514TIP3   OH250032   2.018   4.437   3.899 -0.0997 -0.2336 -0.1793
 9514TIP3    H150033   2.015   4.532   3.888 -1.1677 -0.1389  0.7868
 9514TIP3    H250034   1.964   4.419   3.975  2.4562 -1.3672  1.5357
 9515TIP3   OH250035   3.505   5.686  14.094  0.0600 -0.7048 -0.1847
 9515TIP3    H150036   3.556   5.736  14.030 -0.2875 -1.8147 -1.3923
 9515TIP3    H250037   3.570   5.650  14.154  0.6296 -1.2012 -1.0586
 9516TIP3   OH250038   5.009   0.587  13.805 -0.4623 -0.0594  0.6290
 9516TIP3    H150039   5.000   0.682  13.812  1.3736  0.5543 -2.9878
 9516TIP3    H250040   4.920   0.555  13.798 -1.0662  1.5945  0.2086
 9517TIP3   OH250041   5.064   6.244  11.901  0.5625 -0.0653 -0.4248
 9517TIP3    H150042   5.062   6.183  11.974 -1.3491  4.4340  3.9109
 9517TIP3    H250043   5.152   6.281  11.902  0.0056  1.3532  1.1286
 9518TIP3   OH250044   6.453   3.063  15.308  0.2675  0.1608 -0.0805
 9518TIP3    H150045   6.465   3.053  15.402 -0.5108  0.5089  0.0585
 9518TIP3    H250046   6.391   3.135  15.298  0.5035  0.2685 -0.8656
 9519TIP3   OH250047   6.058   4.629  16.836 -0.6289  0.1611  0.4555
 9519TIP3    H150048   6.109   4.635  16.755  2.2826 -2.2184  1.9092
 9519TIP3    H250049   6.073   4.713  16.880  2.1929 -0.3978  0.7767
 9520TIP3   OH250050   4.866   3.385  13.467 -0.1395  0.1033  0.6445
 9520TIP3    H150051   4.794   3.436  13.430 -0.4767 -0.4565  0.5214
 9520TIP3    H250052   4.896   3.438  13.542 -0.9318  0.1630  0.9317
 9521TIP3   OH250053   0.226   3.850   2.853  0.0634 -0.1395 -0.0574
 9521TIP3    H150054   0.212   3.844   2.947 -0.8508  0.6744 -0.1308
 9521TIP3    H250055   0.318   3.827   2.841  0.6995  1.5564  1.2331
 9522TIP3   OH250056   5.217   1.295   5.847  0.0958 -0.7478 -0.2319
 9522TIP3    H150057   5.287   1.273   5.909  0.8243 -1.0313 -1.1250
 9522TIP3    H250058   5.139   1.304   5.901  0.8484 -0.2741  0.8188
 9523TIP3   OH250059   0.902   3.968  10.915 -0.2162 -0.0774 -0.1464
 9523TIP3    H150060   0.950   3.984  10.996 -0.3574  0.4582 -0.1693
 9523TIP3    H250061   0.958   3.907  10.866 -0.5582 -1.1597  0.7473
 9524TIP3   OH250062   2.790   6.038  14.522 -0.5126 -0.2608  0.5976
 9524TIP3    H150063   2.794   6.050  14.427 -1.4335 -1.3418  0.4090
 9524TIP3    H250064   2.835   5.955  14.537  1.2180  0.7496  1.3265
 9525TIP3   OH250065   5.831   3.093  14.872  0.2010 -0.2599 -0.5831
 9525TIP3    H150066   5.829   3.057  14.783  2.5590 -0.6994 -0.5337
 9525TIP3    H250067   5.898   3.041  14.916 -0.5169  0.3464  1.2895
 9526TIP3   OH250068   4.414   0.780  14.656 -0.0258 -0.0581  0.1926
 9526TIP3    H150069   4.349   0.809  14.592 -2.1281  1.5794  2.8431
 9526TIP3    H250070   4.484   0.741  14.604 -0.3606  3.4288 -3.3064
 9527TIP3   OH250071   4.357   3.626   2.075  0.7414  0.1539  0.4853
 9527TIP3    H150072   4.347   3.679   2.153  0.9110  1.4207 -0.3173
 9527TIP3    H250073   4.296   3.553   2.086  0.9890  0.1519  1.9142
 9528TIP3   OH250074   4.450   3.045  12.306  0.1862  0.6825 -0.5901
 9528TIP3    H150075   4.393   3.081  12.239 -2.9396 -1.0323  0.9474
 9528TIP3    H250076   4.513   2.992  12.257 -2.2867 -0.9431 -2.2441
 9529TIP3   OH250077   4.158   1.227  11.972  0.0095 -0.0806  0.1833
 9529TIP3    H150078   4.189   1.266  11.890 -2.3156  1.7542  0.0769
 9529TIP3    H250079   4.085   1.171  11.946 -0.0798 -0.3161  0.9181
 9530TIP3   OH250080   1.791   4.216  12.667  0.6133 -0.2352 -0.6612
 9530TIP3    H150081   1.847   4.292  12.681  1.0040 -0.7329  0.5890
 9530TIP3    H250082   1.819   4.181  12.582  0.7261  0.7477 -1.0387
 9531TIP3   OH250083   5.110   5.255  11.682 -0.0273  0.0533  0.4323
 9531TIP3    H150084   5.179   5.308  11.722  0.0034 -1.8818  3.2251
 9531TIP3    H250085   5.029   5.301  11.702  0.2227  1.1678 -0.9189
 9532TIP3   OH250086   5.242   5.450  12.082 -0.2328 -0.3450  0.7381
 9532TIP3    H150087   5.192   5.466  12.162 -0.2100 -1.1558  0.9244
 9532TIP3    H250088   5.289   5.368  12.099  0.0246 -0.3547  0.0165
 9533TIP3   OH250089   5.733   1.997  12.094 -0.0610  0.4723 -0.0154
 9533TIP3    H150090   5.806   2.050  12.126  0.1066  1.4105 -1.8436
 9533TIP3    H250091   5.774   1.926  12.044 -0.3839  0.3613 -0.1263
 9534TIP3   OH250092   4.332   1.448  14.641 -0.3689  0.2376  0.1672
 9534TIP3    H150093   4.284   1.527  14.669 -0.9491 -0.5260  1.4360
 9534TIP3    H250094   4.423   1.465  14.665  0.2573  1.9973 -2.8921
 9535TIP3   OH250095   0.114   5.802  16.238 -0.5650 -0.0491  0.2364
 9535TIP3    H150096   0.148   5.837  16.321 -1.2828  0.2419  0.4177
 9535TIP3    H250097   0.186   5.750  16.202  0.4343  1.3615  0.1130
 9536TIP3   OH250098   4.136   3.404  12.866 -0.3103  0.0082  0.8905
 9536TIP3    H150099   4.204   3.372  12.806 -0.7889 -0.8375  0.7820
 9536TIP3    H250100   4.181   3.468  12.921  0.4557 -0.1764  0.4987
 9537TIP3   OH250101   3.375   5.967   4.524  0.1673 -0.0275 -0.3206
 9537TIP3    H150102   3.346   6.046   4.569  0.0187 -0.0630 -0.3531
 9537TIP3    H250103   3.456   5.942   4.568 -0.3721 -0.4906  0.4152
 9538TIP3   OH250104   0.497   0.764   5.604 -0.0210  0.5029 -0.8054
 9538TIP3    H150105   0.514   0.675   5.635 -1.9601 -0.4242 -2.1742
 9538TIP3    H250106   0.415   0.789   5.647 -0.2987  1.0188 -1.6118
 9539TIP3   OH250107   5.054   3.077   5.679  0.3910 -0.1982  0.0084
 9539TIP3    H150108   5.146   3.055   5.693  0.0833 -1.6257 -0.0791
 9539TIP3    H250109   5.031   3.131   5.755  1.7330  1.6567 -0.8453
 9540TIP3   OH250110   4.983   6.676   4.260  0.6167 -0.4204  0.2229
 9540TIP3    H150111   5.004   6.663   4.352 -0.8562 -0.6983  0.5367
 9540TIP3    H250112   4.912   6.615   4.242 -1.2026  1.7165 -0.2771
 9541TIP3   OH250113   3.164   6.103   3.302 -0.0989  0.0866 -0.5079
 9541TIP3    H150114   3.256   6.112   3.277 -0.0110 -1.0662 -0.6888
 9541TIP3    H250115   3.146   6.009   3.293 -0.9372  0.0944  0.7683
 9542TIP3   OH250116   6.582   5.190  15.822  0.2129 -0.2396 -0.0580
 9542TIP3    H150117   6.623   5.127  15.881  0.7974 -0.8115 -1.0413
 9542TIP3    H250118   6.492   5.160  15.813  0.3193 -0.5749 -0.0227
 9543TIP3   OH250119   5.033   6.037  11.029  0.2094  0.1885 -0.7429
 9543TIP3    H150120   5.091   6.073  11.095  2.2544 -0.5226 -2.0484
 9543TIP3    H250121   4.979   6.111  11.001  1.6786  1.3227 -0.6909
 9544TIP3   OH250122   1.456   0.683  12.956  0.1849 -0.4239  0.8126
 9544TIP3    H150123   1.470   0.730  12.874  1.4327 -0.4475  1.0060
 9544TIP3    H250124   1.418   0.749  13.014  3.1434  0.8111  1.5120
 9545TIP3   OH250125   6.795   5.378   5.490  0.4685 -0.6487 -0.1562
 9545TIP3    H150126   6.717   5.339   5.531  0.9377 -2.2008 -0.6570
 9545TIP3    H250127   6.859   5.383   5.560  0.6354 -1.4995 -0.2292
 9546TIP3   OH250128   3.307   2.071  12.341  0.2812 -0.4741 -0.4834
 9546TIP3    H150129   3.262   2.104  12.263  0.1183  0.1514 -0.1295
 9546TIP3    H250130   3.369   2.141  12.365 -1.9713  0.8885  1.8923
 9547TIP3   OH250131   2.589   5.890   1.088 -0.4661 -0.2104  0.2787
 9547TIP3    H150132   2.618   5.804   1.118 -1.3786 -1.3374 -1.8351
 9547TIP3    H250133   2.493   5.885   1.093 -0.5192  0.8215  0.4227
 9548TIP3   OH250134   2.620   3.026  16.355 -0.1965  0.7559  0.0019
 9548TIP3    H150135   2.533   3.039  16.316 -1.2988 -2.0859  1.2891
 9548TIP3    H250136   2.611   3.059  16.444 -0.0122  0.3096  0.1857
 9549TIP3   OH250137   2.191   6.400  14.077 -0.0729  0.0404  0.4720
 9549TIP3    H150138   2.118   6.365  14.026 -1.2207  2.1691  0.5309
 9549TIP3    H250139   2.260   6.414  14.013 -0.8880  1.0453 -0.2271
 9550TIP3   OH250140   0.177   4.541   0.979  0.4933 -0.1693  0.0358
 9550TIP3    H150141   0.104   4.487   1.010  0.3285  0.4059  0.6721
 9550TIP3    H250142   0.200   4.504   0.894 -0.3608 -0.5277 -0.0465
 9551TIP3   OH250143   0.604   1.700  11.298 -0.4980  0.4705  0.1569
 9551TIP3    H150144   0.686   1.738  11.269 -0.4069  0.9536  0.9980
 9551TIP3    H250145   0.553   1.686  11.218 -0.0512  1.2380 -0.2676
 9552TIP3   OH250146   1.858   6.753  13.637  0.1578  0.5224  0.1030
 9552TIP3    H150147   1.821   6.827  13.686  0.8149  1.8840 -1.3467
 9552TIP3    H250148   1.835   6.676  13.688 -2.1812  1.5582  0.7416
 9553TIP3   OH250149   5.155   4.214   3.773  0.3026  0.0179  0.0245
 9553TIP3    H150150   5.085   4.152   3.790 -0.3814  0.5220 -0.8595
 9553TIP3    H250151   5.113   4.300   3.780  0.6245  0.3067 -1.2993
 9554TIP3   OH250152   3.235   6.414   0.771 -0.0598  0.4223 -0.3320
 9554TIP3    H150153   3.239   6.319   0.782 -0.2732  0.4234 -0.2493
 9554TIP3    H250154   3.325   6.443   0.785  0.0583  0.2034 -0.6251
 9555TIP3   OH250155   4.326   1.713   0.771  0.0764 -0.1410 -0.1860
 9555TIP3    H150156   4.409   1.696   0.815  0.4317 -0.6225 -1.0209
 9555TIP3    H250157   4.260   1.707   0.841  0.6875 -0.2381  0.3890
 9556TIP3   OH250158   1.895   1.945  13.272  0.5838  0.1466  0.5325
 9556TIP3    H150159   1.804   1.935  13.301  0.5455  1.9738  1.2021
 9556TIP3    H250160   1.947   1.931  13.352  0.8922 -0.6995  0.1933
 9557TIP3   OH250161   4.766   0.459   2.632  0.3335  0.3159 -0.0217
 9557TIP3    H150162   4.810   0.448   2.717 -0.4048  2.0908  0.6486
 9557TIP3    H250163   4.838   0.469   2.570  0.8835 -0.5827  0.4447
 9558TIP3   OH250164   2.372   2.638  13.768  0.7681  0.0521 -0.0370
 9558TIP3    H150165   2.375   2.732  13.789 -0.9045 -0.0416  0.8372
 9558TIP3    H250166   2.385   2.634  13.674  2.3169  1.0321  0.0975
 9559TIP3   OH250167   3.182   6.006  14.867 -0.0887 -0.2224  0.0829
 9559TIP3    H150168   3.222   6.037  14.786  0.2139 -1.3296 -0.2115
 9559TIP3    H250169   3.256   5.978  14.921 -0.3740 -1.6613 -0.2047
 9560TIP3   OH250170   5.812   3.979   3.751 -0.1825 -0.1497 -0.7083
 9560TIP3    H150171   5.843   3.925   3.678  1.8506  0.5052 -0.3891
 9560TIP3    H250172   5.891   4.002   3.799 -1.1551  1.8295  0.0554
 9561TIP3   OH250173   0.443   4.768  13.826 -0.5620  0.3297  0.5720
 9561TIP3    H150174   0.520   4.825  13.816 -0.1996  0.0767  1.7338
 9561TIP3    H250175   0.458   4.697  13.763  0.1515  0.2984  0.7605
 9562TIP3   OH250176   2.811   2.387  16.929 -0.1509  0.0036 -0.4431
 9562TIP3    H150177   2.900   2.416  16.909 -0.6502  1.7322 -0.3172
 9562TIP3    H250178   2.785   2.336  16.853  0.8429 -0.3060 -0.5964
 9563TIP3   OH250179   6.822   2.280   0.608 -0.0062  0.1702 -0.0808
 9563TIP3    H150180   6.846   2.199   0.652 -1.0748 -0.4449 -0.5905
 9563TIP3    H250181   6.867   2.349   0.657  0.3216 -0.6634  0.8038
 9564TIP3   OH250182   0.083   1.672   5.686  0.2573 -0.4457 -0.2763
 9564TIP3    H150183   0.055   1.665   5.777 -2.8983  0.5750 -1.0636
 9564TIP3    H250184   0.154   1.736   5.687 -0.0160 -0.1421  1.3922
 9565TIP3   OH250185   2.867   0.197  13.329 -0.2618 -0.0967 -0.6576
 9565TIP3    H150186   2.906   0.252  13.261 -1.2573 -1.6126 -2.5774
 9565TIP3    H250187   2.786   0.163  13.289 -1.1042 -0.7575  1.4440
 9566TIP3   OH250188   3.566   3.730   4.897 -0.8202 -0.2075 -0.0040
 9566TIP3    H150189   3.580   3.823   4.915  0.4676 -0.1681 -1.1448
 9566TIP3    H250190   3.540   3.693   4.982 -0.8095  1.0766  0.5743
 9567TIP3   OH250191   0.345   4.829   2.375  0.0409 -0.2770  0.3447
 9567TIP3    H150192   0.312   4.893   2.313  1.4737 -0.3332 -0.5136
 9567TIP3    H250193   0.271   4.770   2.391 -0.2888 -0.4077 -1.5014
 9568TIP3   OH250194   2.902   5.064   0.552 -0.1850 -0.0427 -0.2922
 9568TIP3    H150195   2.939   5.107   0.475  2.1137  1.6140  1.5728
 9568TIP3    H250196   2.807   5.074   0.543 -0.0080 -0.2135 -3.0054
 9569TIP3   OH250197   2.836   4.280  12.555  0.3009 -0.1755  0.0142
 9569TIP3    H150198   2.892   4.347  12.515 -1.5011  1.1861 -0.3885
 9569TIP3    H250199   2.784   4.328  12.619  0.9892 -1.7744  1.8507
 9570TIP3   OH250200   1.001   6.262   3.956 -1.1773 -0.0540 -0.0388
 9570TIP3    H150201   0.913   6.255   3.991 -0.8460 -0.0622  0.8183
 9570TIP3    H250202   1.017   6.179   3.912 -2.1391  0.5025 -1.5389
 9571TIP3   OH250203   1.026   5.928  13.325 -0.5351 -0.2378 -0.1716
 9571TIP3    H150204   0.997   6.013  13.358 -2.4896 -0.5413 -1.0064
 9571TIP3    H250205   1.116   5.944  13.296 -0.3829  1.1752  0.9588
 9572TIP3   OH250206   2.042   2.018  16.102 -0.7139 -0.5969  0.6044
 9572TIP3    H150207   2.064   1.974  16.020  1.6208 -0.2347  0.9807
 9572TIP3    H250208   2.009   2.104  16.075  1.5823  0.1638  0.0230
 9573TIP3   OH250209   6.367   1.013   4.508  0.1412 -0.1503  0.4890
 9573TIP3    H150210   6.394   1.077   4.573  1.2801 -0.5667  0.4473
 9573TIP3    H250211   6.400   1.047   4.425  0.9521 -0.8735  0.4951
 9574TIP3   OH250212   2.018   2.991   5.835  0.4953  0.4206 -0.6328
 9574TIP3    H150213   1.967   3.017   5.911  2.8859  1.3659  0.7654
 9574TIP3    H250214   1.974   3.033   5.761 -1.7241 -0.2871  0.1916
 9575TIP3   OH250215   3.722   2.938  12.108 -0.2688  0.1495  0.2077
 9575TIP3    H150216   3.711   2.843  12.102  0.6939 -0.0900  1.7196
 9575TIP3    H250217   3.769   2.952  12.190 -1.8227  2.0713  0.8590
 9576TIP3   OH250218   0.853   1.199  14.090 -0.6141 -0.1026  0.1494
 9576TIP3    H150219   0.887   1.123  14.138  1.9055 -0.1505 -1.5271
 9576TIP3    H250220   0.805   1.161  14.016 -2.4355  0.0016  1.1981
 9577TIP3   OH250221   5.806   6.224  11.994 -0.0522 -0.4550  0.1509
 9577TIP3    H150222   5.806   6.132  12.021  1.2301 -0.8256 -0.9541
 9577TIP3    H250223   5.896   6.253  12.007  0.0670  0.0113 -1.4141
 9578TIP3   OH250224   4.754   0.523  12.692 -0.9871 -0.0660  0.3239
 9578TIP3    H150225   4.690   0.484  12.751 -1.6958 -0.7550 -0.8583
 9578TIP3    H250226   4.775   0.452  12.631  1.0271  0.0923  0.7663
 9579TIP3   OH250227   1.759   5.435   3.704  0.4243 -0.3292  0.2391
 9579TIP3    H150228   1.746   5.529   3.722 -1.4023 -0.4960 -0.0266
 9579TIP3    H250229   1.757   5.394   3.791  1.8228 -0.0979  0.4110
 9580TIP3   OH250230   6.702   2.818   5.747 -0.2958 -0.7598  0.1906
 9580TIP3    H150231   6.756   2.868   5.808 -1.5563  0.0276  0.6899
 9580TIP3    H250232   6.758   2.806   5.670  0.7725 -0.4419  0.8958
 9581TIP3   OH250233   0.468   4.067   4.657 -0.3491  0.2670 -0.1850
 9581TIP3    H150234   0.491   4.006   4.587 -2.9267  0.0365 -0.9080
 9581TIP3    H250235   0.546   4.070   4.712  0.4574 -2.3680 -1.0491
 9582TIP3   OH250236   0.988   3.755   1.468  0.0391 -0.5806 -0.5747
 9582TIP3    H150237   0.897   3.783   1.474  0.5988  1.0150  2.5273
 9582TIP3    H250238   1.002   3.735   1.375 -2.5671  2.2217 -1.7009
 9583TIP3   OH250239   0.349   4.927   6.047  0.1694  0.0324 -0.3660
 9583TIP3    H150240   0.369   5.018   6.028  0.5784  0.2326  0.9429
 9583TIP3    H250241   0.327   4.926   6.141  3.3480 -1.6878  0.4985
 9584TIP3   OH250242   1.207   4.385   4.179 -0.1112  0.3223  0.7130
 9584TIP3    H150243   1.219   4.363   4.271  1.2111  0.8542  0.6865
 9584TIP3    H250244   1.255   4.466   4.166  0.0980  0.0331 -0.5413
 9585TIP3   OH250245   6.064   0.895   1.605  0.3014  0.5336 -0.2853
 9585TIP3    H150246   6.125   0.833   1.565  1.3737  1.3783 -0.0063
 9585TIP3    H250247   6.064   0.970   1.547  1.2184  1.4233  0.8036
 9586TIP3   OH250248   4.592   6.255  11.086 -0.2596 -0.0879  0.2979
 9586TIP3    H150249   4.553   6.235  11.000 -0.0510 -0.2841  0.2486
 9586TIP3    H250250   4.561   6.343  11.106 -0.8768 -0.3040  0.3403
 9587TIP3   OH250251   4.274   3.387   4.060  0.1241 -0.0604  0.1647
 9587TIP3    H150252   4.301   3.388   4.152 -0.1356 -0.9224  0.2639
 9587TIP3    H250253   4.354   3.366   4.012 -0.0503 -1.1948  0.3385
 9588TIP3   OH250254   0.404   2.625  12.040 -0.1693  0.3730 -0.1337
 9588TIP3    H150255   0.314   2.658  12.035 -0.8559 -1.3093  0.3911
 9588TIP3    H250256   0.405   2.549  11.982 -0.0819 -1.6543  2.3506
 9589TIP3   OH250257   5.141   3.160  12.124  0.3721  0.2870  0.0922
 9589TIP3    H150258   5.088   3.088  12.088  0.4062  0.1464  0.3204
 9589TIP3    H250259   5.230   3.127  12.122  0.9307  1.6245 -3.1313
 9590TIP3   OH250260   3.858   3.170   5.408 -1.0804 -0.7029  0.0155
 9590TIP3    H150261   3.858   3.143   5.316  0.2790 -1.0183  0.0799
 9590TIP3    H250262   3.837   3.263   5.405  2.3582  0.2244 -1.0067
 9591TIP3   OH250263   1.241   3.008  11.843  0.1282 -0.2364  0.0774
 9591TIP3    H150264   1.239   2.951  11.920  0.9684 -0.2128  0.1275
 9591TIP3    H250265   1.225   2.950  11.769  2.5747 -0.8982 -0.0474
 9592TIP3   OH250266   3.274   4.380  16.120  0.2483 -0.4365  0.0891
 9592TIP3    H150267   3.323   4.423  16.050 -0.7344 -0.2177 -0.4856
 9592TIP3    H250268   3.341   4.349  16.181  1.0188  1.2752  0.1543
 9593TIP3   OH250269   1.120   2.208  15.368 -0.8326 -0.4766 -0.4156
 9593TIP3    H150270   1.179   2.233  15.439 -1.5063 -1.0980  0.3959
 9593TIP3    H250271   1.159   2.129  15.331  0.2232  0.5826 -1.6426
 9594TIP3   OH250272   5.117   0.768  16.854  0.0844  0.0252  0.4098
 9594TIP3    H150273   5.187   0.758  16.918 -1.3437 -3.0742  1.6917
 9594TIP3    H250274   5.153   0.734  16.773  0.2785 -1.1365  0.9573
 9595TIP3   OH250275   0.499   5.932   2.847 -0.0302  0.1386  0.0848
 9595TIP3    H150276   0.535   5.984   2.919 -0.5102  3.4596 -1.8825
 9595TIP3    H250277   0.576   5.895   2.804  0.5856  1.6701 -0.1824
 9596TIP3   OH250278   5.146   1.757   4.339 -0.1431 -0.4334  0.3863
 9596TIP3    H150279   5.163   1.835   4.286  1.1819  0.6287  2.2204
 9596TIP3    H250280   5.051   1.752   4.345 -0.2723  1.6511  1.0086
 9597TIP3   OH250281   0.133   2.350  13.409 -0.0204 -0.0701 -0.1603
 9597TIP3    H150282   0.101   2.374  13.496  0.7708  0.9648 -0.1389
 9597TIP3    H250283   0.070   2.286  13.377  0.0006 -0.9125  1.4132
 9598TIP3   OH250284   1.198   0.218   4.127  0.4298 -0.2443 -0.7150
 9598TIP3    H150285   1.292   0.223   4.144  0.2722 -0.6086  0.3319
 9598TIP3    H250286   1.172   0.308   4.108  1.1944 -0.3081 -2.2835
 9599TIP3   OH250287   0.095   0.506   2.819 -0.7522  0.3844 -0.2793
 9599TIP3    H150288   0.170   0.476   2.768 -1.2656 -0.2786 -0.6646
 9599TIP3    H250289   0.109   0.600   2.831 -0.8866  0.6601 -2.1065
 9600TIP3   OH250290   1.223   6.224  12.481 -0.4199 -0.1315  0.2267
 9600TIP3    H150291   1.144   6.211  12.534 -0.7759 -0.5780 -0.4091
 9600TIP3    H250292   1.194   6.212  12.391  0.4365 -0.6008  0.0014
 9601TIP3   OH250293   5.328   5.573   5.150 -0.3272  0.1491 -0.3411
 9601TIP3    H150294   5.288   5.547   5.068 -0.4453 -0.6357 -0.0396
 9601TIP3    H250295   5.411   5.613   5.125  0.0263 -0.8572 -0.7845
 9602TIP3   OH250296   5.504   6.337  11.333 -0.0991 -0.0657 -0.2996
 9602TIP3    H150297   5.490   6.281  11.256  1.1448 -0.8309  0.0135
 9602TIP3    H250298   5.447   6.299  11.400  0.1598 -0.4856 -0.3163
 9603TIP3   OH250299   6.416   5.621   2.917 -0.2660 -0.0493 -0.4091
 9603TIP3    H150300   6.457   5.645   2.834 -1.4131  3.5511 -0.0749
 9603TIP3    H250301   6.332   5.583   2.892  0.0504 -0.4403 -0.9035
 9604TIP3   OH250302   3.680   1.525   1.305 -0.0537  0.2292  0.2394
 9604TIP3    H150303   3.625   1.601   1.323 -0.7781 -0.7323  2.4065
 9604TIP3    H250304   3.769   1.559   1.301 -0.5131  1.4102 -0.6281
 9605TIP3   OH250305   5.824   3.452  11.879  0.7348 -1.1641  0.2149
 9605TIP3    H150306   5.885   3.471  11.950  0.5361 -1.5961  0.5085
 9605TIP3    H250307   5.832   3.526  11.819  0.0636 -0.2127  1.2588
 9606TIP3   OH250308   1.975   4.975   2.979  0.1660  0.3398  0.4104
 9606TIP3    H150309   1.887   5.005   2.960  0.3093  1.2504  1.1284
 9606TIP3    H250310   2.000   4.922   2.903 -1.2966 -0.6204  0.5675
 9607TIP3   OH250311   2.879   1.640  12.818 -0.1281 -0.4985 -0.1410
 9607TIP3    H150312   2.932   1.574  12.863  1.4449  0.5128 -0.4433
 9607TIP3    H250313   2.819   1.589  12.764  1.2713 -1.7177 -0.6292
 9608TIP3   OH250314   2.270   3.647   2.173 -0.5265  0.2993 -0.0016
 9608TIP3    H150315   2.279   3.559   2.209  0.3145  1.4983  3.1050
 9608TIP3    H250316   2.188   3.680   2.210 -0.5450  1.0107 -0.6561
 9609TIP3   OH250317   5.606   5.354  11.977  0.3292  0.0846 -0.4419
 9609TIP3    H150318   5.676   5.354  11.911 -0.3042 -0.6562 -1.1375
 9609TIP3    H250319   5.580   5.262  11.984 -1.1092  0.4377 -0.7825
 9610TIP3   OH250320   5.865   2.460  16.055  0.2775  0.0752  0.5096
 9610TIP3    H150321   5.855   2.527  16.122  1.6617  1.3370 -0.4637
 9610TIP3    H250322   5.880   2.509  15.974 -1.0650 -1.3920 -0.6953
 9611TIP3   OH250323   2.708   2.642   2.112 -0.1941 -0.2596  0.0966
 9611TIP3    H150324   2.697   2.605   2.199  0.7223 -1.2221 -0.1759
 9611TIP3    H250325   2.801   2.664   2.107 -0.2209 -0.3055 -0.6737
 9612TIP3   OH250326   1.394   5.662  16.871  0.2463  0.2200 -0.2752
 9612TIP3    H150327   1.425   5.628  16.787  0.1737  1.5304 -0.8561
 9612TIP3    H250328   1.333   5.595  16.903  2.4882 -1.7060  0.1941
 9613TIP3   OH250329   5.228   5.717  16.318 -0.2053  0.3410 -0.1721
 9613TIP3    H150330   5.193   5.631  16.293 -0.0309  0.4302 -0.7403
 9613TIP3    H250331   5.186   5.778  16.257 -0.9675  0.7779  0.7595
 9614TIP3   OH250332   5.529   4.240   3.034  0.8838  0.4360  0.2682
 9614TIP3    H150333   5.586   4.251   3.110 -0.2273 -1.5173  1.4837
 9614TIP3    H250334   5.449   4.288   3.057 -0.1045 -1.5132  1.1655
 9615TIP3   OH250335   3.948   1.967  17.124 -1.0249  0.1454 -1.2842
 9615TIP3    H150336   4.008   2.031  17.086 -1.3482  0.2558 -1.6057
 9615TIP3    H250337   3.885   1.949  17.055 -1.8610  0.6587 -0.6716
 9616TIP3   OH250338   4.023   2.721   5.484  0.5329 -0.6932 -0.1035
 9616TIP3    H150339   4.070   2.747   5.563  1.4265  1.8239 -1.3477
 9616TIP3    H250340   4.034   2.795   5.424 -2.2568 -1.4027 -1.6927
 9617TIP3   OH250341   5.727   6.327   3.658 -0.3100  0.2019  0.5341
 9617TIP3    H150342   5.770   6.355   3.739 -1.4710  0.6853  0.9975
 9617TIP3    H250343   5.799   6.295   3.603  0.9948  3.1275  0.3526
 9618TIP3   OH250344   0.299   5.606  15.663 -0.5567 -0.5905  0.1520
 9618TIP3    H150345   0.387   5.639  15.648 -1.8295  2.3968 -1.7492
 9618TIP3    H250346   0.267   5.658  15.738 -1.0923 -0.7673  0.0483
 9619TIP3   OH250347   5.310   3.729   2.007 -0.6057  0.1841 -0.0918
 9619TIP3    H150348   5.282   3.736   2.098  0.9079  0.4763  0.3904
 9619TIP3    H250349   5.243   3.676   1.965  0.6579 -3.6377  2.1893
 9620TIP3   OH250350   1.273   6.342  11.338  0.2425  0.1425 -0.1455
 9620TIP3    H150351   1.350   6.307  11.293  0.5746  1.1858 -0.4222
 9620TIP3    H250352   1.223   6.386  11.269 -0.3880 -0.1593  0.1114
 9621TIP3   OH250353   0.052   0.536  12.682 -0.5301  0.6455 -0.0794
 9621TIP3    H150354   0.011   0.620  12.703 -1.3585  0.4553 -0.8712
 9621TIP3    H250355   0.088   0.548  12.594 -0.6352  0.1900 -0.1902
 9622TIP3   OH250356   5.106   2.746   1.994  0.3956 -0.0060 -0.0981
 9622TIP3    H150357   5.150   2.826   2.022 -3.4428  1.9352  1.1860
 9622TIP3    H250358   5.062   2.771   1.912 -0.3035 -0.9779 -0.0347
 9623TIP3   OH250359   1.378   2.032  13.792  0.9206 -0.8179 -0.3695
 9623TIP3    H150360   1.447   2.060  13.853 -0.9491  0.0127  1.4882
 9623TIP3    H250361   1.374   1.937  13.803  0.5323 -0.6745  0.9768
 9624TIP3   OH250362   0.460   5.671   2.178  1.0094  0.4649 -0.1834
 9624TIP3    H150363   0.449   5.600   2.114 -0.1621  1.6230 -1.3172
 9624TIP3    H250364   0.519   5.634   2.244  0.5766 -1.4941 -0.8269
 9625TIP3   OH250365   5.492   1.170  11.011  0.1209 -0.1045  0.8563
 9625TIP3    H150366   5.522   1.133  10.928  0.6020  1.5767  0.2334
 9625TIP3    H250367   5.399   1.148  11.016  0.0348 -0.0378 -0.2516
 9626TIP3   OH250368   5.108   2.484   2.015  0.2083  0.1137  0.0857
 9626TIP3    H150369   5.129   2.577   2.026  0.0733  0.3027 -1.0962
 9626TIP3    H250370   5.090   2.453   2.104  0.0362  1.2687  0.4752
 9627TIP3   OH250371   5.924   6.632  14.933  0.0158 -0.6108 -0.6034
 9627TIP3    H150372   6.010   6.607  14.898 -0.0648 -1.3447 -0.3056
 9627TIP3    H250373   5.867   6.636  14.856  0.5534  0.9969 -0.9475
 9628TIP3   OH250374   1.244   1.367  15.861 -0.8145 -0.2660 -0.2362
 9628TIP3    H150375   1.266   1.354  15.769  2.7755 -1.2698  0.6106
 9628TIP3    H250376   1.319   1.414  15.897 -1.4138 -1.2576  2.4995
 9629TIP3   OH250377   0.576   3.531   2.150  0.1958  0.2728  0.2894
 9629TIP3    H150378   0.492   3.510   2.191 -0.2952 -0.4596 -1.0255
 9629TIP3    H250379   0.565   3.504   2.059  1.4261  1.3580 -0.2077
 9630TIP3   OH250380   0.891   5.341  13.275 -0.2109 -0.1787  0.3619
 9630TIP3    H150381   0.933   5.426  13.260 -1.1500  0.4863  1.2979
 9630TIP3    H250382   0.939   5.304  13.349 -0.4413  0.0053  0.6071
 9631TIP3   OH250383   3.674   6.585   3.092 -0.2188 -0.1137  0.8474
 9631TIP3    H150384   3.636   6.611   3.009  0.0808 -1.3780  0.2927
 9631TIP3    H250385   3.745   6.648   3.106 -1.5020  1.3167  1.1485
 9632TIP3   OH250386   1.035   0.351   6.371 -0.5672  0.0935 -0.4145
 9632TIP3    H150387   1.093   0.278   6.347 -1.0544 -0.5619  0.3600
 9632TIP3    H250388   1.010   0.333   6.462 -0.3065  1.4963 -0.0409
 9633TIP3   OH250389   2.665   4.222   1.782  0.4524 -0.2417 -0.3827
 9633TIP3    H150390   2.704   4.225   1.695 -0.0502 -1.3793 -0.6558
 9633TIP3    H250391   2.577   4.256   1.771  0.7312  0.6091 -0.1028
 9634TIP3   OH250392   4.218   2.202   2.720  0.0359 -0.2612  0.0274
 9634TIP3    H150393   4.219   2.133   2.653  0.2639 -2.3660  2.0454
 9634TIP3    H250394   4.310   2.229   2.727 -0.0969  0.5059 -0.9750
 9635TIP3   OH250395   4.209   5.802  13.077  0.5024 -0.9489 -0.3099
 9635TIP3    H150396   4.276   5.860  13.041  3.0772 -3.4303  0.0600
 9635TIP3    H250397   4.149   5.786  13.004  0.3406  1.2013 -0.7175
 9636TIP3   OH250398   6.011   0.656   4.962 -0.2630 -0.5171 -0.0524
 9636TIP3    H150399   6.087   0.709   4.939 -0.3515  0.0246  0.8613
 9636TIP3    H250400   6.002   0.594   4.890  0.5738 -0.0778 -0.5442
 9637TIP3   OH250401   2.708   6.280   1.474  0.6847 -0.1592  0.6523
 9637TIP3    H150402   2.732   6.217   1.542  0.5428 -0.1228  0.7377
 9637TIP3    H250403   2.780   6.343   1.473  1.0178 -0.5405  0.2942
 9638TIP3   OH250404   2.579   2.308  10.939 -0.2449  0.2379 -0.0091
 9638TIP3    H150405   2.589   2.372  10.869  2.2510  1.4888  1.3545
 9638TIP3    H250406   2.624   2.230  10.906  0.0879  0.5063 -0.2038
 9639TIP3   OH250407   6.156   3.669  14.982  0.0003 -0.0367  0.0166
 9639TIP3    H150408   6.130   3.602  14.920 -0.4367  0.4727 -0.3651
 9639TIP3    H250409   6.129   3.752  14.941 -0.3596  0.3016  0.9018
 9640TIP3   OH250410   0.789   5.643   5.705 -0.5127 -0.4869 -0.1672
 9640TIP3    H150411   0.725   5.688   5.649 -1.3218  0.6919  1.6078
 9640TIP3    H250412   0.842   5.713   5.743  1.4222 -1.4042 -1.0357
 9641TIP3   OH250413   3.236   1.075  15.156 -0.2477 -0.6594 -0.6943
 9641TIP3    H150414   3.144   1.094  15.137 -0.2328 -0.8633 -0.9784
 9641TIP3    H250415   3.280   1.160  15.148 -0.3535 -0.6234 -0.9063
 9642TIP3   OH250416   2.907   3.642  16.128 -0.0357  0.2824 -0.9808
 9642TIP3    H150417   2.819   3.606  16.135  0.0662 -0.2705 -2.2565
 9642TIP3    H250418   2.936   3.617  16.040  0.8102  1.7643 -1.1548
 9643TIP3   OH250419   4.961   2.516   3.059 -0.0942  0.1624  0.9532
 9643TIP3    H150420   4.952   2.571   2.981  1.4006  0.3139  0.8567
 9643TIP3    H250421   5.055   2.519   3.080 -0.2919 -0.7902  2.0898
 9644TIP3   OH250422   5.524   1.959  13.679 -0.6703  0.2062  0.1484
 9644TIP3    H150423   5.535   1.981  13.771  0.9239 -1.6782  0.4902
 9644TIP3    H250424   5.614   1.955  13.645 -1.2094  0.4079 -1.3820
 9645TIP3   OH250425   3.964   6.555   3.449  0.2806 -0.0213 -0.2840
 9645TIP3    H150426   3.901   6.545   3.378 -1.6800  0.6935  1.2669
 9645TIP3    H250427   3.948   6.480   3.507 -1.9661  2.1336  2.1147
 9646TIP3   OH250428   4.757   2.379   5.311  0.2616  0.0174  0.3444
 9646TIP3    H150429   4.668   2.374   5.277  0.6540  0.4805 -0.8135
 9646TIP3    H250430   4.747   2.409   5.401 -0.6975  1.1678 -0.1201
 9647TIP3   OH250431   4.185   4.593   1.106 -0.1435  0.4331  0.2480
 9647TIP3    H150432   4.231   4.588   1.023 -2.3393 -2.4318 -0.9801
 9647TIP3    H250433   4.159   4.685   1.114  0.2688  0.8146 -2.1607
 9648TIP3   OH250434   1.508   4.786  15.132  0.4519  0.5301 -0.0645
 9648TIP3    H150435   1.431   4.730  15.124  0.4333  0.6237 -0.6069
 9648TIP3    H250436   1.472   4.875  15.138  0.5267  0.6290 -0.9388
 9649TIP3   OH250437   6.555   2.144  16.567 -0.2194 -0.3406  0.4739
 9649TIP3    H150438   6.516   2.191  16.641 -0.1835 -0.5357  0.6186
 9649TIP3    H250439   6.490   2.076  16.545 -0.2896 -0.1985  0.2403
 9650TIP3   OH250440   1.727   1.144   6.393 -0.3065  0.2290  0.1135
 9650TIP3    H150441   1.801   1.095   6.358 -0.0927 -0.4133  1.4260
 9650TIP3    H250442   1.651   1.087   6.378 -0.4313  0.5408 -0.4974
 9651TIP3   OH250443   1.501   5.919   4.774  0.0906 -0.2475 -0.1978
 9651TIP3    H150444   1.437   5.858   4.737 -1.0939  0.6630  0.2584
 9651TIP3    H250445   1.458   6.004   4.769 -0.0213 -0.0146  2.8838
 9652TIP3   OH250446   5.930   3.007  11.450  0.1845 -0.2044  0.7924
 9652TIP3    H150447   5.985   3.037  11.377  0.8723 -1.7177  0.6499
 9652TIP3    H250448   5.871   3.080  11.467  1.2025  0.8676 -0.0969
 9653TIP3   OH250449   0.419   3.550  14.950  0.5974 -0.3416 -0.0090
 9653TIP3    H150450   0.477   3.563  14.875 -1.8270  2.2687 -1.6202
 9653TIP3    H250451   0.461   3.598  15.022  0.6385  1.2569 -1.0600
 9654TIP3   OH250452   3.614   4.367  10.708 -0.0774 -0.3696  0.5596
 9654TIP3    H150453   3.587   4.350  10.618 -0.9501 -0.4317  0.8298
 9654TIP3    H250454   3.654   4.285  10.737 -1.0989 -0.8265  0.6990
 9655TIP3   OH250455   4.275   6.177   3.304 -0.5758 -0.5202 -0.3486
 9655TIP3    H150456   4.291   6.149   3.394 -0.9665 -0.0344 -0.1214
 9655TIP3    H250457   4.267   6.272   3.309 -0.4425 -0.4704 -0.9212
 9656TIP3   OH250458   1.914   0.483  11.989  0.0803  0.3196  0.2218
 9656TIP3    H150459   1.867   0.507  11.909  0.7262 -1.4902 -0.7635
 9656TIP3    H250460   1.869   0.404  12.019 -0.1227  0.9515  1.6458
 9657TIP3   OH250461   1.159   3.943   0.928 -0.5303 -0.9597  0.0769
 9657TIP3    H150462   1.110   3.935   0.846 -0.4691 -0.0520 -0.0580
 9657TIP3    H250463   1.145   4.033   0.956 -2.1955 -1.7718  2.1228
 9658TIP3   OH250464   6.730   6.365  11.172  0.4216 -0.5964  0.6413
 9658TIP3    H150465   6.824   6.348  11.172  0.5851  0.1066  2.3250
 9658TIP3    H250466   6.723   6.461  11.170 -0.3483 -0.6255 -2.0700
 9659TIP3   OH250467   5.053   1.798   3.389 -0.0060 -0.3280  0.2868
 9659TIP3    H150468   5.003   1.738   3.333  0.8355 -0.8595  0.0863
 9659TIP3    H250469   5.132   1.817   3.339  0.3393 -0.0870  0.9119
 9660TIP3   OH250470   1.556   6.666   2.705  0.1549 -0.1028  0.4497
 9660TIP3    H150471   1.481   6.622   2.666  0.5452 -0.4083  0.0331
 9660TIP3    H250472   1.566   6.624   2.790  0.3506 -0.6261  0.1712
 9661TIP3   OH250473   0.506   3.055   1.450  0.3105 -0.1646 -0.5660
 9661TIP3    H150474   0.591   3.017   1.427  0.0386 -2.0688  1.2591
 9661TIP3    H250475   0.524   3.108   1.527 -0.0223  0.2143 -0.7448
 9662TIP3   OH250476   6.524   5.293   2.543 -0.6018 -0.1728 -0.0763
 9662TIP3    H150477   6.466   5.349   2.594 -2.3429 -0.9520 -1.1330
 9662TIP3    H250478   6.553   5.226   2.604 -1.5568 -0.2951  0.2569
 9663TIP3   OH250479   0.003   2.782   5.536 -0.3655 -0.0561 -0.1688
 9663TIP3    H150480   0.084   2.748   5.499  0.4853  0.8324  0.8336
 9663TIP3    H250481   0.020   2.876   5.548 -0.8828 -0.1812  1.7557
 9664TIP3   OH250482   4.287   3.486   0.078  0.2153  0.7118  0.2867
 9664TIP3    H150483   4.217   3.546   0.053  0.9855  1.5009 -0.0219
 9664TIP3    H250484   4.242   3.413   0.120 -0.7900  1.2012  0.0884
 9665TIP3   OH250485   4.879   2.140  15.918 -0.1621  0.5372  0.3787
 9665TIP3    H150486   4.961   2.173  15.881 -0.9530  0.0758 -2.0008
 9665TIP3    H250487   4.863   2.059  15.870 -1.6731  0.2591  1.2949
 9666TIP3   OH250488   0.091   0.773   0.776  0.1788 -0.1095 -0.2093
 9666TIP3    H150489   0.008   0.806   0.810  0.2269  0.0480 -0.2411
 9666TIP3    H250490   0.093   0.802   0.684  0.6681  0.6631  0.0361
 9667TIP3   OH250491   4.001   0.456  13.784 -0.4157 -0.1584 -0.1024
 9667TIP3    H150492   3.980   0.514  13.858 -0.1659 -0.7128  0.4098
 9667TIP3    H250493   3.933   0.475  13.719  0.6964  2.0641 -0.7275
 9668TIP3   OH250494   4.560   4.109   1.613 -0.1309 -0.9980  0.0196
 9668TIP3    H150495   4.575   4.133   1.521  1.3210 -0.1689  0.4304
 9668TIP3    H250496   4.465   4.104   1.621 -0.5026  2.3326 -0.7332
 9669TIP3   OH250497   0.395   5.179   5.952 -0.3417  0.0147 -0.2835
 9669TIP3    H150498   0.478   5.185   5.903  0.4152  0.1523  0.9649
 9669TIP3    H250499   0.386   5.264   5.995 -0.4722 -0.4281  0.5939
 9670TIP3   OH250500   6.147   1.789   4.499 -0.3477  0.1095  0.8909
 9670TIP3    H150501   6.237   1.759   4.511  0.5205  2.3743  0.4361
 9670TIP3    H250502   6.093   1.714   4.526  1.6414 -1.8387 -0.2278
 9671TIP3   OH250503   3.049   0.792  11.463 -0.3643  0.0460 -0.2148
 9671TIP3    H150504   3.066   0.884  11.442 -0.1598  0.2898  0.9306
 9671TIP3    H250505   3.110   0.742  11.409  2.4683  0.7820  2.0494
 9672TIP3   OH250506   0.134   5.753   1.418  0.5108 -1.1267 -0.0548
 9672TIP3    H150507   0.221   5.715   1.434  0.9128 -0.9586 -1.6308
 9672TIP3    H250508   0.096   5.698   1.350  0.6445  0.5465 -1.5604
 9673TIP3   OH250509   0.689   3.982   4.289 -0.3544  0.1179 -0.4448
 9673TIP3    H150510   0.692   4.077   4.295 -1.3610  0.1011  0.5420
 9673TIP3    H250511   0.621   3.956   4.350  0.0024 -1.2532 -0.5989
 9674TIP3   OH250512   4.342   6.311  12.175 -0.0639  0.0366 -0.5949
 9674TIP3    H150513   4.312   6.224  12.202 -0.0367  0.7697  2.0450
 9674TIP3    H250514   4.339   6.364  12.255  3.3988  1.5048 -1.2485
 9675TIP3   OH250515   3.124   0.771   1.396 -0.1351 -0.3463  0.0566
 9675TIP3    H150516   3.114   0.836   1.327  1.3472  0.7681  0.8265
 9675TIP3    H250517   3.120   0.686   1.350  1.3813  0.3644 -1.4993
 9676TIP3   OH250518   6.174   4.500  16.624  0.2928 -0.3928 -0.3624
 9676TIP3    H150519   6.134   4.509  16.538 -1.7378  1.2296  0.6817
 9676TIP3    H250520   6.185   4.406  16.635 -2.4726 -0.8848 -1.0816
 9677TIP3   OH250521   3.043   3.024  14.714 -0.4954 -0.2468 -0.4270
 9677TIP3    H150522   3.109   3.094  14.713 -1.7481  0.9868 -0.5115
 9677TIP3    H250523   2.986   3.045  14.640 -3.0075  0.8074  1.6173
 9678TIP3   OH250524   5.934   2.113   2.353  0.0715 -0.0480  0.5475
 9678TIP3    H150525   6.022   2.080   2.374 -0.0242 -2.2749 -1.9775
 9678TIP3    H250526   5.875   2.055   2.401 -0.0306 -0.7604 -0.4099
 9679TIP3   OH250527   5.754   6.111  16.563  0.4124 -0.6390 -0.5097
 9679TIP3    H150528   5.679   6.143  16.513  0.0495 -0.7042 -0.0167
 9679TIP3    H250529   5.798   6.049  16.505 -0.4628 -1.3245 -0.4464
 9680TIP3   OH250530   2.119   4.609  15.900  0.5332  0.2151 -0.6322
 9680TIP3    H150531   2.025   4.625  15.904  0.8057  2.3521 -1.5518
 9680TIP3    H250532   2.129   4.542  15.832 -0.3545 -0.5413 -0.0381
 9681TIP3   OH250533   3.087   3.407   1.015  0.1690 -0.6192  0.0013
 9681TIP3    H150534   2.998   3.404   0.980  0.6655  0.5234 -1.4260
 9681TIP3    H250535   3.076   3.389   1.108 -1.5862 -0.1840 -0.0875
 9682TIP3   OH250536   1.745   5.499  14.441  0.0719  0.3013  0.4083
 9682TIP3    H150537   1.799   5.562  14.487 -0.1186  0.0112  1.0394
 9682TIP3    H250538   1.681   5.469  14.506 -0.3748  0.0862 -0.1152
 9683TIP3   OH250539   2.825   4.390  16.228  0.1762 -0.2610 -0.4381
 9683TIP3    H150540   2.918   4.367  16.223 -0.4206 -2.9589 -1.0880
 9683TIP3    H250541   2.804   4.385  16.321  0.5402 -0.3154 -0.3571
 9684TIP3   OH250542   1.914   0.771   2.978  0.1091 -0.1413 -0.0360
 9684TIP3    H150543   1.956   0.852   3.005  0.2299  0.0300 -0.7244
 9684TIP3    H250544   1.826   0.776   3.014  0.4595 -0.1970  0.8398
 9685TIP3   OH250545   5.835   5.584  14.734 -0.4137 -0.0514  0.4177
 9685TIP3    H150546   5.883   5.528  14.795  0.3423  0.2682  0.1335
 9685TIP3    H250547   5.894   5.658  14.718 -1.2032  0.5943  0.4274
 9686TIP3   OH250548   3.770   6.767   1.622 -0.2277  0.3568  0.1311
 9686TIP3    H150549   3.816   6.849   1.605  2.5667 -1.2371 -0.7072
 9686TIP3    H250550   3.727   6.780   1.706  0.7514  2.4119  0.3826
 9687TIP3   OH250551   6.582   6.166  13.133  0.0152 -0.7027 -0.0368
 9687TIP3    H150552   6.675   6.180  13.152  0.0406 -0.4802 -0.3206
 9687TIP3    H250553   6.550   6.253  13.107 -0.4581 -0.6103  0.8392
 9688TIP3   OH250554   6.201   3.288   1.242 -0.2754 -0.5593  0.0637
 9688TIP3    H150555   6.258   3.248   1.176 -0.2423 -1.6135  0.7165
 9688TIP3    H250556   6.146   3.217   1.273 -0.9847  0.1496  0.4577
 9689TIP3   OH250557   3.640   4.313  11.868 -0.2868  0.2080  0.5326
 9689TIP3    H150558   3.553   4.295  11.834  0.2317 -0.8374 -0.3077
 9689TIP3    H250559   3.699   4.271  11.806  0.9965  3.3360 -0.5816
 9690TIP3   OH250560   6.471   5.224   0.410 -0.2215  0.5455 -0.0634
 9690TIP3    H150561   6.528   5.183   0.476 -0.7503 -0.1551 -0.0250
 9690TIP3    H250562   6.440   5.151   0.356 -1.1086  0.8988 -0.0574
 9691TIP3   OH250563   2.859   2.507  16.442 -0.3084 -0.3654 -0.0704
 9691TIP3    H150564   2.786   2.561  16.473 -1.0988 -0.6736 -1.3213
 9691TIP3    H250565   2.817   2.430  16.404  0.6368 -0.2312 -1.4334
 9692TIP3   OH250566   4.559   3.550  16.957  0.5931  0.6745 -0.4934
 9692TIP3    H150567   4.488   3.601  16.996  1.3603  1.0873  0.4129
 9692TIP3    H250568   4.591   3.495  17.029  1.2982  0.6166 -0.8404
 9693TIP3   OH250569   1.005   2.841  15.256  0.2469 -0.3026  0.0208
 9693TIP3    H150570   0.955   2.890  15.321  0.7371  0.8793 -0.4645
 9693TIP3    H250571   1.042   2.908  15.199 -0.0697 -1.3106 -1.4121
 9694TIP3   OH250572   6.186   3.382  14.107 -0.1148  0.0060 -0.4012
 9694TIP3    H150573   6.258   3.446  14.103 -0.5814  0.9769  3.4772
 9694TIP3    H250574   6.114   3.429  14.149 -1.8049 -2.0178 -0.8931
 9695TIP3   OH250575   1.766   5.749   0.186 -0.3882  0.8492 -0.3947
 9695TIP3    H150576   1.783   5.835   0.225 -2.3390  1.4156 -0.6592
 9695TIP3    H250577   1.812   5.751   0.102 -0.5355  1.7001 -0.4616
 9696TIP3   OH250578   4.627   0.786  12.680  0.3751 -0.4285  0.8119
 9696TIP3    H150579   4.534   0.772  12.663  0.8388  0.3170 -3.8537
 9696TIP3    H250580   4.670   0.710  12.642  1.7247 -0.3120  2.0556
 9697TIP3   OH250581   0.644   1.870   1.824 -0.3367 -0.3624 -0.3271
 9697TIP3    H150582   0.640   1.870   1.729 -0.8860  0.3514 -0.3161
 9697TIP3    H250583   0.615   1.783   1.850 -0.1700 -0.5653 -0.8146
 9698TIP3   OH250584   3.980   2.797   4.640 -0.5177 -0.0121 -0.1307
 9698TIP3    H150585   3.958   2.800   4.733 -0.8132 -0.8432 -0.1637
 9698TIP3    H250586   3.976   2.704   4.618  0.3755  0.0902 -0.7782
 9699TIP3   OH250587   6.504   0.131  16.878 -0.4930 -0.5368 -0.0403
 9699TIP3    H150588   6.458   0.213  16.861  0.3243 -0.3159 -1.2650
 9699TIP3    H250589   6.488   0.114  16.971 -1.5364  0.4569 -0.0095
 9700TIP3   OH250590   6.312   1.168  16.146  0.2160  0.3231 -0.7080
 9700TIP3    H150591   6.318   1.103  16.076 -2.5964 -0.3318 -0.4642
 9700TIP3    H250592   6.254   1.128  16.211 -0.1229  2.3547  0.3058
 9701TIP3   OH250593   2.091   6.197  12.049  0.5768 -0.4337 -0.3237
 9701TIP3    H150594   2.130   6.139  11.984  2.5572  0.8691 -0.3736
 9701TIP3    H250595   1.996   6.186  12.038  0.8972 -2.3875 -1.4262
 9702TIP3   OH250596   1.537   5.816   0.935 -0.3800  0.1761 -0.1320
 9702TIP3    H150597   1.467   5.882   0.938 -0.5091  0.0247  0.2880
 9702TIP3    H250598   1.616   5.865   0.958 -0.0704  0.6838 -2.1517
 9703TIP3   OH250599   3.099   5.983  12.011 -0.0364  0.3610 -0.5383
 9703TIP3    H150600   3.155   5.912  11.980  0.4003 -0.8818  2.6290
 9703TIP3    H250601   3.160   6.045  12.052 -0.7612 -0.7450  2.4773
 9704TIP3   OH250602   1.016   2.358  11.146 -0.0213 -0.0667 -0.7130
 9704TIP3    H150603   1.090   2.313  11.187  0.7140  0.8380 -1.0152
 9704TIP3    H250604   0.943   2.346  11.207  0.3899 -0.8946 -0.3706
 9705TIP3   OH250605   5.021   0.823  15.162 -0.2179  0.3777  0.3947
 9705TIP3    H150606   4.948   0.762  15.153  0.7813 -1.0415  1.3589
 9705TIP3    H250607   4.984   0.898  15.208 -1.0474 -0.3906  1.0222
 9706TIP3   OH250608   5.553   4.121   4.411 -1.1998  0.4885 -0.4526
 9706TIP3    H150609   5.641   4.146   4.386  0.4052 -0.0604  3.8046
 9706TIP3    H250610   5.537   4.039   4.364  1.3377 -0.3450  0.0188
 9707TIP3   OH250611   2.986   3.136  11.107  0.0408  0.3462  0.4291
 9707TIP3    H150612   2.956   3.058  11.153  0.3284  0.6745  1.1918
 9707TIP3    H250613   3.044   3.180  11.170 -0.6547  1.5241  0.2754
 9708TIP3   OH250614   4.337   6.792   5.439  0.2894 -0.2161  0.5794
 9708TIP3    H150615   4.260   6.735   5.443 -0.3565  0.6335  0.6918
 9708TIP3    H250616   4.393   6.762   5.510 -0.6346  0.1081  1.4814
 9709TIP3   OH250617   4.713   3.351   4.906 -0.2551 -0.0173 -0.9235
 9709TIP3    H150618   4.688   3.434   4.865 -1.4084 -0.3620 -0.9574
 9709TIP3    H250619   4.673   3.284   4.850 -0.9880 -0.5253  0.1659
 9710TIP3   OH250620   3.850   6.200   0.779 -0.2140 -0.0517 -0.3366
 9710TIP3    H150621   3.765   6.199   0.733 -1.2387  0.0585  1.4469
 9710TIP3    H250622   3.841   6.271   0.842  0.8361 -0.7033  0.5695
 9711TIP3   OH250623   4.288   5.830  13.375  0.9164  0.0710 -0.2660
 9711TIP3    H150624   4.334   5.908  13.405 -0.9981  0.5416  1.7082
 9711TIP3    H250625   4.240   5.858  13.297  0.6754  0.7282  0.1162
 9712TIP3   OH250626   1.390   5.795   5.620  0.5241 -0.1915  0.4480
 9712TIP3    H150627   1.302   5.808   5.585  1.0980 -0.1462 -1.0108
 9712TIP3    H250628   1.381   5.721   5.681 -0.1954 -1.3376 -1.0048
 9713TIP3   OH250629   1.758   3.714   3.905  0.5973  0.5440  0.2809
 9713TIP3    H150630   1.766   3.622   3.930 -0.8207 -0.2453 -1.9495
 9713TIP3    H250631   1.675   3.742   3.942  0.6181  0.6896  0.2199
 9714TIP3   OH250632   4.714   6.791  12.161  0.0290 -1.0544 -0.2373
 9714TIP3    H150633   4.706   6.706  12.117  0.7887 -1.0019 -0.5080
 9714TIP3    H250634   4.725   6.854  12.089  1.6077 -1.0031  0.0029
 9715TIP3   OH250635   3.599   5.894  13.735 -0.5196 -0.1955  0.4180
 9715TIP3    H150636   3.617   5.800  13.726 -0.2278 -0.2799  1.6541
 9715TIP3    H250637   3.505   5.902  13.722 -0.1590 -0.1449 -3.2461
 9716TIP3   OH250638   5.296   4.457   2.738  0.1182 -0.3994 -0.2516
 9716TIP3    H150639   5.228   4.491   2.679 -2.4435 -0.7388  2.3016
 9716TIP3    H250640   5.325   4.376   2.696 -0.5419  0.1108 -1.7687
 9717TIP3   OH250641   4.688   1.634  11.473  0.1085  0.3370 -0.3254
 9717TIP3    H150642   4.638   1.696  11.420 -1.9932 -1.8021 -1.0131
 9717TIP3    H250643   4.760   1.607  11.416 -0.7329 -0.1119 -1.1978
 9718TIP3   OH250644   3.255   6.222  12.080 -0.2445 -0.3573 -0.3936
 9718TIP3    H150645   3.207   6.279  12.019 -0.8837 -0.4323  0.0305
 9718TIP3    H250646   3.345   6.223  12.047 -0.2890  0.7156 -0.5319
 9719TIP3   OH250647   0.075   3.270  14.537  0.0898 -0.0197  0.1342
 9719TIP3    H150648   0.053   3.201  14.474 -0.4465  1.1892 -1.0718
 9719TIP3    H250649   0.156   3.241  14.578  1.6614  0.0731 -2.6711
 9720TIP3   OH250650   3.358   4.031  11.218  0.5395 -0.1535  0.0241
 9720TIP3    H150651   3.335   4.079  11.298  0.4365 -0.4664  0.1853
 9720TIP3    H250652   3.450   4.051  11.203  0.2980  0.7283 -0.3543
 9721TIP3   OH250653   0.645   0.969   1.485 -0.2207 -0.2307  0.0235
 9721TIP3    H150654   0.575   0.995   1.424 -0.4728 -0.0028  0.4090
 9721TIP3    H250655   0.633   1.025   1.561  1.3339  0.9121 -0.5224
 9722TIP3   OH250656   0.187   3.561   2.442 -0.2360 -0.5425 -0.1218
 9722TIP3    H150657   0.216   3.651   2.456  0.0213 -0.3382 -1.7023
 9722TIP3    H250658   0.266   3.508   2.455 -0.3621 -0.5347  0.6997
 9723TIP3   OH250659   5.898   0.743  15.062 -0.0272  0.1081 -0.1472
 9723TIP3    H150660   5.832   0.676  15.079 -0.4859  0.8739  1.2131
 9723TIP3    H250661   5.870   0.818  15.114  2.0571  0.3523  0.7219
 9724TIP3   OH250662   4.694   2.346  13.479 -0.1992  0.2155  0.1975
 9724TIP3    H150663   4.704   2.254  13.502 -1.1763  0.0060 -0.1975
 9724TIP3    H250664   4.674   2.346  13.386 -0.3995  0.8215  0.2362
 9725TIP3   OH250665   3.246   5.171  12.949 -0.1531 -0.3796  0.0463
 9725TIP3    H150666   3.271   5.262  12.935  0.9926 -0.4417  1.4353
 9725TIP3    H250667   3.223   5.139  12.862  2.4810  0.3601 -1.0134
 9726TIP3   OH250668   0.593   0.104   5.230  0.1707 -0.6996  0.3505
 9726TIP3    H150669   0.687   0.122   5.236 -0.2271  1.5920  0.6863
 9726TIP3    H250670   0.581   0.067   5.142  1.2550 -0.0077 -0.1111
 9727TIP3   OH250671   1.019   1.070   3.110  0.2899  0.2711  0.3574
 9727TIP3    H150672   0.962   1.143   3.085  0.6687  0.4160 -0.0891
 9727TIP3    H250673   1.106   1.109   3.114  0.2457  0.2813  1.9889
 9728TIP3   OH250674   5.989   2.532  12.191  0.4699  0.2831  0.4045
 9728TIP3    H150675   5.947   2.540  12.105 -0.0378 -1.3764  0.4505
 9728TIP3    H250676   5.947   2.598  12.245 -1.0135 -0.3053  0.0182
 9729TIP3   OH250677   4.467   4.377  15.585  0.2370 -0.0511 -0.7790
 9729TIP3    H150678   4.556   4.411  15.584  0.4760 -0.4770  1.6898
 9729TIP3    H250679   4.477   4.285  15.557  0.6125 -0.1701 -0.2640
 9730TIP3   OH250680   5.191   3.047  11.185  0.0295  0.2256 -0.3912
 9730TIP3    H150681   5.286   3.044  11.179  0.0540  0.6432 -0.2656
 9730TIP3    H250682   5.160   3.021  11.099  0.2678  0.5216 -0.5692
 9731TIP3   OH250683   0.355   6.114  13.949 -0.3285  0.1695  0.2756
 9731TIP3    H150684   0.274   6.077  13.984  0.1491 -0.7057  0.4889
 9731TIP3    H250685   0.408   6.135  14.026 -0.3003  0.6239  0.1343
 9732TIP3   OH250686   3.126   1.799   2.696  0.6036  0.1960 -0.0119
 9732TIP3    H150687   3.039   1.761   2.681 -0.3108  1.7609  1.0543
 9732TIP3    H250688   3.146   1.845   2.614  0.1405  0.3440 -0.0472
 9733TIP3   OH250689   2.231   0.538  11.161 -0.4705 -0.4555 -0.3878
 9733TIP3    H150690   2.289   0.538  11.085 -0.0362 -0.8319 -0.0616
 9733TIP3    H250691   2.160   0.598  11.137 -0.2403 -0.4259 -1.0115
 9734TIP3   OH250692   0.659   3.772   5.781 -0.3731  0.2121 -0.0042
 9734TIP3    H150693   0.721   3.812   5.842  0.1592  0.9024 -0.9776
 9734TIP3    H250694   0.625   3.846   5.730 -2.6526 -0.0153  1.0403
 9735TIP3   OH250695   4.114   6.669  14.216  0.0368 -0.0358  0.7759
 9735TIP3    H150696   4.064   6.594  14.249  1.7393 -1.5628  0.0712
 9735TIP3    H250697   4.106   6.662  14.121  2.8302 -1.3600  0.5247
 9736TIP3   OH250698   1.034   6.550   0.235 -0.4026 -0.4071  0.2395
 9736TIP3    H150699   0.955   6.536   0.287 -2.5674 -0.0217 -2.7192
 9736TIP3    H250700   1.005   6.544   0.144  2.8929  0.3334 -1.0075
 9737TIP3   OH250701   2.233   5.676   1.379 -0.0142 -0.4871  0.0307
 9737TIP3    H150702   2.201   5.590   1.352  2.3482 -1.2741 -0.4909
 9737TIP3    H250703   2.245   5.724   1.298 -2.8738  1.0457  0.3763
 9738TIP3   OH250704   6.392   5.985   1.163 -0.5902 -0.0411 -0.2555
 9738TIP3    H150705   6.396   6.081   1.160 -0.9306  0.0508  1.2655
 9738TIP3    H250706   6.432   5.962   1.247 -0.3992 -1.2537 -0.6540
 9739TIP3   OH250707   0.422   6.097   0.437 -0.2494  0.5112  0.5076
 9739TIP3    H150708   0.460   6.011   0.421  0.4159  0.6689  1.2146
 9739TIP3    H250709   0.352   6.104   0.372  0.7425  0.1025 -0.6498
 9740TIP3   OH250710   1.551   5.767   1.622  0.1984  0.6993 -0.1857
 9740TIP3    H150711   1.635   5.724   1.610  0.1298  0.7152 -0.7645
 9740TIP3    H250712   1.572   5.851   1.661  0.2897 -0.0827  1.5436
 9741TIP3   OH250713   1.568   1.314  14.108 -0.2185  0.1605 -0.1175
 9741TIP3    H150714   1.519   1.397  14.111 -0.0950  0.2589 -0.8492
 9741TIP3    H250715   1.501   1.248  14.091 -0.3495  0.0759  0.6869
 9742TIP3   OH250716   1.199   3.976  15.959 -0.1967 -0.1263 -0.2200
 9742TIP3    H150717   1.235   3.888  15.954 -1.7335 -0.8988  1.4310
 9742TIP3    H250718   1.220   4.006  16.047 -0.7935  0.6629 -0.3296
 9743TIP3   OH250719   2.372   4.645  12.539  0.2111  0.6009  0.9766
 9743TIP3    H150720   2.279   4.625  12.553 -0.1900  1.2750 -0.4922
 9743TIP3    H250721   2.410   4.563  12.510 -0.2634  0.6707  0.1364
 9744TIP3   OH250722   4.239   5.813  13.887  0.0574  0.5860  0.1137
 9744TIP3    H150723   4.191   5.879  13.936  0.9490  2.0157 -0.8303
 9744TIP3    H250724   4.190   5.802  13.806  1.0947  1.8496 -0.7340
 9745TIP3   OH250725   4.732   0.329  15.792 -0.2012  0.1179 -0.5380
 9745TIP3    H150726   4.710   0.239  15.818  2.4784  0.1426  2.5301
 9745TIP3    H250727   4.648   0.375  15.791 -1.6664 -2.3508 -2.3065
 9746TIP3   OH250728   2.370   1.541   4.192  0.1568  0.0733  0.3888
 9746TIP3    H150729   2.416   1.620   4.219 -1.4549  0.4401  2.2638
 9746TIP3    H250730   2.432   1.470   4.210  0.4114  0.6427  1.8957
 9747TIP3   OH250731   2.572   1.851  15.792  0.4055  0.8945  0.4359
 9747TIP3    H150732   2.552   1.782  15.855  0.3529 -1.2127 -1.7089
 9747TIP3    H250733   2.489   1.897  15.779  0.4740  1.5155  1.9980
 9748TIP3   OH250734   0.839   3.123  12.511 -0.9139  0.1826  0.3662
 9748TIP3    H150735   0.902   3.082  12.570 -1.1499  1.1061  1.3024
 9748TIP3    H250736   0.753   3.098  12.547 -1.0666  0.1157 -0.0434
 9749TIP3   OH250737   5.146   2.821  12.694 -0.1360  0.3077  0.3935
 9749TIP3    H150738   5.144   2.741  12.641  2.3929 -0.5511  1.4654
 9749TIP3    H250739   5.056   2.831  12.725 -0.7738 -1.4327 -0.7507
 9750TIP3   OH250740   5.858   2.549  11.921 -0.8012  0.1377 -0.4735
 9750TIP3    H150741   5.842   2.461  11.888  1.9390 -1.7814  2.6738
 9750TIP3    H250742   5.926   2.585  11.863  0.3736 -1.1698  0.0432
 9751TIP3   OH250743   1.874   3.162   0.789  0.0407 -0.7635  0.2077
 9751TIP3    H150744   1.815   3.234   0.810 -0.0721 -0.3493 -1.3942
 9751TIP3    H250745   1.962   3.202   0.792 -0.0902 -0.1685 -1.8939
 9752TIP3   OH250746   3.925   5.842  13.266 -0.7128  0.0802  0.3722
 9752TIP3    H150747   3.837   5.818  13.237  0.1344 -0.8285 -1.6647
 9752TIP3    H250748   3.983   5.794  13.207  1.1530  1.8264  0.6827
 9753TIP3   OH250749   1.030   6.624   6.016  0.2428  0.6117 -0.8767
 9753TIP3    H150750   1.082   6.544   6.023 -0.6004  0.2017  1.3168
 9753TIP3    H250751   1.044   6.670   6.098 -2.1524  0.9086 -0.5644
 9754TIP3   OH250752   4.897   4.797  13.474 -0.1211 -0.1627 -0.3377
 9754TIP3    H150753   4.815   4.767  13.436  0.4797 -2.2898 -0.0686
 9754TIP3    H250754   4.930   4.722  13.523  0.6511  1.4848  1.8538
 9755TIP3   OH250755   0.817   0.133  13.361  0.0348 -0.3684  0.2460
 9755TIP3    H150756   0.875   0.060  13.384 -0.3546 -0.7559  0.0053
 9755TIP3    H250757   0.780   0.162  13.444  0.5330 -0.1466  0.3990
 9756TIP3   OH250758   0.217   0.933   0.458 -0.1802 -0.0813 -0.0649
 9756TIP3    H150759   0.157   1.005   0.479 -1.7902 -1.0372 -1.1515
 9756TIP3    H250760   0.169   0.854   0.484  1.3578 -0.8183  0.6865
 9757TIP3   OH250761   4.194   1.043  12.220  0.5228  0.1206 -0.4121
 9757TIP3    H150762   4.159   1.050  12.131  0.0457  0.1042 -0.2233
 9757TIP3    H250763   4.287   1.065  12.210  0.7926 -1.2249 -1.1518
 9758TIP3   OH250764   2.248   4.536  11.810 -0.0244  0.0662 -0.1500
 9758TIP3    H150765   2.176   4.591  11.779  1.6684  1.5084 -1.7136
 9758TIP3    H250766   2.229   4.450  11.774 -0.6470  0.5712 -1.0779
 9759TIP3   OH250767   3.648   3.605   1.048  0.0103 -0.2842 -0.5042
 9759TIP3    H150768   3.703   3.592   0.970  1.3482 -1.0432  0.5241
 9759TIP3    H250769   3.657   3.524   1.097 -2.4655 -0.6316 -0.5096
 9760TIP3   OH250770   1.378   1.905   0.456 -0.5070  0.7229  0.3955
 9760TIP3    H150771   1.302   1.882   0.509 -0.0644  0.0567  0.7463
 9760TIP3    H250772   1.416   1.981   0.500  0.7284 -0.7175  1.9277
 9761TIP3   OH250773   3.298   2.348  10.855 -0.3219  0.0953 -0.2272
 9761TIP3    H150774   3.368   2.404  10.889 -0.1207  0.0142 -0.4993
 9761TIP3    H250775   3.318   2.339  10.762  0.3019 -1.3396  0.0056
 9762TIP3   OH250776   1.447   6.476   4.921  0.2876 -0.4137 -0.0300
 9762TIP3    H150777   1.459   6.472   4.826 -0.5778 -0.7742 -0.1263
 9762TIP3    H250778   1.535   6.492   4.955  0.2741  2.0648 -1.0124
 9763TIP3   OH250779   1.780   3.217   4.490  0.2868  0.0059 -0.2720
 9763TIP3    H150780   1.801   3.200   4.582  3.4566  3.3824 -0.1232
 9763TIP3    H250781   1.691   3.252   4.491  0.2782 -0.0120  1.5577
 9764TIP3   OH250782   6.329   0.761  15.506  0.2082 -0.1762  0.1525
 9764TIP3    H150783   6.310   0.825  15.437 -0.6411 -0.7957 -0.2040
 9764TIP3    H250784   6.264   0.779  15.574  1.4572  0.8658  1.1119
 9765TIP3   OH250785   1.968   6.542   6.227 -0.4594 -0.6793  0.3777
 9765TIP3    H150786   1.963   6.634   6.198  0.2711 -0.4783  0.8608
 9765TIP3    H250787   2.050   6.510   6.189 -0.5728 -1.0501  0.4446
 9766TIP3   OH250788   5.734   6.803  11.062  0.0432 -0.1328 -0.2517
 9766TIP3    H150789   5.732   6.893  11.030  1.1931 -0.0396 -0.0877
 9766TIP3    H250790   5.734   6.749  10.983 -2.4376 -0.0838 -0.3706
 9767TIP3   OH250791   5.932   5.645  13.798  0.5070 -0.4661 -0.4116
 9767TIP3    H150792   5.914   5.643  13.892 -2.5240 -0.8414 -0.9192
 9767TIP3    H250793   6.028   5.646  13.793  0.8345  1.8187  2.6990
 9768TIP3   OH250794   1.698   6.765   1.820 -0.0101 -0.4090  0.2524
 9768TIP3    H150795   1.756   6.689   1.825 -0.6132 -1.0510 -1.6959
 9768TIP3    H250796   1.756   6.839   1.803  0.4403 -0.6616  0.6545
 9769TIP3   OH250797   3.530   2.966  14.674 -0.1401  0.2716 -0.8270
 9769TIP3    H150798   3.497   2.990  14.761  1.0002 -0.7261 -0.0935
 9769TIP3    H250799   3.610   3.016  14.664  2.2294 -2.8809  0.6882
 9770TIP3   OH250800   1.566   6.454  13.966 -0.2615  0.3367  0.5184
 9770TIP3    H150801   1.608   6.396  13.902  1.6425  0.5690  1.4977
 9770TIP3    H250802   1.512   6.396  14.019  0.4148 -0.2939  0.5203
 9771TIP3   OH250803   2.418   5.901   4.487 -0.0487 -0.0947 -0.0699
 9771TIP3    H150804   2.352   5.890   4.555 -0.3151  0.5988 -0.2056
 9771TIP3    H250805   2.445   5.993   4.495 -0.8152  0.2925 -1.5486
 9772TIP3   OH250806   3.751   3.578  14.313 -0.0954  0.4444  0.5196
 9772TIP3    H150807   3.717   3.608  14.229 -0.9039  1.5495  1.2200
 9772TIP3    H250808   3.769   3.485  14.299  1.4711  0.9772 -1.3900
 9773TIP3   OH250809   2.718   3.951   4.863 -0.6071  0.2669  0.0755
 9773TIP3    H150810   2.642   3.951   4.804  0.5880  0.8985 -1.5563
 9773TIP3    H250811   2.793   3.956   4.804  0.6727  0.8740  1.6876
 9774TIP3   OH250812   3.030   0.403   5.652 -0.1526 -0.1747 -0.1332
 9774TIP3    H150813   3.013   0.404   5.746 -0.5023  0.6137 -0.1967
 9774TIP3    H250814   2.947   0.375   5.613  0.0942 -0.8369 -0.1923
 9775TIP3   OH250815   6.834   4.652  11.250 -0.5188 -0.4675  0.0773
 9775TIP3    H150816   6.894   4.712  11.295 -1.1974 -1.2115  2.0767
 9775TIP3    H250817   6.869   4.646  11.161  0.9806  0.9495  0.5130
 9776TIP3   OH250818   5.005   1.132   2.612  0.3331  0.0348  0.2657
 9776TIP3    H150819   5.015   1.040   2.637 -1.0422  0.2428  1.7477
 9776TIP3    H250820   4.971   1.129   2.522 -1.3932 -1.0049  0.8993
 9777TIP3   OH250821   4.242   5.068   2.828  0.2234  0.2170 -0.3464
 9777TIP3    H150822   4.312   5.003   2.832  0.1567  0.1569 -0.1168
 9777TIP3    H250823   4.188   5.042   2.754 -0.1622 -0.3572  0.1237
 9778TIP3   OH250824   2.836   3.132   0.602  0.2502  0.5244 -0.0816
 9778TIP3    H150825   2.882   3.216   0.612  3.7893 -1.2080 -0.1261
 9778TIP3    H250826   2.814   3.128   0.509  1.7180  0.6669 -0.4535
 9779TIP3   OH250827   4.329   3.191   5.603  0.1572 -0.3889  0.3819
 9779TIP3    H150828   4.283   3.114   5.569  0.7930 -0.3668 -0.5542
 9779TIP3    H250829   4.267   3.263   5.592  1.5155  0.4058 -4.3138
 9780TIP3   OH250830   1.545   3.696  16.758  0.0053 -0.0219  0.7155
 9780TIP3    H150831   1.459   3.657  16.747  0.0725  0.3963 -1.7442
 9780TIP3    H250832   1.562   3.742  16.676  2.0160  1.0332  1.6393
 9781TIP3   OH250833   0.051   3.114   6.169 -0.2158 -0.3551 -0.2447
 9781TIP3    H150834   0.040   3.180   6.101  0.6686  2.2630  1.9535
 9781TIP3    H250835  -0.035   3.108   6.211 -0.3401 -0.7402 -0.5519
 9782TIP3   OH250836   5.852   3.971  12.460  0.3932  0.5107 -0.2630
 9782TIP3    H150837   5.844   3.893  12.514  0.8886  1.3988  1.1369
 9782TIP3    H250838   5.897   3.941  12.381 -2.3317 -1.2935 -1.2791
 9783TIP3   OH250839   5.067   5.605   6.535  0.3531  0.5228 -0.1752
 9783TIP3    H150840   5.118   5.538   6.489  1.5858  1.1913  0.1660
 9783TIP3    H250841   5.089   5.687   6.490 -1.2056  0.7206 -0.6524
 9784TIP3   OH250842   3.089   3.346   6.347 -0.0402  0.4531 -0.4944
 9784TIP3    H150843   3.010   3.296   6.325  1.7419 -3.7036  1.3086
 9784TIP3    H250844   3.137   3.351   6.264 -0.5820 -0.3124 -0.8723
 9785TIP3   OH250845   1.956   4.323  12.368 -0.1465 -0.1469  0.0011
 9785TIP3    H150846   1.894   4.365  12.308  0.9060  1.3929 -0.0641
 9785TIP3    H250847   1.918   4.237  12.385 -2.7053  0.9865  0.5706
 9786TIP3   OH250848   3.400   2.719   0.133  0.1241  0.1301 -0.8107
 9786TIP3    H150849   3.423   2.684   0.219  1.7584 -0.0896 -1.3005
 9786TIP3    H250850   3.305   2.722   0.132  0.0303 -1.6467  0.3029
 9787TIP3   OH250851   0.473   4.602  11.551 -0.1560  0.1637 -0.3429
 9787TIP3    H150852   0.552   4.634  11.508 -0.0622 -0.8392 -0.9332
 9787TIP3    H250853   0.471   4.649  11.635  1.2292 -0.0241 -0.1838
 9788TIP3   OH250854   2.861   4.946  15.906  0.0787  0.1384  0.0541
 9788TIP3    H150855   2.939   4.999  15.889 -0.2192  0.4318 -0.4325
 9788TIP3    H250856   2.844   4.900  15.824 -0.9553  0.9984 -0.2345
 9789TIP3   OH250857   6.137   0.901  11.999 -0.2759  0.4481 -0.4185
 9789TIP3    H150858   6.119   0.857  12.082 -0.7464  0.4772 -0.5023
 9789TIP3    H250859   6.064   0.876  11.942  1.5255 -2.0197 -1.8294
 9790TIP3   OH250860   5.315   3.694  12.378 -0.1046 -0.1858  0.6156
 9790TIP3    H150861   5.395   3.747  12.378  0.8032 -1.4936  1.1873
 9790TIP3    H250862   5.244   3.758  12.369  0.9932  1.0035  0.0026
 9791TIP3   OH250863   4.998   3.604   3.236 -0.1871 -0.8142  0.0262
 9791TIP3    H150864   4.968   3.678   3.184 -0.8735  0.2365  1.8500
 9791TIP3    H250865   4.920   3.551   3.250 -0.3393 -0.3149  1.1865
 9792TIP3   OH250866   3.572   2.133  13.994  0.5312  0.2429  0.0666
 9792TIP3    H150867   3.638   2.198  14.021  0.6608 -0.2566  1.0204
 9792TIP3    H250868   3.546   2.091  14.076 -1.3709  0.7682 -0.2249
 9793TIP3   OH250869   2.661   6.076  13.859  0.3408  0.2567  0.1285
 9793TIP3    H150870   2.610   6.035  13.930  0.9935 -1.5896 -0.3999
 9793TIP3    H250871   2.713   6.143  13.903 -0.0538 -0.1275  1.2310
 9794TIP3   OH250872   0.093   3.498  12.873  0.3754 -0.3641  0.1338
 9794TIP3    H150873   0.086   3.493  12.969  0.0370  0.7490  0.1803
 9794TIP3    H250874   0.011   3.539  12.845  1.2756  1.1249 -0.4492
 9795TIP3   OH250875   1.672   4.801   5.746 -0.3463 -0.3642 -1.4090
 9795TIP3    H150876   1.707   4.860   5.679  0.5228 -0.9754 -1.5082
 9795TIP3    H250877   1.666   4.716   5.702  2.1874 -1.2840 -0.1956
 9796TIP3   OH250878   4.000   2.747  13.150 -0.1839  0.1977  0.2565
 9796TIP3    H150879   3.983   2.777  13.239 -1.7877 -0.2017  0.1087
 9796TIP3    H250880   4.071   2.803  13.119  0.4763  0.2745  1.8141
 9797TIP3   OH250881   1.138   3.434  13.463  0.1990 -0.1559 -0.0802
 9797TIP3    H150882   1.168   3.484  13.387 -1.8841  2.6832  0.8046
 9797TIP3    H250883   1.064   3.383  13.431 -0.8797  1.2826  0.0679
 9798TIP3   OH250884   5.384   6.210   6.140  0.6784 -0.2705 -0.1544
 9798TIP3    H150885   5.344   6.159   6.212  1.6936 -0.4851  0.2685
 9798TIP3    H250886   5.442   6.272   6.184  1.4410 -0.5162 -0.7995
 9799TIP3   OH250887   4.812   4.518  14.603 -0.3625  0.0012 -0.4022
 9799TIP3    H150888   4.831   4.567  14.523 -0.4486 -0.8545 -0.9612
 9799TIP3    H250889   4.895   4.515  14.649 -0.6053  1.6702  0.2321
 9800TIP3   OH250890   0.152   6.538  16.956  0.4202  0.0966 -0.0787
 9800TIP3    H150891   0.247   6.549  16.964  0.4125 -0.1528  0.4168
 9800TIP3    H250892   0.122   6.620  16.918  0.5565  1.2051  2.0281
 9801TIP3   OH250893   0.988   5.746   6.352 -0.2472 -0.4944 -0.1181
 9801TIP3    H150894   0.961   5.662   6.315  2.3083 -1.5571  0.2006
 9801TIP3    H250895   1.012   5.725   6.442  0.7387  0.4878 -0.1350
 9802TIP3   OH250896   3.334   5.471  13.155 -0.3996 -0.1149 -0.1127
 9802TIP3    H150897   3.389   5.428  13.220  0.6990  1.1914 -0.1330
 9802TIP3    H250898   3.384   5.549  13.129 -1.5695  0.2776 -1.2849
 9803TIP3   OH250899   5.946   1.999   1.375  0.1872  0.1261  0.1114
 9803TIP3    H150900   6.023   2.056   1.373 -0.1778  0.6421  0.3306
 9803TIP3    H250901   5.912   2.008   1.465  0.9785 -1.6196  0.6148
 9804TIP3   OH250902   4.737   5.384   4.597  0.4631 -0.0850 -0.9506
 9804TIP3    H150903   4.674   5.332   4.548  0.2406  0.3320 -1.1127
 9804TIP3    H250904   4.683   5.440   4.653  0.6956 -1.6672  1.0032
 9805TIP3   OH250905   0.166   6.629  11.917 -0.4847  0.4044  0.4966
 9805TIP3    H150906   0.156   6.556  11.855  2.1656 -0.8514  1.4414
 9805TIP3    H250907   0.111   6.605  11.992 -0.9423  0.2453  0.1189
 9806TIP3   OH250908   4.322   4.307  16.311  0.3343 -0.2817 -0.0405
 9806TIP3    H150909   4.381   4.252  16.362  1.5190  0.0136 -1.0324
 9806TIP3    H250910   4.281   4.247  16.249 -0.0889 -0.4175  0.3687
 9807TIP3   OH250911   5.755   1.227  10.193  0.0832  0.1003  0.3238
 9807TIP3    H150912   5.730   1.292  10.259  3.6099  2.9302 -0.8097
 9807TIP3    H250913   5.845   1.204  10.216 -0.1548 -2.3852 -0.9475
 9808TIP3   OH250914   6.810   1.705   2.425  0.1976 -0.1689  0.4515
 9808TIP3    H150915   6.888   1.669   2.467  0.2527 -0.8142 -0.1881
 9808TIP3    H250916   6.836   1.721   2.334 -0.5235 -0.7771  0.1283
 9809TIP3   OH250917   1.235   6.282   1.488  0.5056 -0.3930 -0.6268
 9809TIP3    H150918   1.182   6.204   1.498  1.1120 -0.7041  0.2464
 9809TIP3    H250919   1.316   6.263   1.536  0.7455  0.6785 -0.5751
 9810TIP3   OH250920   6.278   6.107   0.080  0.4289 -0.2628  0.0664
 9810TIP3    H150921   6.321   6.180   0.125  0.8976  0.2120 -1.0956
 9810TIP3    H250922   6.206   6.147   0.032  0.2189 -0.6874  0.0176
 9811TIP3   OH250923   5.835   3.969  11.882 -0.3755 -0.0286 -0.5387
 9811TIP3    H150924   5.843   4.063  11.897  0.0535 -0.0417 -0.6928
 9811TIP3    H250925   5.801   3.961  11.793  1.8275 -0.0622 -1.4306
 9812TIP3   OH250926   5.208   6.049  11.254  0.1732  0.3151  0.2772
 9812TIP3    H150927   5.174   6.125  11.300 -2.9563 -1.5138  1.2727
 9812TIP3    H250928   5.256   5.999  11.321 -3.2161 -1.6478  1.4992
 9813TIP3   OH250929   5.022   5.186  13.320  0.6802 -0.0052  0.5209
 9813TIP3    H150930   5.027   5.281  13.308  1.0116  0.1026  1.4849
 9813TIP3    H250931   5.097   5.152  13.270 -0.5685  0.0465 -1.5209
 9814TIP3   OH250932   4.801   0.249  12.883  0.2326  0.0499 -0.3204
 9814TIP3    H150933   4.826   0.318  12.945  1.5495 -3.0243  2.9763
 9814TIP3    H250934   4.709   0.266  12.864 -0.4165  1.0242  2.9533
 9815TIP3   OH250935   3.233   6.266   3.011 -0.0208 -0.0415 -0.2333
 9815TIP3    H150936   3.306   6.286   3.070  0.1890 -0.7413 -0.2538
 9815TIP3    H250937   3.251   6.178   2.978  0.1276  0.5250 -1.7433
 9816TIP3   OH250938   4.920   4.755   5.609 -0.1140  0.0627  0.0867
 9816TIP3    H150939   4.837   4.752   5.561 -0.2051  0.6246  0.2086
 9816TIP3    H250940   4.899   4.799   5.691  0.1429 -0.4784  0.4524
 9817TIP3   OH250941   0.088   0.778  15.959  0.3888 -0.0887 -0.6457
 9817TIP3    H150942   0.106   0.852  16.018 -1.6566  1.0042 -1.3030
 9817TIP3    H250943   0.163   0.720  15.971  0.6364  0.6475  2.1314
 9818TIP3   OH250944   3.903   4.141   4.805  0.2554  0.3296  0.4788
 9818TIP3    H150945   3.884   4.195   4.881 -1.7588  0.5876 -0.1259
 9818TIP3    H250946   3.921   4.203   4.735 -1.0982  0.2547  0.0181
 9819TIP3   OH250947   4.810   2.968  16.730  0.0573  0.5873  0.1100
 9819TIP3    H150948   4.834   2.877  16.750 -0.6576  0.3989  0.1458
 9819TIP3    H250949   4.862   3.021  16.790  1.2346  0.2635 -0.5851
 9820TIP3   OH250950   4.205   2.989   3.605 -0.4897  0.5705 -0.5542
 9820TIP3    H150951   4.159   2.986   3.689 -0.8296  0.0666 -0.7564
 9820TIP3    H250952   4.239   2.901   3.592  3.9014  1.6683  1.4120
 9821TIP3   OH250953   5.065   2.530  16.396 -0.0057  0.4184 -0.3908
 9821TIP3    H150954   4.986   2.562  16.352 -0.4252  1.0537  0.7811
 9821TIP3    H250955   5.035   2.456  16.448 -0.0266  1.2055  0.7485
 9822TIP3   OH250956   1.773   1.488  16.516 -0.2896  0.2185  0.3534
 9822TIP3    H150957   1.833   1.452  16.582 -2.2149 -2.5871  0.7699
 9822TIP3    H250958   1.822   1.485  16.435  0.7805 -0.2084  0.9958
 9823TIP3   OH250959   0.643   5.662   3.981 -0.0476 -0.5895 -0.5649
 9823TIP3    H150960   0.673   5.745   3.943  0.4827 -1.3522 -1.8769
 9823TIP3    H250961   0.723   5.621   4.015 -0.3758 -0.3686  0.4970
 9824TIP3   OH250962   2.643   6.230  16.423  0.7870 -0.2549 -0.4030
 9824TIP3    H150963   2.698   6.156  16.399  0.9375 -0.3716  0.2814
 9824TIP3    H250964   2.583   6.196  16.489  0.0851 -0.0510 -0.9210
 9825TIP3   OH250965   5.897   0.655   0.076  0.2898 -0.0436 -0.8107
 9825TIP3    H150966   5.839   0.676   0.002  1.6604  0.8317 -1.6648
 9825TIP3    H250967   5.881   0.561   0.092 -1.7482  0.2735 -0.6349
 9826TIP3   OH250968   0.116   2.944   2.189  0.5424 -0.2820 -0.4983
 9826TIP3    H150969   0.100   3.038   2.199 -2.6624 -0.8654  1.3814
 9826TIP3    H250970   0.091   2.907   2.274  1.5953 -2.8610 -1.2367
 9827TIP3   OH250971   0.097   2.548  11.470  0.1908  0.3006  0.0119
 9827TIP3    H150972   0.047   2.629  11.481 -0.4618 -0.2537  1.3109
 9827TIP3    H250973   0.165   2.570  11.405 -0.4445  1.6547 -0.2170
 9828TIP3   OH250974   5.255   0.527  11.196 -0.0951  0.2755 -0.0166
 9828TIP3    H150975   5.313   0.490  11.263 -1.5901 -1.2003  0.5409
 9828TIP3    H250976   5.247   0.619  11.220  1.2052  0.2717  0.4927
 9829TIP3   OH250977   1.205   2.104  14.936  0.0820  0.2297  0.6872
 9829TIP3    H150978   1.240   2.142  14.856 -0.5162  0.1139  0.3651
 9829TIP3    H250979   1.135   2.163  14.962 -0.3352 -0.2228  0.6125
 9830TIP3   OH250980   3.365   4.974  15.573  0.1047 -0.2749 -0.5141
 9830TIP3    H150981   3.283   4.946  15.531 -0.5050  1.1209 -0.3047
 9830TIP3    H250982   3.386   5.057  15.531  0.2704  0.4271  0.9014
 9831TIP3   OH250983   4.672   2.035   1.113  0.1603 -0.7707  0.0054
 9831TIP3    H150984   4.709   1.961   1.064 -0.0381 -0.7026 -0.2489
 9831TIP3    H250985   4.649   2.099   1.046 -1.4782 -1.2769  0.0537
 9832TIP3   OH250986   2.978   2.811   3.359  0.8416 -0.0249 -0.0678
 9832TIP3    H150987   3.021   2.891   3.328 -1.0576  1.6879  1.4335
 9832TIP3    H250988   3.000   2.806   3.452  1.2087 -1.4830 -0.2059
 9833TIP3   OH250989   5.593   0.459  15.288  0.0988 -0.2111 -0.4126
 9833TIP3    H150990   5.619   0.499  15.205 -0.2984 -0.7605 -0.8147
 9833TIP3    H250991   5.533   0.388  15.262 -0.5262  0.0107  0.3786
 9834TIP3   OH250992   3.646   3.264   4.483 -0.2828  0.0657 -0.1064
 9834TIP3    H150993   3.704   3.188   4.481  0.6342  0.7111  0.9281
 9834TIP3    H250994   3.620   3.272   4.575 -0.8510  0.6393 -0.3106
 9835TIP3   OH250995   3.836   5.595   1.698  0.7867  0.0011  0.1615
 9835TIP3    H150996   3.795   5.649   1.766 -0.0706 -0.4798  0.0386
 9835TIP3    H250997   3.890   5.532   1.746 -0.3188 -0.7523  0.4473
 9836TIP3   OH250998   3.239   4.568   1.040  0.3669 -0.2341  0.5243
 9836TIP3    H150999   3.330   4.595   1.029  0.2759 -0.2509 -0.3587
 9836TIP3    H251000   3.194   4.604   0.963 -0.5712  0.6214  1.4321
 9837TIP3   OH251001   5.235   0.944   1.284 -0.5019 -0.2469 -0.5932
 9837TIP3    H151002   5.260   1.014   1.224  0.2923  0.2503  0.2765
 9837TIP3    H251003   5.293   0.955   1.360 -0.0896 -2.0834 -0.5829
 9838TIP3   OH251004   5.075   3.814  15.474  0.3092  0.0812 -0.5373
 9838TIP3    H151005   5.045   3.846  15.389  0.4446  0.4953 -0.4343
 9838TIP3    H251006   5.109   3.726  15.456  0.2269  0.1201 -0.8875
 9839TIP3   OH251007   2.938   3.293  15.033 -0.1786  0.2328 -1.1374
 9839TIP3    H151008   3.028   3.264  15.045 -0.2526  0.8845  1.7191
 9839TIP3    H251009   2.940   3.387  15.051 -1.4752  0.1665 -0.4648
 9840TIP3   OH251010   4.597   4.438   1.021 -0.1043 -0.1192  0.3918
 9840TIP3    H151011   4.619   4.458   0.931  1.9059 -0.8016  0.6676
 9840TIP3    H251012   4.600   4.522   1.067  2.8049 -0.1995  0.5173
 9841TIP3   OH251013   0.351   3.430  16.559 -0.6458  0.4477 -0.1896
 9841TIP3    H151014   0.393   3.413  16.474  2.0552  3.3530  0.4069
 9841TIP3    H251015   0.282   3.493  16.539 -2.6849 -1.7576 -0.6473
 9842TIP3   OH251016   5.122   1.478  16.054  0.6286 -0.3918  0.4075
 9842TIP3    H151017   5.199   1.423  16.065  0.9255 -0.0117  0.2542
 9842TIP3    H251018   5.142   1.533  15.978 -0.8917 -2.1597 -1.3691
 9843TIP3   OH251019   5.304   4.466  12.915 -0.4992 -0.2879 -0.0376
 9843TIP3    H151020   5.346   4.380  12.922 -0.7430 -0.5595 -1.5032
 9843TIP3    H251021   5.226   4.450  12.863 -0.9793  0.6961  0.3608
 9844TIP3   OH251022   4.546   5.576  14.819  0.6612  0.1658 -0.1945
 9844TIP3    H151023   4.535   5.496  14.768  0.3708  1.0978 -1.6520
 9844TIP3    H251024   4.598   5.634  14.762 -0.2947  1.5031  0.2460
 9845TIP3   OH251025   1.774   6.825   3.220  0.0698 -0.0609 -0.3394
 9845TIP3    H151026   1.822   6.743   3.232 -0.1319 -0.8038 -3.5938
 9845TIP3    H251027   1.682   6.801   3.232  0.0506 -0.1857 -0.7289
 9846TIP3   OH251028   0.904   0.353  12.221 -0.9429 -0.5651  0.8191
 9846TIP3    H151029   0.943   0.412  12.157  0.2969 -1.9057  0.2818
 9846TIP3    H251030   0.947   0.374  12.303  0.2138 -1.3444  0.4331
 9847TIP3   OH251031   3.867   6.639  13.020 -0.0447  0.5352  0.3666
 9847TIP3    H151032   3.822   6.575  13.075  0.8775 -1.4638 -1.0827
 9847TIP3    H251033   3.870   6.599  12.933  2.1031  1.7634 -0.2082
 9848TIP3   OH251034   5.839   3.541  13.479 -0.2738 -1.0151 -0.1568
 9848TIP3    H151035   5.805   3.560  13.391 -0.2101 -3.2104 -0.7231
 9848TIP3    H251036   5.776   3.582  13.538 -0.0554  0.9297 -1.1911
 9849TIP3   OH251037   1.187   4.892  13.775  0.2080 -0.0058 -0.0469
 9849TIP3    H151038   1.278   4.867  13.760  0.3534 -0.0279  0.8191
 9849TIP3    H251039   1.169   4.959  13.709  0.9809  0.3011  0.0502
 9850TIP3   OH251040   2.730   1.630   0.408  0.0404 -0.3385  0.0291
 9850TIP3    H151041   2.703   1.579   0.484 -0.5201  0.7714  0.6037
 9850TIP3    H251042   2.817   1.598   0.387  0.0724 -0.8799  0.9402
 9851TIP3   OH251043   4.468   1.427   0.998 -0.2595 -0.1585 -0.2471
 9851TIP3    H151044   4.449   1.471   1.080  0.4041  0.4900 -0.4304
 9851TIP3    H251045   4.385   1.387   0.972 -0.9910  1.3088 -0.2676
 9852TIP3   OH251046   4.667   6.387  13.786  0.0428  0.2559 -0.5568
 9852TIP3    H151047   4.710   6.310  13.749  0.0857 -0.5290  1.0316
 9852TIP3    H251048   4.707   6.398  13.872 -2.3983 -0.1237  0.7313
 9853TIP3   OH251049   4.488   2.853   4.002 -0.0269  0.0751 -0.0335
 9853TIP3    H151050   4.394   2.865   3.996 -0.1101 -0.2111  0.6795
 9853TIP3    H251051   4.521   2.878   3.915 -0.3397  3.8256  0.7552
 9854TIP3   OH251052   2.283   5.784  12.798 -0.1289  0.3274  0.1708
 9854TIP3    H151053   2.262   5.692  12.783 -1.7000  0.4734  1.1951
 9854TIP3    H251054   2.281   5.793  12.894 -0.5349  1.5245  0.0650
 9855TIP3   OH251055   2.781   5.460  16.307  0.5126 -0.0834  0.4106
 9855TIP3    H151056   2.851   5.484  16.368  0.5457  0.8096  0.0380
 9855TIP3    H251057   2.826   5.440  16.225  0.2854  1.8782 -0.2546
 9856TIP3   OH251058   3.885   4.205   0.560  0.1047  0.0464 -0.2551
 9856TIP3    H151059   3.974   4.172   0.569  0.6605  1.2924 -0.9408
 9856TIP3    H251060   3.862   4.239   0.646 -0.6199 -2.3559  0.5753
 9857TIP3   OH251061   3.540   5.748   1.145  0.3206  0.3909  0.5870
 9857TIP3    H151062   3.456   5.788   1.119  0.1813  0.3568  0.9877
 9857TIP3    H251063   3.515   5.676   1.202  0.4055 -1.8081 -1.9274
 9858TIP3   OH251064   3.623   0.542   2.764 -0.1461 -0.2322  0.1757
 9858TIP3    H151065   3.629   0.465   2.821 -2.1586 -0.6513 -0.1087
 9858TIP3    H251066   3.654   0.512   2.679  0.5450 -0.2822  0.4378
 9859TIP3   OH251067   6.077   3.960  11.060 -0.7505  0.2518 -0.2257
 9859TIP3    H151068   5.985   3.935  11.046 -1.3722  2.7689 -1.1244
 9859TIP3    H251069   6.073   4.039  11.114  0.6152  2.1785 -2.6979
 9860TIP3   OH251070   3.755   5.237   0.218 -0.5549  0.2425  0.2600
 9860TIP3    H151071   3.696   5.312   0.210 -3.6489 -2.0323 -0.4255
 9860TIP3    H251072   3.733   5.181   0.144  0.3630 -2.1158  1.6404
 9861TIP3   OH251073   1.452   1.970   5.133 -0.0562 -0.6492  0.4146
 9861TIP3    H151074   1.515   2.034   5.099  1.4494 -2.2836 -0.0035
 9861TIP3    H251075   1.372   2.021   5.148  0.9602  1.2392 -0.2602
 9862TIP3   OH251076   1.688   5.287  14.651  0.4088  0.1647  0.0760
 9862TIP3    H151077   1.720   5.255  14.567  0.7713 -1.8676  0.9302
 9862TIP3    H251078   1.622   5.223  14.678  2.3253 -0.8951  2.6289
 9863TIP3   OH251079   4.445   4.517  14.918  0.2532 -0.2966 -0.4089
 9863TIP3    H151080   4.478   4.431  14.943 -0.5335 -0.4293  0.2290
 9863TIP3    H251081   4.514   4.578  14.944  0.6295 -0.6928 -0.4676
 9864TIP3   OH251082   6.041   4.455  13.604  0.9721 -0.2047 -0.1309
 9864TIP3    H151083   6.089   4.433  13.524  2.3503 -1.5819  1.0147
 9864TIP3    H251084   6.105   4.442  13.674  0.2480  2.3779  1.1181
 9865TIP3   OH251085   0.293   2.418  15.324 -0.2369 -0.1397 -0.2294
 9865TIP3    H151086   0.362   2.377  15.272 -0.3508  0.9720 -1.3008
 9865TIP3    H251087   0.336   2.440  15.407  1.2638  2.1861 -1.5310
 9866TIP3   OH251088   1.659   1.298   3.708  0.0875  0.0500 -0.5373
 9866TIP3    H151089   1.748   1.299   3.673 -0.0131 -0.3220 -0.8091
 9866TIP3    H251090   1.605   1.333   3.638 -0.1954 -1.2612 -1.0118
 9867TIP3   OH251091   1.933   4.678   1.026 -0.6396 -0.7239  0.1145
 9867TIP3    H151092   1.974   4.707   0.945  2.8690 -1.7003  1.3489
 9867TIP3    H251093   1.917   4.585   1.013 -1.3305 -0.6086  0.1018
 9868TIP3   OH251094   6.353   0.626   1.357  0.6152  0.2912 -0.2084
 9868TIP3    H151095   6.283   0.659   1.302 -2.0936 -3.0769  0.8657
 9868TIP3    H251096   6.332   0.657   1.445  1.1921  0.2651 -0.0533
 9869TIP3   OH251097   4.256   6.621  15.399  0.2484 -0.1003  0.2608
 9869TIP3    H151098   4.286   6.534  15.374 -0.4081 -0.4318  0.6296
 9869TIP3    H251099   4.333   6.677  15.384  0.3178 -0.5214 -1.1071
 9870TIP3   OH251100   6.577   6.818  11.629 -0.3553 -0.3029  0.0134
 9870TIP3    H151101   6.547   6.729  11.612 -0.0826 -0.4639  0.3717
 9870TIP3    H251102   6.609   6.848  11.544 -0.5834 -0.4951 -0.1405
 9871TIP3   OH251103   6.099   0.028   2.532  0.4529  0.0298 -0.0306
 9871TIP3    H151104   6.005   0.020   2.516  0.4218  0.7027 -0.2009
 9871TIP3    H251105   6.139  -0.039   2.476  0.2603  1.5089 -2.0924
 9872TIP3   OH251106   1.236   0.405  16.648  0.0432 -0.5178  0.0496
 9872TIP3    H151107   1.217   0.373  16.736 -0.9063 -1.7558 -0.5740
 9872TIP3    H251108   1.323   0.370  16.628  0.8736  0.9392  1.0088
 9873TIP3   OH251109   0.829   0.788   1.446  0.6112  0.1811  0.0306
 9873TIP3    H151110   0.786   0.709   1.414  0.2172 -0.4297  1.8986
 9873TIP3    H251111   0.759   0.853   1.453  1.0676  1.0087 -2.2364
 9874TIP3   OH251112   6.655   5.217   3.222  0.2758 -0.1553 -0.1100
 9874TIP3    H151113   6.693   5.293   3.177  1.1111  0.0879  0.9649
 9874TIP3    H251114   6.614   5.167   3.152 -0.8594  1.5997 -0.7738
 9875TIP3   OH251115   3.779   6.230   2.468 -0.3321 -0.5616 -0.9128
 9875TIP3    H151116   3.873   6.213   2.461 -0.4533 -2.3980  0.8764
 9875TIP3    H251117   3.739   6.143   2.470 -1.9550  0.1654 -0.4804
 9876TIP3   OH251118   5.118   4.237   0.765 -0.4034  0.5232  0.6287
 9876TIP3    H151119   5.128   4.229   0.860  2.2953 -0.1337  0.3863
 9876TIP3    H251120   5.072   4.157   0.739  1.9964 -1.1279  1.0944
 9877TIP3   OH251121   0.659   4.990  16.372  0.2794  0.1924 -0.2797
 9877TIP3    H151122   0.587   5.010  16.312  0.6293  1.1785 -0.3866
 9877TIP3    H251123   0.646   4.897  16.395 -2.1480  0.7812  1.2113
 9878TIP3   OH251124   4.500   6.831  16.901  0.2511  0.4063  0.1562
 9878TIP3    H151125   4.425   6.812  16.957  0.6033 -0.7876  0.2566
 9878TIP3    H251126   4.499   6.763  16.834  1.4542  0.1302  0.3805
 9879TIP3   OH251127   4.658   4.220  10.978 -0.1265 -0.1278 -0.5477
 9879TIP3    H151128   4.751   4.240  10.979 -0.0248 -0.5302  0.8931
 9879TIP3    H251129   4.651   4.135  10.935  0.3284 -0.6690  0.4137
 9880TIP3   OH251130   4.845   3.218   3.395 -0.3637 -0.9122  0.3935
 9880TIP3    H151131   4.917   3.159   3.372 -0.3183 -0.7406  0.0799
 9880TIP3    H251132   4.829   3.268   3.315 -0.8511 -0.9656  0.4512
 9881TIP3   OH251133   3.327   5.122   4.732  0.3021 -0.0582  0.6174
 9881TIP3    H151134   3.295   5.137   4.821 -1.3627 -0.7183  0.1709
 9881TIP3    H251135   3.257   5.158   4.676 -0.0581 -2.2377 -0.4173
 9882TIP3   OH251136   5.464   6.659   1.307 -0.1673 -0.1517 -0.8162
 9882TIP3    H151137   5.540   6.713   1.286  0.0339 -0.5659 -1.1579
 9882TIP3    H251138   5.441   6.684   1.396  1.1359 -0.9039 -0.2353
 9883TIP3   OH251139   5.557   1.617  16.561 -0.2120  0.0534  0.2040
 9883TIP3    H151140   5.625   1.554  16.586 -1.4672 -1.2424  0.4567
 9883TIP3    H251141   5.475   1.568  16.567 -1.1504  1.4744 -0.4665
 9884TIP3   OH251142   6.047   1.274  10.628  0.8311 -0.4503 -0.1697
 9884TIP3    H151143   6.119   1.288  10.689  1.8671 -0.1492 -1.4284
 9884TIP3    H251144   6.082   1.298  10.542 -0.7786 -0.2460 -0.8176
 9885TIP3   OH251145   4.156   5.154   3.093  0.2026  0.3879  0.0836
 9885TIP3    H151146   4.218   5.122   3.027  1.6210 -0.4107  1.7287
 9885TIP3    H251147   4.078   5.178   3.043  0.5869 -1.7578 -1.7295
 9886TIP3   OH251148   0.741   0.102  11.678  0.3825  0.6489 -0.1310
 9886TIP3    H151149   0.798   0.027  11.660 -0.9843  0.1110 -2.6750
 9886TIP3    H251150   0.801   0.171  11.707  1.9305 -0.7727  0.2452
 9887TIP3   OH251151   0.507   1.533   5.808 -0.5087  0.1590  0.7158
 9887TIP3    H151152   0.498   1.557   5.900  2.5477  0.1885  1.1076
 9887TIP3    H251153   0.587   1.577   5.780 -0.8903 -0.5765 -1.7313
 9888TIP3   OH251154   3.806   0.933   2.706 -0.2117  0.1485  0.0134
 9888TIP3    H151155   3.864   0.985   2.762 -1.4681  1.6012  0.0047
 9888TIP3    H251156   3.853   0.925   2.624  0.1454  0.9990  0.1242
 9889TIP3   OH251157   6.013   0.503  16.652  0.2037  0.0038 -0.0535
 9889TIP3    H151158   5.946   0.485  16.585  0.2208 -0.7155  0.1137
 9889TIP3    H251159   6.056   0.583  16.622 -1.3170  0.9902  0.2795
 9890TIP3   OH251160   4.811   5.165   0.784  0.0169 -0.1322 -0.6652
 9890TIP3    H151161   4.893   5.202   0.817  0.1122  0.6850 -1.7633
 9890TIP3    H251162   4.752   5.239   0.777 -0.0928 -0.3231 -1.9913
 9891TIP3   OH251163   1.366   3.078   3.708 -0.3887  0.8237  0.0028
 9891TIP3    H151164   1.311   3.036   3.774  1.0490 -1.2094  0.0070
 9891TIP3    H251165   1.374   3.169   3.737 -0.1278  0.0938  2.4054
 9892TIP3   OH251166   3.834   1.923  11.706  0.2296  0.4371  0.0678
 9892TIP3    H151167   3.794   1.899  11.622  0.5460 -0.5323  0.1808
 9892TIP3    H251168   3.814   2.016  11.716 -0.2149  0.4573 -0.8584
 9893TIP3   OH251169   5.286   1.598   3.303 -0.5375  0.2011 -0.0553
 9893TIP3    H151170   5.297   1.686   3.267  0.0545  0.8724  1.6912
 9893TIP3    H251171   5.358   1.587   3.364 -0.0417 -1.9008 -0.9252
 9894TIP3   OH251172   4.117   1.113  15.930  0.3874 -0.5559 -0.1298
 9894TIP3    H151173   4.191   1.108  15.991  0.6537  0.5800 -0.3466
 9894TIP3    H251174   4.072   1.029  15.941  0.9557 -0.7393  0.9547
 9895TIP3   OH251175   1.383   4.760   4.821 -0.1703  0.1783  0.1808
 9895TIP3    H151176   1.317   4.738   4.755 -1.0803 -1.5667  1.5776
 9895TIP3    H251177   1.332   4.793   4.895  0.5459 -0.7335  1.1029
 9896TIP3   OH251178   0.757   0.716  15.202 -0.3523 -0.0892  0.0069
 9896TIP3    H151179   0.675   0.747  15.163  0.8916  0.5081 -2.2624
 9896TIP3    H251180   0.748   0.621  15.205 -1.2286 -0.0150  0.0686
 9897TIP3   OH251181   1.141   2.895  14.081  0.2676  0.3871  0.1049
 9897TIP3    H151182   1.092   2.826  14.037 -0.6922  0.4375  1.0494
 9897TIP3    H251183   1.144   2.966  14.017  1.1651 -0.4653 -0.8301
 9898TIP3   OH251184   3.744   3.946   2.053 -0.8273  0.1988 -0.4529
 9898TIP3    H151185   3.781   4.016   2.001 -0.6045 -1.0048 -1.9788
 9898TIP3    H251186   3.803   3.872   2.041 -1.2763 -0.3981  0.7688
 9899TIP3   OH251187   3.693   0.624  12.071  0.6399 -0.5411 -0.5008
 9899TIP3    H151188   3.782   0.594  12.052  1.7400 -0.2445  3.4072
 9899TIP3    H251189   3.662   0.567  12.141 -1.8388  0.1204 -0.9478
 9900TIP3   OH251190   2.571   0.239  11.942  0.3263 -0.0545  0.5403
 9900TIP3    H151191   2.491   0.283  11.912  1.4841  1.4719 -0.4590
 9900TIP3    H251192   2.551   0.146  11.936 -0.7032  0.2391 -1.7238
 9901TIP3   OH251193   3.779   0.468   2.506  0.1645 -0.0107 -0.2844
 9901TIP3    H151194   3.853   0.427   2.552  0.6404  0.9763 -0.1408
 9901TIP3    H251195   3.736   0.395   2.461  1.4423 -0.5644 -0.6772
 9902TIP3   OH251196   5.855   2.260  16.566 -0.6100  0.3487  0.0452
 9902TIP3    H151197   5.832   2.297  16.651  1.1120 -0.6208  0.9956
 9902TIP3    H251198   5.911   2.327  16.525 -1.2799  0.7329 -0.2471
 9903TIP3   OH251199   5.451   2.710  16.954 -0.1575  0.1110  0.2180
 9903TIP3    H151200   5.546   2.722  16.949 -0.2133  0.3542 -0.2927
 9903TIP3    H251201   5.419   2.790  16.995 -0.0868 -0.2485  1.0112
 9904TIP3   OH251202   0.328   5.834  13.564 -0.3164  0.1932 -1.1316
 9904TIP3    H151203   0.386   5.852  13.638 -1.2214  0.3109 -0.4371
 9904TIP3    H251204   0.358   5.892  13.494  0.0911  0.5947 -0.6234
 9905TIP3   OH251205   1.780   0.320   6.713 -0.3906  0.0227  0.0459
 9905TIP3    H151206   1.722   0.278   6.775  2.2139 -3.1347  0.6249
 9905TIP3    H251207   1.746   0.296   6.627 -0.5959 -0.8278  0.3579
 9906TIP3   OH251208   5.933   4.867   1.892 -0.2619 -0.0007  0.2994
 9906TIP3    H151209   5.843   4.883   1.863  0.1179  0.3303 -0.7417
 9906TIP3    H251210   5.968   4.954   1.911 -0.4429 -0.1967  1.6324
 9907TIP3   OH251211   3.460   5.384  17.045  0.7163 -0.1210 -0.1955
 9907TIP3    H151212   3.474   5.479  17.046  2.1036 -0.2995 -0.0350
 9907TIP3    H251213   3.423   5.366  16.958  0.4558  0.5619 -0.2325
 9908TIP3   OH251214   2.954   3.605   4.076 -0.3533 -0.0319 -0.6869
 9908TIP3    H151215   2.987   3.564   4.156 -0.5977  0.1456 -0.4924
 9908TIP3    H251216   3.028   3.656   4.043 -0.0482 -0.6256 -0.9334
 9909TIP3   OH251217   5.780   0.758  13.478  0.6742  0.0503 -0.1225
 9909TIP3    H151218   5.783   0.692  13.409  0.7973 -0.8015  0.6789
 9909TIP3    H251219   5.686   0.774  13.491  0.5810 -0.9861  0.6087
 9910TIP3   OH251220   3.880   4.593  16.036 -0.1805  0.6455  0.0589
 9910TIP3    H151221   3.786   4.577  16.029  0.0359 -0.0569 -2.1184
 9910TIP3    H251222   3.892   4.678  15.993  0.3226  0.0189 -1.0936
 9911TIP3   OH251223   2.974   6.270  12.225 -0.3832 -0.3318 -0.3937
 9911TIP3    H151224   3.004   6.266  12.316 -2.1634  1.1284  0.3276
 9911TIP3    H251225   3.053   6.259  12.173  0.7100 -0.9953  1.3353
 9912TIP3   OH251226   2.463   4.021   4.609  0.4557  0.4070 -0.1395
 9912TIP3    H151227   2.411   4.074   4.549  3.3138  1.7011 -1.6643
 9912TIP3    H251228   2.519   4.084   4.654  2.3599 -1.0778 -0.3328
 9913TIP3   OH251229   1.782   6.440  13.436 -0.0350 -0.0065 -0.4579
 9913TIP3    H151230   1.817   6.379  13.371 -0.3112 -0.4206 -0.2219
 9913TIP3    H251231   1.796   6.526  13.397  2.2834 -0.0636  0.1093
 9914TIP3   OH251232   5.797   1.183  10.675 -0.5952  0.0711  0.6809
 9914TIP3    H151233   5.872   1.241  10.663  0.3170 -1.2281 -0.1633
 9914TIP3    H251234   5.795   1.130  10.595 -2.1957 -0.1728  0.8553
 9915TIP3   OH251235   5.995   2.340   3.229 -0.1845 -0.4190  0.1114
 9915TIP3    H151236   5.925   2.397   3.196  1.0637  0.8575 -0.4559
 9915TIP3    H251237   5.973   2.253   3.195 -0.0899  0.4499 -2.3597
 9916TIP3   OH251238   3.426   5.417  12.159  0.6355 -0.0394 -0.1305
 9916TIP3    H151239   3.420   5.456  12.247  0.8522  0.9919 -0.5567
 9916TIP3    H251240   3.456   5.488  12.103  0.0181 -0.5431 -1.1462
 9917TIP3   OH251241   2.587   6.109  16.120 -0.2683 -0.0352 -0.5608
 9917TIP3    H151242   2.659   6.066  16.167  0.3260  0.8437 -0.6300
 9917TIP3    H251243   2.508   6.081  16.166  0.1047 -1.0772 -0.5206
 9918TIP3   OH251244   4.815   2.133   1.615 -0.1984 -0.0692 -0.0599
 9918TIP3    H151245   4.743   2.095   1.563  1.7194 -1.9852 -1.4942
 9918TIP3    H251246   4.850   2.202   1.559 -0.2656  0.1678  0.1908
 9919TIP3   OH251247   4.134   6.135  16.688  0.2088  0.7577 -0.2152
 9919TIP3    H151248   4.202   6.179  16.739 -0.5080  1.7214 -0.0727
 9919TIP3    H251249   4.065   6.201  16.677 -0.1029  0.2407 -1.5466
 9920TIP3   OH251250   3.726   5.954   4.255 -0.2985 -0.3081  0.4675
 9920TIP3    H151251   3.696   6.042   4.229  0.6477 -0.0443  0.2322
 9920TIP3    H251252   3.798   5.935   4.195  0.1227 -0.8505  1.1333
 9921TIP3   OH251253   6.600   3.056   3.192  0.0587  0.7525  0.3406
 9921TIP3    H151254   6.683   3.090   3.226  0.4433  0.6044 -0.4496
 9921TIP3    H251255   6.618   2.964   3.174  0.3057  1.1452 -1.6369
 9922TIP3   OH251256   1.844   6.410  11.883 -0.3430  0.1940 -0.0180
 9922TIP3    H151257   1.839   6.331  11.937 -0.9535  0.6437  0.5932
 9922TIP3    H251258   1.832   6.482  11.945 -0.6820  0.7344 -0.7052
 9923TIP3   OH251259   3.662   0.423  16.042 -0.0889 -0.3476 -0.2494
 9923TIP3    H151260   3.727   0.368  16.001  0.2493 -0.0619 -0.1047
 9923TIP3    H251261   3.602   0.447  15.972  0.4109  0.0330 -0.5566
 9924TIP3   OH251262   3.993   3.802   1.062  0.5389  0.0566 -0.3416
 9924TIP3    H151263   3.910   3.848   1.054 -0.5555 -0.9455  3.3287
 9924TIP3    H251264   4.041   3.852   1.129  2.4193 -0.0556 -1.5416
 9925TIP3   OH251265   3.823   0.471  11.515  0.2643  0.3824 -0.8023
 9925TIP3    H151266   3.768   0.539  11.555 -0.1499  0.3914 -1.3834
 9925TIP3    H251267   3.813   0.395  11.574 -1.2082  0.0461 -1.4514
 9926TIP3   OH251268   5.649   5.164  16.934 -0.1020 -0.0291 -0.2018
 9926TIP3    H151269   5.629   5.095  16.997 -1.0306 -0.1165 -0.5745
 9926TIP3    H251270   5.660   5.118  16.850  1.4632  0.0449 -0.0761
 9927TIP3   OH251271   3.415   6.432  11.253  0.3801 -0.5391  0.2709
 9927TIP3    H151272   3.434   6.512  11.204  1.9431 -1.7884 -1.2812
 9927TIP3    H251273   3.485   6.426  11.317 -1.3611  0.8030  2.4782
 9928TIP3   OH251274   0.088   1.856   0.879  0.5403 -0.2092  0.1377
 9928TIP3    H151275   0.162   1.803   0.851  1.2143  0.2260  1.0247
 9928TIP3    H251276   0.019   1.837   0.816  1.2933 -0.8924 -0.5000
 9929TIP3   OH251277   2.353   4.251   2.625 -0.1848 -0.0150  0.5247
 9929TIP3    H151278   2.353   4.256   2.530  0.6914  0.6968  0.5572
 9929TIP3    H251279   2.316   4.165   2.644 -1.0407  0.1263 -0.4325
 9930TIP3   OH251280   3.137   6.450   2.819 -0.5293  0.7963  0.1861
 9930TIP3    H151281   3.171   6.398   2.892 -0.0960  0.5237 -0.2025
 9930TIP3    H251282   3.215   6.485   2.777 -0.4717 -1.8173 -2.2024
 9931TIP3   OH251283   4.079   6.689   1.912  0.0250 -0.2374 -0.3023
 9931TIP3    H151284   4.166   6.663   1.942  0.3742  0.7537 -0.4237
 9931TIP3    H251285   4.082   6.682   1.817  0.3731  0.9412 -0.3949
 9932TIP3   OH251286   1.147   3.486  14.816  0.0114 -0.4493 -0.2845
 9932TIP3    H151287   1.214   3.548  14.846 -1.3577 -0.6731  3.9395
 9932TIP3    H251288   1.194   3.404  14.802  1.1831  0.4170 -1.6799
 9933TIP3   OH251289   6.299   1.768  12.391 -0.1143 -0.6146 -0.2245
 9933TIP3    H151290   6.207   1.746  12.381 -0.2176 -0.7950  0.9373
 9933TIP3    H251291   6.338   1.752  12.305 -1.4086  0.7138 -1.0811
 9934TIP3   OH251292   1.581   0.762   2.332  0.3187  0.0075  0.2491
 9934TIP3    H151293   1.523   0.803   2.397 -0.5136 -0.6918 -0.0357
 9934TIP3    H251294   1.574   0.817   2.255 -0.2286 -0.2555  0.1086
 9935TIP3   OH251295   4.909   5.616   2.204 -0.0045 -0.5023 -0.1776
 9935TIP3    H151296   4.932   5.656   2.120 -0.0455  2.6912  1.1848
 9935TIP3    H251297   4.993   5.593   2.243  0.1733  0.2027 -0.1301
 9936TIP3   OH251298   5.468   1.616  14.189  0.1109 -0.8258 -0.3772
 9936TIP3    H151299   5.414   1.593  14.264 -0.7771  1.2604 -0.3087
 9936TIP3    H251300   5.497   1.706  14.206  0.3879 -0.5076 -2.2399
 9937TIP3   OH251301   4.012   4.789  16.625  0.1606  0.1947 -0.1544
 9937TIP3    H151302   4.024   4.797  16.720 -1.2853 -0.1993  0.0817
 9937TIP3    H251303   4.001   4.695  16.610 -1.4968  0.4075 -0.4448
 9938TIP3   OH251304   4.245   5.005   5.073 -0.3522 -0.4103  0.2797
 9938TIP3    H151305   4.293   5.000   5.156  0.7517  0.8479 -0.2355
 9938TIP3    H251306   4.255   5.096   5.046  1.2394 -1.2325 -2.3152
 9939TIP3   OH251307   1.580   3.544   5.587  0.1060  0.0785 -0.3760
 9939TIP3    H151308   1.487   3.535   5.608  0.3901 -1.3936  0.3251
 9939TIP3    H251309   1.588   3.510   5.498 -0.0042  0.0562 -0.3775
 9940TIP3   OH251310   5.921   5.034   1.573  0.0804  0.3987 -0.1372
 9940TIP3    H151311   6.009   4.998   1.569  0.1732  0.6933 -0.9876
 9940TIP3    H251312   5.929   5.122   1.538 -0.2128  1.1544  1.6069
 9941TIP3   OH251313   5.110   1.840  14.743 -0.0559 -0.5070  0.1666
 9941TIP3    H151314   5.066   1.911  14.790  0.1169  0.0030 -0.4374
 9941TIP3    H251315   5.043   1.806  14.684 -0.0177 -0.5753  0.1634
 9942TIP3   OH251316   4.399   1.564   4.271 -0.6842  0.2436 -0.6843
 9942TIP3    H151317   4.408   1.642   4.325 -0.0243  1.8294 -2.9293
 9942TIP3    H251318   4.304   1.552   4.261 -0.8030  0.2124  0.3853
 9943TIP3   OH251319   1.485   5.033  12.453 -0.1456  0.2735 -0.6294
 9943TIP3    H151320   1.479   5.119  12.411  0.0663  0.0193 -1.1927
 9943TIP3    H251321   1.397   5.017  12.488  0.1292  1.2584  0.5887
 9944TIP3   OH251322   5.488   5.136  13.796 -0.4065  0.1654  0.1978
 9944TIP3    H151323   5.444   5.086  13.727  0.7400 -2.3368  1.1283
 9944TIP3    H251324   5.496   5.224  13.761 -0.0948 -0.9246 -2.7707
 9945TIP3   OH251325   2.047   1.659  15.265 -0.0800  0.1588  0.2923
 9945TIP3    H151326   1.988   1.600  15.312  0.8833 -0.8342  0.3256
 9945TIP3    H251327   2.055   1.619  15.178  2.2922 -1.0795  0.9833
 9946TIP3   OH251328   2.100   5.091   1.584 -0.6377  0.3621 -1.1970
 9946TIP3    H151329   2.058   5.050   1.508 -0.6774 -0.8120 -0.5694
 9946TIP3    H251330   2.101   5.022   1.651  0.7981  0.8674 -0.6448
 9947TIP3   OH251331   6.422   2.490  11.883  0.0096 -0.6155  0.1607
 9947TIP3    H151332   6.408   2.553  11.813  3.7606 -0.1218 -0.3391
 9947TIP3    H251333   6.376   2.527  11.958  0.5797  1.7742 -0.5952
 9948TIP3   OH251334   5.124   4.894   4.822 -0.7342 -0.2123  0.2879
 9948TIP3    H151335   5.167   4.968   4.864 -1.0105 -0.3753  0.8849
 9948TIP3    H251336   5.139   4.906   4.729 -0.6534  0.5148  0.3909
 9949TIP3   OH251337   3.449   5.809  12.555  0.9920 -0.1402  0.1302
 9949TIP3    H151338   3.397   5.828  12.477  0.1673 -2.6122 -0.0132
 9949TIP3    H251339   3.458   5.893  12.599  0.7066  1.1746 -2.1355
 9950TIP3   OH251340   2.307   6.401  13.793 -0.3555  0.6421 -0.0918
 9950TIP3    H151341   2.224   6.423  13.751  0.3147  0.8305 -1.3702
 9950TIP3    H251342   2.293   6.314  13.831 -1.0443  0.5430 -0.5636
 9951TIP3   OH251343   6.523   2.490   1.958  0.3113  0.3081 -0.3762
 9951TIP3    H151344   6.510   2.565   1.900  1.4067  1.7227  1.0717
 9951TIP3    H251345   6.449   2.433   1.942 -0.4794  1.6393 -1.6665
 9952TIP3   OH251346   4.015   3.306  11.190  0.7269 -0.0856 -0.0743
 9952TIP3    H151347   3.970   3.222  11.176 -0.6245  0.6954 -0.5483
 9952TIP3    H251348   4.095   3.299  11.138  0.3834 -0.8865 -0.5141
 9953TIP3   OH251349   2.235   4.719  15.197 -0.2013 -0.6845 -0.0794
 9953TIP3    H151350   2.291   4.663  15.251 -0.2373 -0.4738  0.1803
 9953TIP3    H251351   2.291   4.794  15.176  0.2277 -1.3370 -1.3765
 9954TIP3   OH251352   4.025   3.251   2.802 -0.2862 -0.0758 -0.3580
 9954TIP3    H151353   3.976   3.224   2.724 -1.2430  1.8641 -0.4921
 9954TIP3    H251354   4.061   3.170   2.837 -1.1774 -1.1995 -1.9088
 9955TIP3   OH251355   4.236   1.036   1.007 -0.3197 -0.2988 -0.0728
 9955TIP3    H151356   4.168   1.027   1.074  0.6056  1.2207  1.1348
 9955TIP3    H251357   4.222   1.124   0.971  0.6387 -0.1855 -0.1994
 9956TIP3   OH251358   2.888   5.806   3.079 -0.5984 -0.1703 -0.3822
 9956TIP3    H151359   2.874   5.854   3.160 -1.2389 -0.5965 -0.2326
 9956TIP3    H251360   2.951   5.859   3.030  0.0522 -0.0782  0.5263
 9957TIP3   OH251361   2.326   6.162  13.905 -0.1223 -0.6294 -0.0445
 9957TIP3    H151362   2.276   6.105  13.964 -0.8778 -1.8019 -1.7126
 9957TIP3    H251363   2.417   6.133  13.915 -0.2160 -0.6864  0.6721
 9958TIP3   OH251364   2.165   6.471   3.590  0.2226 -0.4902  0.5831
 9958TIP3    H151365   2.075   6.482   3.620  0.0399 -0.1073 -0.0804
 9958TIP3    H251366   2.184   6.552   3.543  0.6840 -0.8435  0.1498
 9959TIP3   OH251367   1.093   3.478   5.712 -0.3148 -0.6079 -0.0408
 9959TIP3    H151368   1.036   3.437   5.777 -1.4272 -1.0030 -1.2074
 9959TIP3    H251369   1.062   3.569   5.708  0.2104 -0.4029  0.4613
 9960TIP3   OH251370   4.440   2.692  15.142  0.2033  0.2939  0.8064
 9960TIP3    H151371   4.479   2.662  15.059 -0.7363 -1.3470  0.9088
 9960TIP3    H251372   4.451   2.617  15.201  0.0308  1.1124  1.8972
 9961TIP3   OH251373   0.886   4.553  16.357  0.3417  0.1057  0.0212
 9961TIP3    H151374   0.815   4.506  16.315 -0.3180  0.9405  0.1556
 9961TIP3    H251375   0.957   4.490  16.362 -1.2116 -1.6492  2.2564
 9962TIP3   OH251376   3.634   1.573   0.846 -0.2531  0.2413  0.1127
 9962TIP3    H151377   3.638   1.638   0.916  0.1380 -0.1567  0.4619
 9962TIP3    H251378   3.544   1.580   0.813  0.1151  1.7999 -0.6629
 9963TIP3   OH251379   2.741   4.635  13.956  0.0747 -0.6128 -0.2741
 9963TIP3    H151380   2.802   4.590  14.014 -1.4193  0.6321  2.4800
 9963TIP3    H251381   2.670   4.572  13.942  0.4041 -0.8936 -0.6640
 9964TIP3   OH251382   4.235   0.432   4.804 -0.0419 -0.7730  0.1702
 9964TIP3    H151383   4.298   0.451   4.873  1.9762 -2.3782 -1.1279
 9964TIP3    H251384   4.169   0.377   4.846  0.4884 -0.7077  1.1023
 9965TIP3   OH251385   6.075   3.510  15.325  0.3696  0.0774  0.4879
 9965TIP3    H151386   6.048   3.547  15.242  1.4782 -0.1860 -0.0036
 9965TIP3    H251387   6.167   3.533  15.333  0.1138  0.7332  1.9991
 9966TIP3   OH251388   5.989   5.158  14.941  0.1576 -0.2544  0.1152
 9966TIP3    H151389   6.081   5.178  14.921  0.1764 -0.3689  0.0870
 9966TIP3    H251390   5.940   5.192  14.866  0.1796 -0.2187  0.1168
 9967TIP3   OH251391   4.199   0.434  11.979 -0.6636  0.0549  0.1901
 9967TIP3    H151392   4.248   0.459  12.056 -0.9638  1.0149  0.0833
 9967TIP3    H251393   4.258   0.452  11.906 -0.3926 -0.8186  0.1808
 9968TIP3   OH251394   2.112   4.769   0.523 -0.4010  0.3124 -0.2596
 9968TIP3    H151395   2.075   4.778   0.435  0.1883 -1.8969 -0.8107
 9968TIP3    H251396   2.169   4.846   0.533  0.0261  0.2891 -2.1033
 9969TIP3   OH251397   1.405   4.268   2.482  0.6843 -0.3896 -0.6246
 9969TIP3    H151398   1.345   4.257   2.556  2.2694 -2.3308  0.4704
 9969TIP3    H251399   1.372   4.346   2.436 -0.5278  0.7309  1.9308
 9970TIP3   OH251400   4.642   4.474   0.739  0.7028  0.3779 -0.1163
 9970TIP3    H151401   4.689   4.457   0.658  1.6440  0.4735  0.3943
 9970TIP3    H251402   4.681   4.555   0.773 -0.1631  0.7228  0.0839
 9971TIP3   OH251403   4.342   6.450   2.719 -0.1078 -0.1629 -0.0087
 9971TIP3    H151404   4.378   6.537   2.700 -1.0405  0.3029  0.3012
 9971TIP3    H251405   4.269   6.441   2.658  0.0431 -0.7814 -0.1022
 9972TIP3   OH251406   3.022   4.910  11.386 -0.0997  0.0850 -0.8740
 9972TIP3    H151407   3.014   4.910  11.482  1.4605  2.4487 -0.6571
 9972TIP3    H251408   2.965   4.839  11.358 -1.3152 -0.1235  1.7488
 9973TIP3   OH251409   5.471   0.081   5.283 -0.2388  0.0430 -0.0875
 9973TIP3    H151410   5.526   0.005   5.262  1.6944  0.8638  1.6831
 9973TIP3    H251411   5.414   0.050   5.353 -0.8490 -0.2932 -0.7111
 9974TIP3   OH251412   0.359   5.260   0.952  0.1341  0.4397 -0.0469
 9974TIP3    H151413   0.350   5.221   1.039  2.1003  0.6448  0.2882
 9974TIP3    H251414   0.271   5.292   0.931  0.0409  2.5938  2.9335
 9975TIP3   OH251415   1.929   6.298   5.962  0.0112 -0.5105 -0.1371
 9975TIP3    H151416   1.884   6.379   5.983  0.2566 -0.6262  0.9246
 9975TIP3    H251417   2.000   6.292   6.027  0.1187 -1.4638 -0.3171
 9976TIP3   OH251418   2.081   0.308  16.456  0.3244 -0.0905  0.4110
 9976TIP3    H151419   2.006   0.256  16.426  1.1739 -1.5190  0.6266
 9976TIP3    H251420   2.150   0.287  16.393  1.1720 -0.5584  1.4703
 9977TIP3   OH251421   6.739   2.860   1.664 -0.8795  0.0193  0.1365
 9977TIP3    H151422   6.744   2.857   1.759 -1.6428 -0.4139  0.1731
 9977TIP3    H251423   6.709   2.948   1.644 -0.7559  0.0984  0.2909
 9978TIP3   OH251424   5.672   6.623   5.827 -0.2605 -0.1677 -0.3426
 9978TIP3    H151425   5.730   6.547   5.823 -0.2080 -0.2081  0.7312
 9978TIP3    H251426   5.584   6.587   5.818 -0.4016 -0.6748  2.2884
 9979TIP3   OH251427   3.982   1.844  15.505 -0.0204  0.4220 -0.4087
 9979TIP3    H151428   3.887   1.854  15.510 -0.0572 -0.1411  0.3446
 9979TIP3    H251429   4.012   1.917  15.452 -0.8638  0.6907 -0.5245
 9980TIP3   OH251430   1.490   5.799  14.911 -0.0058  0.1570  0.3557
 9980TIP3    H151431   1.554   5.869  14.929  2.1514 -0.4281 -3.7818
 9980TIP3    H251432   1.415   5.845  14.872 -0.1021  0.4525  0.8860
 9981TIP3   OH251433   5.269   2.786   0.008  1.2321 -0.2521  0.3554
 9981TIP3    H151434   5.327   2.713  -0.015  0.4363 -0.7097 -0.2079
 9981TIP3    H251435   5.181   2.752  -0.004  0.8386  1.1947 -1.2340
 9982TIP3   OH251436   6.596   5.338   5.709 -0.1756 -0.3153  0.6482
 9982TIP3    H151437   6.513   5.301   5.678 -0.1995 -1.3978  1.9319
 9982TIP3    H251438   6.608   5.301   5.796  1.4797  0.1210  0.6390
 9983TIP3   OH251439   3.458   5.240   1.432 -0.0418 -0.1286 -0.6618
 9983TIP3    H151440   3.455   5.326   1.390  1.1636  0.3054  0.1104
 9983TIP3    H251441   3.537   5.242   1.486 -1.2646 -0.8217  1.2776
 9984TIP3   OH251442   2.793   0.547   1.261  0.0568 -0.1263 -0.2322
 9984TIP3    H151443   2.729   0.603   1.306 -0.6195 -0.6483 -0.5361
 9984TIP3    H251444   2.771   0.458   1.288  2.4548 -0.1842  1.9672
 9985TIP3   OH251445   3.536   5.987  14.378  0.0125  0.2316 -0.5165
 9985TIP3    H151446   3.588   6.002  14.299 -0.4877 -2.3275 -1.4020
 9985TIP3    H251447   3.461   6.047  14.369 -0.1456 -0.1583 -2.1161
 9986TIP3   OH251448   1.322   5.752   4.671 -0.2074 -0.6559 -0.6676
 9986TIP3    H151449   1.240   5.801   4.672  0.1842  0.0013 -0.4176
 9986TIP3    H251450   1.303   5.675   4.617 -1.2902 -1.0515  0.2392
 9987TIP3   OH251451   1.257   3.549  13.002  0.0744  0.0149  0.6747
 9987TIP3    H151452   1.190   3.611  12.972 -0.6786 -0.3035  1.6494
 9987TIP3    H251453   1.241   3.470  12.950  0.7117  0.4525 -0.2084
 9988TIP3   OH251454   3.916   5.688   5.126  0.4458 -0.2027  0.1690
 9988TIP3    H151455   3.859   5.611   5.130  0.6297 -0.5683 -2.4686
 9988TIP3    H251456   3.999   5.659   5.166 -0.2357 -0.5654  1.3758
 9989TIP3   OH251457   0.857   4.140   6.520 -0.4782 -0.3031 -0.3852
 9989TIP3    H151458   0.762   4.147   6.530 -0.2562  3.8071  0.5036
 9989TIP3    H251459   0.886   4.229   6.506  3.5081 -1.0720  1.6427
 9990TIP3   OH251460   6.303   4.473   1.249 -0.1675  0.4720 -0.1497
 9990TIP3    H151461   6.259   4.456   1.166  0.1307 -2.2970  0.1494
 9990TIP3    H251462   6.231   4.490   1.311 -0.6775 -0.9050 -0.3153
 9991TIP3   OH251463   3.049   1.064  11.430 -0.0927  0.4081 -0.8396
 9991TIP3    H151464   3.124   1.108  11.470 -1.6862  0.7525  2.0547
 9991TIP3    H251465   2.984   1.132  11.419 -0.4878 -0.1351 -2.1364
 9992TIP3   OH251466   0.487   2.519  15.496 -0.0918  0.3123  0.7524
 9992TIP3    H151467   0.449   2.556  15.575 -1.3950 -1.1865  0.8724
 9992TIP3    H251468   0.497   2.594  15.437 -0.4048  1.2179  1.8143
 9993TIP3   OH251469   2.368   0.669  16.363  0.1463  0.0595  0.5661
 9993TIP3    H151470   2.433   0.683  16.432 -0.6304  1.4855  1.0644
 9993TIP3    H251471   2.284   0.665  16.409 -0.2963  0.0547 -0.2120
 9994TIP3   OH251472   4.732   0.466  14.586  0.0944  0.2581  0.6904
 9994TIP3    H151473   4.743   0.458  14.681  1.7735  0.0716  0.5003
 9994TIP3    H251474   4.751   0.557  14.567  1.0871 -0.0078  0.3792
 9995TIP3   OH251475   5.570   0.948   2.666 -0.6056  0.0309  0.4678
 9995TIP3    H151476   5.626   0.931   2.591 -0.1567  0.6289  0.6609
 9995TIP3    H251477   5.496   0.887   2.655  0.4993 -1.3994  0.6845
 9996TIP3   OH251478   2.578   4.140  15.804 -0.0599 -0.6798 -0.3847
 9996TIP3    H151479   2.644   4.131  15.736  0.2047 -0.1372 -0.2004
 9996TIP3    H251480   2.627   4.142  15.886 -0.3651 -1.1622 -0.1820
 9997TIP3   OH251481   0.598   2.589  11.469 -0.0848 -0.1085 -0.2357
 9997TIP3    H151482   0.691   2.594  11.492  0.2152  0.0690 -1.4047
 9997TIP3    H251483   0.570   2.504  11.501  1.1081 -1.2132 -1.9200
 9998TIP3   OH251484   5.701   6.559   3.853 -0.2068  0.3804  0.4134
 9998TIP3    H151485   5.654   6.477   3.866  0.4956 -0.2846 -1.0284
 9998TIP3    H251486   5.784   6.547   3.899 -0.7613  0.9552  1.6202
 9999TIP3   OH251487   5.004   0.443  12.082  0.2092 -0.1427 -0.1369
 9999TIP3    H151488   4.989   0.474  11.993  2.0608 -2.1489 -1.2744
 9999TIP3    H251489   4.926   0.393  12.104 -0.4084  0.6506 -0.5027
10000TIP3   OH251490   5.443   4.366  16.605 -0.1283 -0.7800 -0.3941
10000TIP3    H151491   5.445   4.440  16.666 -1.4119 -0.1874 -1.0349
10000TIP3    H251492   5.535   4.344  16.591  0.2425  0.1641  0.4352
10001TIP3   OH251493   5.382   6.717  14.594 -0.5763  0.1268  0.3551
10001TIP3    H151494   5.370   6.713  14.499 -0.7838  1.6661  0.2918
10001TIP3    H251495   5.300   6.684  14.630 -0.2930 -0.9723  0.0162
10002TIP3   OH251496   4.823   4.100   0.948  0.0266  0.1995  0.1251
10002TIP3    H151497   4.727   4.102   0.939  0.0161  0.9792  0.3542
10002TIP3    H251498   4.854   4.068   0.864 -0.5100 -1.9442  0.6658
10003TIP3   OH251499   1.910   0.007   0.597  0.7026  0.2243  0.2999
10003TIP3    H151500   2.006   0.002   0.602  0.6312 -1.4891  0.5180
10003TIP3    H251501   1.887  -0.044   0.520 -0.0982 -0.5001  0.9932
10004TIP3   OH251502   5.265   4.554  13.756 -0.1998 -0.0242 -0.1067
10004TIP3    H151503   5.356   4.578  13.775 -0.3375  0.7539 -0.3888
10004TIP3    H251504   5.261   4.546  13.661  0.1285 -2.4501  0.0095
10005TIP3   OH251505   5.416   5.925   4.792  0.1628  0.3943 -0.2049
10005TIP3    H151506   5.338   5.878   4.761 -0.5304  0.5631  1.1635
10005TIP3    H251507   5.437   5.986   4.722 -1.3471  0.8016 -0.3403
10006TIP3   OH251508   0.561   5.705  15.636  0.3732 -0.4295  0.1803
10006TIP3    H151509   0.625   5.760  15.681 -0.6259 -0.4643  1.7312
10006TIP3    H251510   0.596   5.695  15.548  2.5589 -0.5481  0.9885
10007TIP3   OH251511   1.950   0.761   1.176  0.0225 -0.0368  0.4816
10007TIP3    H151512   2.005   0.704   1.122  0.2085  0.3119  0.2900
10007TIP3    H251513   1.948   0.844   1.127 -2.2642 -0.6169 -0.4987
10008TIP3   OH251514   3.805   4.612  14.154  0.4266 -0.7084  0.4634
10008TIP3    H151515   3.872   4.560  14.111 -0.6646 -1.2447 -0.6348
10008TIP3    H251516   3.736   4.550  14.176 -0.0145 -0.0577  0.9635
10009TIP3   OH251517   6.461   4.440  17.057  0.1936  0.4274 -0.1264
10009TIP3    H151518   6.368   4.459  17.060  0.0259  0.1030 -1.9818
10009TIP3    H251519   6.472   4.383  16.982  2.1931  2.4490 -1.5294
10010TIP3   OH251520   5.848   3.987   1.310 -0.6649  0.1137 -0.1656
10010TIP3    H151521   5.918   4.017   1.252 -1.0212  0.4908 -0.4090
10010TIP3    H251522   5.818   4.066   1.354 -0.6018 -0.1255  0.3088
10011TIP3   OH251523   2.804   3.168   3.676 -0.4656 -0.1376 -0.1369
10011TIP3    H151524   2.727   3.153   3.731  0.0961  1.4417  1.1672
10011TIP3    H251525   2.878   3.144   3.732  0.0453 -0.8547 -1.0884
10012TIP3   OH251526   5.226   2.936   5.036 -0.0609 -0.2251  0.5604
10012TIP3    H151527   5.210   2.905   5.125  1.2044  2.1775  1.7353
10012TIP3    H251528   5.166   3.009   5.025 -1.7686 -1.8047 -1.4822
10013TIP3   OH251529   4.701   0.315   3.076  0.0164  0.1092 -0.1382
10013TIP3    H151530   4.648   0.343   3.001 -1.2944  1.0014  1.0875
10013TIP3    H251531   4.686   0.381   3.143  1.8809 -0.1844  0.6324
10014TIP3   OH251532   2.918   0.548  14.121  0.1816  0.8054 -0.3659
10014TIP3    H151533   2.899   0.489  14.048 -1.2370  1.1307 -0.2833
10014TIP3    H251534   2.971   0.495  14.181  0.8067  0.3287 -1.3178
10015TIP3   OH251535   2.297   4.067   4.978 -0.6594  0.1326 -0.2410
10015TIP3    H151536   2.262   4.136   4.922 -2.1393 -0.8430 -0.5876
10015TIP3    H251537   2.242   4.072   5.057 -2.3413 -2.0377 -1.1726
10016TIP3   OH251538   2.924   6.068  13.630 -0.0714 -0.4618 -0.5077
10016TIP3    H151539   2.977   6.110  13.698 -0.5930  1.0238 -0.9836
10016TIP3    H251540   2.953   6.110  13.549 -1.6550  0.0502 -0.8252
10017TIP3   OH251541   6.658   4.787  14.544  0.0048  0.0993 -0.0132
10017TIP3    H151542   6.565   4.799  14.525 -0.0598  0.3940  0.4664
10017TIP3    H251543   6.673   4.693  14.533 -0.0777  0.2092 -1.2469
10018TIP3   OH251544   3.486   2.892  13.577 -0.2496 -0.0066  0.0155
10018TIP3    H151545   3.484   2.826  13.508 -1.2229  0.6946 -0.6395
10018TIP3    H251546   3.399   2.930  13.577  0.0518  0.7158  0.9461
10019TIP3   OH251547   1.063   5.182  16.309 -0.2336 -0.4375  0.4730
10019TIP3    H151548   0.981   5.179  16.260 -0.3755  1.7748  0.4572
10019TIP3    H251549   1.120   5.120  16.264 -1.6119 -1.3532 -0.0559
10020TIP3   OH251550   4.431   2.216  11.813  0.2369  0.4494 -0.1181
10020TIP3    H151551   4.485   2.289  11.843  1.9382 -0.4513 -0.7876
10020TIP3    H251552   4.343   2.251  11.807  0.9455  2.3410 -0.0617
10021TIP3   OH251553   5.361   0.197  16.112  0.2012  0.4741 -0.1388
10021TIP3    H151554   5.314   0.125  16.069 -0.6800  1.3132 -0.6241
10021TIP3    H251555   5.453   0.185  16.087 -0.1448  0.3301 -1.4081
10022TIP3   OH251556   6.385   3.453   3.619 -0.6275 -0.2298  0.3713
10022TIP3    H151557   6.290   3.439   3.614 -0.8907  1.2981  0.5759
10022TIP3    H251558   6.397   3.544   3.592  0.8813 -0.6247 -0.4216
10023TIP3   OH251559   3.403   0.945   6.080 -0.5130 -0.0871 -0.1649
10023TIP3    H151560   3.309   0.940   6.066 -0.6108  0.0897  0.4060
10023TIP3    H251561   3.422   1.038   6.089 -0.2549 -0.1091 -0.4521
10024TIP3   OH251562   0.075   5.780   0.968 -0.4288 -0.5860 -0.4217
10024TIP3    H151563   0.147   5.802   0.908  0.0033 -2.9819 -0.8693
10024TIP3    H251564   0.027   5.862   0.977  1.4870  0.7234 -1.2948
10025TIP3   OH251565   2.048   3.074   2.580 -0.2864 -0.3949 -0.3039
10025TIP3    H151566   1.991   3.152   2.579  0.3326  0.0680  0.0029
10025TIP3    H251567   2.060   3.054   2.672  1.3955  0.5303 -0.2865
10026TIP3   OH251568   0.759   6.358   5.124 -0.2467  0.3888 -0.3978
10026TIP3    H151569   0.737   6.445   5.090 -4.2032  0.4034  1.5902
10026TIP3    H251570   0.677   6.309   5.119  1.2331 -2.4511  0.8198
10027TIP3   OH251571   3.042   2.337   4.776 -0.0240 -0.0442 -0.2943
10027TIP3    H151572   3.075   2.378   4.696 -1.9629  1.8599 -0.2087
10027TIP3    H251573   3.120   2.318   4.828  1.1502  0.4582 -1.8229
10028TIP3   OH251574   3.436   5.062  10.540 -0.4718 -0.2973 -0.7243
10028TIP3    H151575   3.361   5.099  10.587 -1.3116 -2.1095 -0.5780
10028TIP3    H251576   3.509   5.069  10.602 -0.4250  1.6035 -0.9180
10029TIP3   OH251577   2.929   6.212   3.130 -0.7518 -0.6488  0.1738
10029TIP3    H151578   3.006   6.226   3.185  0.1087 -0.8008 -0.9568
10029TIP3    H251579   2.964   6.176   3.048 -1.7329  1.6243 -1.3554
10030TIP3   OH251580   1.316   5.190   2.701  0.2796 -0.5495  0.3098
10030TIP3    H151581   1.322   5.266   2.642  2.3898 -2.9289 -2.8599
10030TIP3    H251582   1.401   5.187   2.745  0.4366 -1.3890 -0.0396
10031TIP3   OH251583   1.517   0.003   1.642 -0.4197 -1.1612 -0.1139
10031TIP3    H151584   1.456  -0.071   1.644 -1.3353 -0.4170  0.7474
10031TIP3    H251585   1.588  -0.022   1.700 -0.5776 -1.4931 -0.0632
10032TIP3   OH251586   2.274   3.743  11.976  0.5726  0.1779  0.5336
10032TIP3    H151587   2.205   3.772  12.036  0.9820  0.3154  0.9469
10032TIP3    H251588   2.286   3.650  11.997 -0.3231 -0.1624 -0.3787
10033TIP3   OH251589   3.642   3.058  12.829 -0.2338  0.1527  0.3632
10033TIP3    H151590   3.712   3.119  12.807  0.0190  0.2251  1.3260
10033TIP3    H251591   3.687   2.975  12.844 -0.6198 -0.4154 -1.4015
10034TIP3   OH251592   0.885   4.594  15.326  0.2806  0.0909 -0.4172
10034TIP3    H151593   0.887   4.690  15.322 -2.2683  0.3734  2.0098
10034TIP3    H251594   0.923   4.573  15.412  0.0750 -1.0274 -0.5894
10035TIP3   OH251595   6.426   2.922  12.406 -0.2494 -0.6071  0.0275
10035TIP3    H151596   6.400   3.012  12.388  1.0236 -0.6090 -2.1391
10035TIP3    H251597   6.494   2.930  12.472 -0.3756 -0.0161  0.0936
10036TIP3   OH251598   0.212   5.447  13.818 -0.1708  0.3199  0.1224
10036TIP3    H151599   0.230   5.503  13.893  1.9241 -0.5044  0.3100
10036TIP3    H251600   0.152   5.381  13.851  1.2787 -0.4628  1.3402
10037TIP3   OH251601   0.269   2.927  16.798 -0.8310  0.1487 -0.6328
10037TIP3    H151602   0.352   2.914  16.845 -1.4098 -0.1269  0.3542
10037TIP3    H251603   0.273   3.018  16.769 -0.2992  0.2285 -0.3347
10038TIP3   OH251604   2.224   2.659   4.037 -0.3570 -0.2643 -0.4987
10038TIP3    H151605   2.249   2.580   3.989 -2.1453 -1.4880  0.4431
10038TIP3    H251606   2.293   2.672   4.101  2.8226  2.1791 -4.0037
10039TIP3   OH251607   0.190   3.184  16.484  0.1132  0.2431 -0.9219
10039TIP3    H151608   0.129   3.257  16.474 -0.0511 -0.0837 -2.5937
10039TIP3    H251609   0.255   3.217  16.546 -1.4796  0.7570  0.5564
10040TIP3   OH251610   0.576   5.290  12.576 -0.2561 -0.0802 -0.4235
10040TIP3    H151611   0.501   5.233  12.591 -1.1850  0.6299 -2.0290
10040TIP3    H251612   0.633   5.240  12.518  0.1786 -0.3361  0.2123
10041TIP3   OH251613   6.528   0.252   5.031 -0.1265 -0.2064  0.3812
10041TIP3    H151614   6.520   0.156   5.033 -1.0331 -0.1504  0.0162
10041TIP3    H251615   6.438   0.283   5.045  0.4744  0.6263  2.9899
10042TIP3   OH251616   4.445   0.384   0.361 -0.1106 -0.4563  0.4954
10042TIP3    H151617   4.457   0.378   0.267  0.6284 -0.0443  0.5601
10042TIP3    H251618   4.518   0.334   0.398 -2.3418 -3.8497  0.8500
10043TIP3   OH251619   5.039   4.005   4.838 -0.8070 -0.2533  0.4131
10043TIP3    H151620   5.041   3.939   4.768 -1.8770 -0.2909  0.3970
10043TIP3    H251621   5.090   3.966   4.909 -1.2321 -1.0161  0.3152
10044TIP3   OH251622   2.245   6.270  16.883 -0.0779 -0.3721 -0.3225
10044TIP3    H151623   2.302   6.277  16.807 -0.9369 -1.1634 -1.0616
10044TIP3    H251624   2.290   6.320  16.951  0.8674  0.0758 -1.2435
10045TIP3   OH251625   6.673   2.431   1.434  0.0348 -0.1578 -0.1814
10045TIP3    H151626   6.671   2.520   1.468  1.1550 -0.5329  0.9268
10045TIP3    H251627   6.713   2.440   1.347  0.3277  0.3968  0.0035
10046TIP3   OH251628   4.098   6.729   3.266 -0.2308 -0.2111 -0.0568
10046TIP3    H151629   4.121   6.819   3.241 -1.4001 -0.0037 -0.4484
10046TIP3    H251630   4.077   6.734   3.359  2.0428 -0.5702  0.5317
10047TIP3   OH251631   5.495   1.921   0.988 -0.2654 -0.1128 -0.0096
10047TIP3    H151632   5.550   1.855   0.945 -2.2777 -1.9729  0.0882
10047TIP3    H251633   5.492   1.894   1.079  1.4636  2.0370  0.7631
10048TIP3   OH251634   0.132   4.599  11.859  0.1185 -0.3921  0.2962
10048TIP3    H151635   0.171   4.619  11.774 -0.6039 -0.9354 -0.1792
10048TIP3    H251636   0.206   4.597  11.919  0.5730  0.5867 -0.2026
10049TIP3   OH251637   6.192   2.755  14.081 -0.2038  0.0378  0.1854
10049TIP3    H151638   6.162   2.669  14.110 -0.2667 -0.0273 -0.0709
10049TIP3    H251639   6.115   2.812  14.093 -0.7653 -0.3294 -1.3829
10050TIP3   OH251640   1.298   0.784  17.191 -0.4785 -0.2929  0.7784
10050TIP3    H151641   1.340   0.731  17.259  1.6279  0.1476 -0.0994
10050TIP3    H251642   1.236   0.725  17.149 -1.1215 -0.8444  2.4232
10051TIP3   OH251643   5.970   4.160  13.913 -0.9105  0.0800 -0.3030
10051TIP3    H151644   5.891   4.139  13.863 -0.8033 -0.2813 -0.3220
10051TIP3    H251645   6.035   4.098  13.882 -0.8838 -0.2475  0.3874
10052TIP3   OH251646   2.750   6.117  14.246 -0.4409 -0.1869 -0.0547
10052TIP3    H151647   2.725   6.199  14.203 -1.6533 -0.7007 -0.3661
10052TIP3    H251648   2.667   6.078  14.273  0.2144 -0.4902  1.6518
10053TIP3   OH251649   2.355   2.182   3.795  0.4871  0.2329  0.2966
10053TIP3    H151650   2.378   2.090   3.800 -1.3537 -0.4611 -2.1988
10053TIP3    H251651   2.392   2.212   3.711  0.3711  1.5590  0.6939
10054TIP3   OH251652   4.997   2.274   6.019  0.1279 -0.0278 -0.7674
10054TIP3    H151653   4.924   2.242   6.072 -1.0679  1.1090 -1.6577
10054TIP3    H251654   5.024   2.199   5.966 -0.1670 -0.5538 -0.1734
10055TIP3   OH251655   2.119   3.477   5.101  0.3697  0.0774  0.1341
10055TIP3    H151656   2.037   3.430   5.112  0.0054  0.6729  0.0335
10055TIP3    H251657   2.128   3.488   5.006  0.1180  0.7655  0.1807
10056TIP3   OH251658   0.359   3.528  17.090  0.1687  0.7675  0.3823
10056TIP3    H151659   0.275   3.565  17.064 -0.0808  0.2417  0.4140
10056TIP3    H251660   0.402   3.503  17.008 -1.1660 -2.0809  0.4160
10057TIP3   OH251661   3.132   6.444   0.110 -0.5423 -0.0232  0.6616
10057TIP3    H151662   3.095   6.363   0.075 -1.7801  0.0574  1.7026
10057TIP3    H251663   3.168   6.489   0.033 -1.6320 -0.6300 -0.2454
10058TIP3   OH251664   2.195   4.432  12.063  0.2488  0.4942  0.3701
10058TIP3    H151665   2.195   4.457  11.971  1.1209 -1.4556 -0.2274
10058TIP3    H251666   2.106   4.449  12.093 -0.0368  1.2036 -0.8112
10059TIP3   OH251667   0.024   3.531  13.159 -0.6000 -0.3068 -0.1912
10059TIP3    H151668  -0.062   3.573  13.161 -0.9276 -0.9426 -0.3032
10059TIP3    H251669   0.075   3.575  13.227 -0.0189  2.0693 -2.0601
10060TIP3   OH251670   4.382   5.937  11.385 -0.1131  0.1448  0.4692
10060TIP3    H151671   4.463   5.934  11.436  1.8691  2.1141 -2.2765
10060TIP3    H251672   4.385   6.021  11.339 -2.3642 -0.9195 -1.8757
10061TIP3   OH251673   4.118   0.855  15.349  0.3839 -0.4616 -0.2051
10061TIP3    H151674   4.185   0.786  15.345  0.8264 -0.0089 -0.6881
10061TIP3    H251675   4.110   0.885  15.259 -0.4189 -0.4530 -0.1354
10062TIP3   OH251676   2.669   1.568  14.284 -0.5019  0.2041 -0.7893
10062TIP3    H151677   2.690   1.551  14.376 -0.1607  2.1826 -0.4504
10062TIP3    H251678   2.738   1.524  14.235 -0.5673 -0.6920 -0.1061
10063TIP3   OH251679   4.740   4.236  15.313  0.3216 -0.4266 -0.6679
10063TIP3    H151680   4.702   4.183  15.383 -1.1093  0.6599 -0.5760
10063TIP3    H251681   4.693   4.209  15.235 -2.3184  2.3795 -0.2300
10064TIP3   OH251682   2.256   6.567  16.250  0.4842  0.3492  0.1110
10064TIP3    H151683   2.299   6.507  16.311  1.0262  0.3827 -0.2319
10064TIP3    H251684   2.328   6.615  16.209  0.0546  3.3865  2.4770
10065TIP3   OH251685   3.323   2.316   3.319  0.4157  0.4717  0.2726
10065TIP3    H151686   3.263   2.244   3.300  0.0262  0.6529  0.8056
10065TIP3    H251687   3.371   2.330   3.237  0.5710 -0.4627  0.1926
10066TIP3   OH251688   3.677   5.919   4.680 -0.0612 -0.8238  0.6071
10066TIP3    H151689   3.686   5.963   4.764  0.4174 -1.8485  1.1138
10066TIP3    H251690   3.603   5.860   4.691 -0.3527 -0.5601  0.1141
10067TIP3   OH251691   0.207   0.468  10.332 -0.2389  0.0362  0.0394
10067TIP3    H151692   0.239   0.387  10.370 -0.7661  0.2544  0.9761
10067TIP3    H251693   0.131   0.441  10.279  0.0027 -0.1602 -0.2123
10068TIP3   OH251694   3.737   6.757   3.572 -0.7071  0.4307  0.3108
10068TIP3    H151695   3.669   6.704   3.613  0.6936 -0.9785  0.8904
10068TIP3    H251696   3.806   6.764   3.638 -0.1324  1.5817 -0.3665
10069TIP3   OH251697   2.936   3.107  13.112 -0.3681 -0.4474 -0.4416
10069TIP3    H151698   2.929   3.105  13.207  1.5722 -0.1661 -0.2525
10069TIP3    H251699   2.891   3.188  13.086  0.2847  0.1921  0.3798
10070TIP3   OH251700   1.781   4.551  15.003  0.6362 -0.7138  0.6057
10070TIP3    H151701   1.788   4.460  14.975 -0.5593 -0.8725  0.7579
10070TIP3    H251702   1.757   4.599  14.923  0.6873 -0.6230  0.6445
10071TIP3   OH251703   0.805   5.106  16.154  0.2607 -0.0739  0.9473
10071TIP3    H151704   0.798   5.056  16.235 -1.4324  0.1116  0.9374
10071TIP3    H251705   0.773   5.047  16.086  3.2784 -0.8843  0.0627
10072TIP3   OH251706   3.459   0.109  11.104 -0.3042 -0.3106  0.3469
10072TIP3    H151707   3.456   0.063  11.188 -2.4157 -1.4003 -0.2661
10072TIP3    H251708   3.494   0.046  11.042  0.4260  0.2033  0.2248
10073TIP3   OH251709   3.957   2.120   0.328 -0.3969 -0.6614  0.3421
10073TIP3    H151710   3.943   2.156   0.241  0.3299 -2.3777 -0.5287
10073TIP3    H251711   4.011   2.186   0.373 -0.2627 -0.0346 -0.7078
10074TIP3   OH251712   3.984   1.595   3.767  0.4329  0.0424 -0.1587
10074TIP3    H151713   3.931   1.526   3.728  0.7115  0.7151 -1.8299
10074TIP3    H251714   3.989   1.663   3.699 -0.4451  2.0528  1.6553
10075TIP3   OH251715   0.497   4.967  12.565  0.3351  0.2099 -0.3152
10075TIP3    H151716   0.532   4.882  12.594 -0.4101  0.2384  0.7278
10075TIP3    H251717   0.515   4.969  12.471 -1.3423 -1.9886 -0.7847
10076TIP3   OH251718   2.974   6.760   5.306 -0.7490 -0.7686 -0.0705
10076TIP3    H151719   3.053   6.770   5.360  0.4130 -0.3492 -1.7958
10076TIP3    H251720   2.919   6.700   5.356 -0.8131  1.4092  2.7715
10077TIP3   OH251721   4.834   3.205  11.174 -0.4139  0.8894 -0.4666
10077TIP3    H151722   4.754   3.220  11.226 -0.4465 -0.0240 -0.2273
10077TIP3    H251723   4.836   3.110  11.161  1.7056  0.6197  1.2723
10078TIP3   OH251724   1.283   3.302   3.316 -0.5356  0.4921 -0.2441
10078TIP3    H151725   1.360   3.342   3.275  0.9232 -0.3113  1.5555
10078TIP3    H251726   1.268   3.355   3.395 -2.0953  0.8485 -0.7298
10079TIP3   OH251727   4.765   4.223  13.927  0.0190  0.2525  0.5053
10079TIP3    H151728   4.677   4.237  13.963 -0.7109 -1.3092 -0.5409
10079TIP3    H251729   4.752   4.219  13.832  1.1547 -0.3489  0.3516
10080TIP3   OH251730   2.441   1.540  11.629 -0.0376  0.0604 -0.1359
10080TIP3    H151731   2.358   1.547  11.676 -0.8186  0.7031 -1.5472
10080TIP3    H251732   2.490   1.618  11.654 -0.3767  0.3115 -0.2486
10081TIP3   OH251733   4.531   1.089  15.977  0.3413  0.2876  0.5839
10081TIP3    H151734   4.603   1.107  16.038  1.8634  1.5213 -1.4384
10081TIP3    H251735   4.463   1.050  16.031  2.2558 -0.2822  2.7315
10082TIP3   OH251736   0.207   0.898  14.133  0.3509 -0.2331 -0.0947
10082TIP3    H151737   0.182   0.834  14.066 -1.6182  0.4826 -0.1208
10082TIP3    H251738   0.166   0.866  14.213  0.9131  0.0280  0.3001
10083TIP3   OH251739   5.629   4.860   3.215  0.2255 -0.1216 -0.5566
10083TIP3    H151740   5.573   4.823   3.283 -0.2911  2.1125  0.3281
10083TIP3    H251741   5.569   4.894   3.149  0.6848 -0.8241 -1.3701
10084TIP3   OH251742   5.900   2.598   1.994  0.1384 -0.4002 -0.1429
10084TIP3    H151743   5.900   2.623   2.087 -1.5023  0.0584 -0.2436
10084TIP3    H251744   5.993   2.594   1.971  0.5635  0.1495  1.3357
10085TIP3   OH251745   1.155   2.223  11.542  0.2068  0.0933 -0.2463
10085TIP3    H151746   1.229   2.227  11.482  0.3374  0.1716 -0.0821
10085TIP3    H251747   1.084   2.182  11.492  1.1160 -2.4341  0.3946
10086TIP3   OH251748   0.654   2.749   3.551 -0.3006 -0.2180 -0.3006
10086TIP3    H151749   0.564   2.780   3.548 -0.2664  0.0025  0.7633
10086TIP3    H251750   0.707   2.829   3.557 -0.1430 -0.4142  1.0648
10087TIP3   OH251751   0.564   2.384  16.681 -0.0169  0.2500  0.4372
10087TIP3    H151752   0.519   2.320  16.736  0.7687  1.2807  2.3893
10087TIP3    H251753   0.580   2.338  16.599 -2.8368 -0.7711  0.3598
10088TIP3   OH251754   5.030   6.213   2.068 -0.1145  0.2279 -0.3769
10088TIP3    H151755   5.020   6.305   2.043 -0.0911  0.3963  0.2301
10088TIP3    H251756   4.968   6.201   2.140  0.9362  0.1708  0.5448
10089TIP3   OH251757   5.737   0.843  15.827 -0.3417 -0.6611  0.2760
10089TIP3    H151758   5.643   0.857  15.814 -0.4611 -0.5273  1.2475
10089TIP3    H251759   5.754   0.875  15.915  1.1314  1.9533 -0.8332
10090TIP3   OH251760   0.957   6.450   0.009  0.2011  0.7248  0.2699
10090TIP3    H151761   1.037   6.472  -0.040  0.5040 -1.5656 -0.3711
10090TIP3    H251762   0.955   6.354   0.010  0.2747  0.5448  4.8787
10091TIP3   OH251763   1.765   3.081  16.962 -0.2857 -0.1820 -0.2154
10091TIP3    H151764   1.748   3.033  17.044  2.4867 -0.5272  0.2860
10091TIP3    H251765   1.847   3.128  16.980  0.2114 -0.0009 -2.6753
10092TIP3   OH251766   0.048   6.650   0.019 -0.0527 -0.1450  0.3704
10092TIP3    H151767   0.143   6.663   0.016 -0.1026  0.4187  1.1849
10092TIP3    H251768   0.026   6.618  -0.069  0.7089  0.9656 -0.2449
10093TIP3   OH251769   1.797   6.158   6.395  0.6218  0.4897 -0.5774
10093TIP3    H151770   1.806   6.072   6.435  0.6068  0.7212 -0.0691
10093TIP3    H251771   1.706   6.184   6.414  0.6680  0.6757 -0.6085
10094TIP3   OH251772   0.096   0.929   3.879 -0.3508  0.1326 -0.1004
10094TIP3    H151773   0.049   0.989   3.937 -0.4931  0.1802 -0.2639
10094TIP3    H251774   0.083   0.842   3.917  2.1076  0.4493  1.6895
10095TIP3   OH251775   3.980   6.006  16.292 -0.0223 -0.8136 -0.0404
10095TIP3    H151776   3.894   5.965  16.301  0.5121 -1.7054  1.2460
10095TIP3    H251777   4.010   5.980  16.204 -1.8083  1.0507 -1.2925
10096TIP3   OH251778   1.996   2.292   2.494 -0.0480 -0.3812  0.0846
10096TIP3    H151779   1.976   2.339   2.413 -0.7480  1.2714  1.1716
10096TIP3    H251780   1.920   2.236   2.509  0.0925 -0.7081 -0.3850
10097TIP3   OH251781   5.244   0.930  13.791 -0.0010  0.0759  0.6167
10097TIP3    H151782   5.148   0.934  13.794 -0.0857 -0.1104 -0.7796
10097TIP3    H251783   5.262   0.858  13.731  1.0709 -1.6213  2.8691
10098TIP3   OH251784   1.449   3.696  13.329  0.2393 -0.0388  0.1117
10098TIP3    H151785   1.413   3.769  13.278 -1.4951 -1.5768 -0.9748
10098TIP3    H251786   1.412   3.707  13.416 -1.0235 -0.2782 -0.3746
10099TIP3   OH251787   5.899   0.418  12.937  0.4473  0.8281 -0.0680
10099TIP3    H151788   5.894   0.353  12.868 -0.6347 -0.3173  1.0306
10099TIP3    H251789   5.845   0.382  13.008  1.4683  1.9669  1.3557
10100TIP3   OH251790   4.020   4.898   3.935 -0.0224 -0.2969  0.2254
10100TIP3    H151791   4.087   4.920   3.870 -0.8856  0.8004 -0.3331
10100TIP3    H251792   3.946   4.956   3.914 -1.8770 -2.6751 -0.3323
10101TIP3   OH251793   6.232   0.578  16.355 -0.1298  0.5999 -0.5404
10101TIP3    H151794   6.155   0.554  16.303 -0.6165  1.4655 -0.2471
10101TIP3    H251795   6.196   0.618  16.434  0.5956  2.8335 -1.2618
10102TIP3   OH251796   0.614   2.684   6.378 -0.2642  0.3044  0.2725
10102TIP3    H151797   0.535   2.632   6.390  0.2566 -1.1951 -2.0987
10102TIP3    H251798   0.583   2.774   6.368 -1.4719  0.0213  1.3007
10103TIP3   OH251799   6.708   3.116  16.967 -0.2465 -0.2757  0.1973
10103TIP3    H151800   6.649   3.063  16.912  0.4694 -0.3166 -0.5484
10103TIP3    H251801   6.786   3.061  16.978  0.4046  0.5073 -0.3755
10104TIP3   OH251802   0.369   6.541   4.766 -0.1557  0.4318 -0.3143
10104TIP3    H151803   0.437   6.603   4.794 -1.7414  2.4938 -0.8506
10104TIP3    H251804   0.315   6.529   4.844  0.1583 -0.3534 -0.2048
10105TIP3   OH251805   4.245   5.714   6.589  0.1462  0.5048 -0.5496
10105TIP3    H151806   4.307   5.756   6.648  0.4580 -2.4129  1.3791
10105TIP3    H251807   4.159   5.734   6.626  0.3160 -0.8505  0.6366
10106TIP3   OH251808   0.393   3.112   4.585  0.8303  0.2691 -0.4320
10106TIP3    H151809   0.486   3.092   4.590  0.2785 -2.6536  0.1384
10106TIP3    H251810   0.372   3.149   4.670  1.5770  1.6520 -0.8270
10107TIP3   OH251811   2.738   2.412  14.274  0.4594 -0.1449 -0.0441
10107TIP3    H151812   2.645   2.427  14.261 -0.1805 -1.6618  2.2347
10107TIP3    H251813   2.781   2.482  14.224 -1.9986  3.4853  2.4370
10108TIP3   OH251814   4.480   0.806  12.114  0.6381  0.0443  0.1701
10108TIP3    H151815   4.444   0.889  12.082  0.9828  0.1461  0.0413
10108TIP3    H251816   4.467   0.809  12.208  1.9686  0.8972  0.3490
10109TIP3   OH251817   6.797   5.466  10.727 -0.6178  0.5049 -0.4665
10109TIP3    H151818   6.718   5.431  10.769 -0.6874  0.5712 -0.5417
10109TIP3    H251819   6.781   5.455  10.633  0.1785 -1.0750 -0.4614
10110TIP3   OH251820   4.697   0.447  13.501 -0.5280 -0.2265  0.3825
10110TIP3    H151821   4.623   0.446  13.440 -1.1683 -1.5328  1.1437
10110TIP3    H251822   4.669   0.392  13.574  0.0117  1.6973  2.1438
10111TIP3   OH251823   5.000   1.530   5.917 -0.5298  0.3219  0.1024
10111TIP3    H151824   4.957   1.455   5.874  0.9550 -0.4813 -0.0467
10111TIP3    H251825   4.952   1.541   5.999 -1.7178  0.1670 -0.5432
10112TIP3   OH251826   0.209   2.230   1.375  0.5404  0.7583 -0.4306
10112TIP3    H151827   0.133   2.179   1.401  0.7042  1.5891  1.8435
10112TIP3    H251828   0.188   2.261   1.286 -1.1503 -0.1437 -0.3676
10113TIP3   OH251829   3.417   5.691  15.524 -0.0957  0.4946 -0.2910
10113TIP3    H151830   3.502   5.663  15.489 -0.0881  0.2071 -0.0493
10113TIP3    H251831   3.394   5.623  15.588  0.5893  1.7336  1.3494
10114TIP3   OH251832   5.001   0.775  14.845 -0.1714 -0.4690 -0.2322
10114TIP3    H151833   5.085   0.820  14.856 -0.1321 -0.3929 -0.7989
10114TIP3    H251834   5.022   0.682  14.857  0.2224 -0.5659 -1.4396
10115TIP3   OH251835   6.060   3.443  14.851 -0.2986  0.1671 -0.7009
10115TIP3    H151836   6.034   3.441  14.943 -1.5174  1.2308 -0.9994
10115TIP3    H251837   6.039   3.356  14.818 -1.0984  0.1981 -0.2930
10116TIP3   OH251838   2.668   5.206   5.696 -0.2226 -0.0812 -0.1633
10116TIP3    H151839   2.655   5.289   5.742 -1.1522  0.1148 -0.7696
10116TIP3    H251840   2.652   5.139   5.763  0.6663  0.2089  0.3646
10117TIP3   OH251841   3.045   1.954   1.192 -0.0926  0.1983 -0.6607
10117TIP3    H151842   3.000   2.025   1.238 -0.7706  0.0811 -1.1130
10117TIP3    H251843   2.988   1.936   1.117 -0.4025 -1.4348 -0.0657
10118TIP3   OH251844   2.984   6.152   1.444  0.2389 -0.7388  0.0306
10118TIP3    H151845   3.053   6.172   1.381  0.9025 -1.2691  0.5602
10118TIP3    H251846   2.915   6.112   1.392 -0.8869  2.2456 -0.9561
10119TIP3   OH251847   5.294   1.482   4.883  0.0203  0.2812 -0.9042
10119TIP3    H151848   5.246   1.414   4.930  1.0902  0.8679  1.2022
10119TIP3    H251849   5.381   1.444   4.870  0.0540  0.5438 -1.4465
10120TIP3   OH251850   4.058   6.822  16.886  0.7604 -0.1626 -0.1930
10120TIP3    H151851   4.073   6.894  16.824  1.7181  0.8933  1.1854
10120TIP3    H251852   4.106   6.848  16.964  1.2032 -2.3684  0.3390
10121TIP3   OH251853   2.304   1.103   3.801 -0.3556 -0.1538 -0.0798
10121TIP3    H151854   2.259   1.184   3.778  0.4149  0.1438 -0.5598
10121TIP3    H251855   2.301   1.099   3.896 -0.7192  0.2461 -0.0719
10122TIP3   OH251856   2.897   2.113   1.366 -0.3261 -0.5600 -0.5127
10122TIP3    H151857   2.820   2.075   1.408  0.4352 -1.2757  0.3042
10122TIP3    H251858   2.876   2.205   1.353 -0.6030 -0.3127  1.4698
10123TIP3   OH251859   1.785   2.354  14.978  0.1193  0.0470 -0.0500
10123TIP3    H151860   1.760   2.425  14.919  0.4030  0.2651  0.0904
10123TIP3    H251861   1.788   2.394  15.064  0.6464 -0.0448 -0.0210
10124TIP3   OH251862   6.772   0.056  11.016  0.1350 -0.0186  0.0568
10124TIP3    H151863   6.867   0.048  11.021  0.4063  0.6648 -2.6234
10124TIP3    H251864   6.744  -0.028  10.979  0.0358  0.6943 -1.5951
10125TIP3   OH251865   2.096   2.312   1.015  0.1605  0.1778  0.2852
10125TIP3    H151866   2.069   2.373   1.083 -2.2849  1.0777 -1.3451
10125TIP3    H251867   2.098   2.364   0.935  0.5007 -1.3472 -0.7533
10126TIP3   OH251868   3.615   0.838   1.717  0.3918 -0.3413 -0.7933
10126TIP3    H151869   3.531   0.792   1.715 -0.0126  0.3480 -0.2972
10126TIP3    H251870   3.673   0.781   1.766 -0.3922  0.1274  0.7390
10127TIP3   OH251871   4.438   0.266  12.450 -0.4353  0.1250 -0.0672
10127TIP3    H151872   4.498   0.334  12.480  0.4061 -0.8328  0.5241
10127TIP3    H251873   4.475   0.236  12.367  1.7162 -2.4862  1.6546
10128TIP3   OH251874   2.132   3.912   2.923  0.1500 -0.8880  0.2748
10128TIP3    H151875   2.200   3.938   2.985 -0.5301 -0.9816  1.0735
10128TIP3    H251876   2.075   3.990   2.916 -0.6055 -1.3671  0.9163
10129TIP3   OH251877   6.014   6.271   2.517  0.6638 -0.6091  0.0524
10129TIP3    H151878   5.975   6.228   2.594  2.8228 -4.2297 -0.6354
10129TIP3    H251879   5.971   6.231   2.442  1.9387 -0.7682 -0.6308
10130TIP3   OH251880   2.768   2.979   3.430 -0.3657  0.1594  0.2352
10130TIP3    H151881   2.833   2.914   3.402 -0.6361 -0.0931  0.2005
10130TIP3    H251882   2.815   3.033   3.494 -0.3203 -0.4197  0.6871
10131TIP3   OH251883   6.366   2.247  11.694 -0.5048  0.5329  0.7818
10131TIP3    H151884   6.361   2.307  11.620 -0.4371  1.0355  1.1777
10131TIP3    H251885   6.442   2.193  11.675 -1.3955 -0.4003 -0.2824
10132TIP3   OH251886   3.530   3.240  13.775 -0.3337  0.6158  0.7329
10132TIP3    H151887   3.548   3.267  13.865 -0.8323 -2.1954  1.7952
10132TIP3    H251888   3.573   3.154  13.768 -2.3436 -0.3420 -0.8760
10133TIP3   OH251889   1.335   2.778  12.267 -0.2533  0.2837 -0.4547
10133TIP3    H151890   1.320   2.689  12.298  0.5067 -0.7149 -2.6900
10133TIP3    H251891   1.417   2.804  12.309 -1.4727  0.7824  1.7778
10134TIP3   OH251892   5.401   1.749  11.334  0.6815 -0.0593  0.2463
10134TIP3    H151893   5.493   1.760  11.310  0.7374  0.0443  0.5035
10134TIP3    H251894   5.367   1.838  11.337  0.6832 -0.0692  0.5788
10135TIP3   OH251895   2.223   0.401   6.327 -0.1059  0.3712  0.4673
10135TIP3    H151896   2.251   0.321   6.371  0.1684  1.6687  2.8488
10135TIP3    H251897   2.303   0.453   6.320 -0.5994  1.1637  0.6402
10136TIP3   OH251898   4.070   2.882  17.008 -0.6136  0.4732  0.0881
10136TIP3    H151899   3.992   2.937  16.997 -0.9528 -0.2242 -1.3037
10136TIP3    H251900   4.132   2.938  17.055 -0.9614  2.0508 -1.1996
10137TIP3   OH251901   1.618   1.898   4.205  0.0673 -0.3459  0.0546
10137TIP3    H151902   1.628   1.903   4.300  1.1833  0.0499 -0.0709
10137TIP3    H251903   1.570   1.978   4.182  1.4400  0.5276  0.1051
10138TIP3   OH251904   4.668   4.682   0.920 -0.2524 -0.5767 -0.2736
10138TIP3    H151905   4.732   4.748   0.894 -1.2967 -0.1920 -1.9890
10138TIP3    H251906   4.663   4.690   1.015  1.5725 -0.0189 -0.1862
10139TIP3   OH251907   4.730   4.440  12.331  0.3046  0.4267 -0.2655
10139TIP3    H151908   4.666   4.430  12.260  2.3462 -1.3293 -1.9901
10139TIP3    H251909   4.678   4.435  12.411 -1.6433 -1.8965 -1.5472
10140TIP3   OH251910   0.762   5.387   3.811  0.0693 -0.5719  0.5574
10140TIP3    H151911   0.821   5.457   3.785 -0.6949 -0.2320 -0.3029
10140TIP3    H251912   0.763   5.326   3.737 -0.7956 -0.4610  0.4383
10141TIP3   OH251913   3.311   4.130  13.157  0.1287 -0.2585  0.6469
10141TIP3    H151914   3.322   4.225  13.167  3.3241 -0.2989 -1.3692
10141TIP3    H251915   3.229   4.111  13.204 -1.4685  3.6838 -0.1289
10142TIP3   OH251916   1.661   2.489   1.398 -0.2527 -0.0725 -0.0744
10142TIP3    H151917   1.752   2.518   1.406 -0.2334  0.6558 -2.2510
10142TIP3    H251918   1.667   2.395   1.383  0.2757  0.1565 -1.5037
10143TIP3   OH251919   1.143   5.847  14.019 -0.3093 -0.4069  0.0573
10143TIP3    H151920   1.101   5.861  14.103  1.5394 -3.4312  1.6508
10143TIP3    H251921   1.099   5.770  13.982  0.3180 -0.3987 -0.7483
10144TIP3   OH251922   3.669   4.021   6.474 -0.0981 -0.1630  0.2895
10144TIP3    H151923   3.674   3.926   6.464 -0.2587 -0.0806 -0.6113
10144TIP3    H251924   3.597   4.035   6.536 -0.4904 -0.6000 -0.0659
10145TIP3   OH251925   4.501   0.344   2.888  0.4552  0.1320  0.4095
10145TIP3    H151926   4.425   0.390   2.923 -0.3483 -1.2654  0.5862
10145TIP3    H251927   4.517   0.384   2.802  0.2712  1.2219  0.8669
10146TIP3   OH251928   6.537   4.900  10.794  0.1048  0.1547 -0.6656
10146TIP3    H151929   6.481   4.837  10.747  0.3867  0.1663 -1.0192
10146TIP3    H251930   6.475   4.965  10.829 -0.0893  0.2894 -1.2426
10147TIP3   OH251931   0.779   3.914  14.013 -0.4286 -0.2286  1.0332
10147TIP3    H151932   0.790   4.006  14.039 -1.7125  0.9902 -2.2459
10147TIP3    H251933   0.707   3.915  13.951  0.5855 -3.2367 -0.3929
10148TIP3   OH251934   0.047   1.075  12.844  0.2639  0.0632 -0.1923
10148TIP3    H151935  -0.046   1.086  12.862  0.1941 -0.3094 -0.3077
10148TIP3    H251936   0.091   1.098  12.926  0.0206 -0.5424  0.1154
10149TIP3   OH251937   1.732   6.209  12.299 -0.6165  0.2435 -0.0850
10149TIP3    H151938   1.664   6.273  12.276 -0.6114  0.7690  1.2688
10149TIP3    H251939   1.753   6.229  12.390 -1.8578 -2.7693  0.9989
10150TIP3   OH251940   5.560   4.512  12.435 -0.2670 -0.0263  0.0512
10150TIP3    H151941   5.542   4.479  12.347  2.6863 -1.7699 -0.0186
10150TIP3    H251942   5.646   4.553  12.428 -0.9252  1.7554  1.7083
10151TIP3   OH251943   5.373   0.745  13.644 -0.0403  0.8926  0.1868
10151TIP3    H151944   5.422   0.701  13.714 -0.3425  0.5984  0.2187
10151TIP3    H251945   5.308   0.680  13.617 -0.2048  1.1654 -0.0722
10152TIP3   OH251946   6.210   3.873  11.322  0.4899  0.3045 -0.3876
10152TIP3    H151947   6.179   3.897  11.235  0.1383  3.3541  0.4577
10152TIP3    H251948   6.291   3.921  11.333  2.7206 -3.1075 -0.3817
10153TIP3   OH251949   2.172   6.314  14.483  0.5972  0.3362 -0.2872
10153TIP3    H151950   2.165   6.243  14.420  1.8263  0.5186 -0.6403
10153TIP3    H251951   2.160   6.394  14.432  1.3860  0.4757 -0.2626
10154TIP3   OH251952   3.230   3.488   0.306 -0.0888  0.3185  0.0955
10154TIP3    H151953   3.300   3.459   0.248 -0.9818  1.3187 -1.5664
10154TIP3    H251954   3.265   3.476   0.394  2.7181  2.0708 -0.6486
10155TIP3   OH251955   3.887   0.720  15.951 -0.4079  0.4060 -0.4167
10155TIP3    H151956   3.822   0.775  15.907 -0.6680  1.7434  1.5122
10155TIP3    H251957   3.836   0.671  16.016 -0.0954 -1.8231 -1.7490
10156TIP3   OH251958   1.464   2.617   4.699 -0.8619  0.7608  0.3063
10156TIP3    H151959   1.422   2.695   4.663 -0.6438  1.3845  1.3538
10156TIP3    H251960   1.437   2.616   4.791  0.0019  0.1884  0.5641
10157TIP3   OH251961   5.616   0.758   3.598  0.7437 -0.1504 -0.4790
10157TIP3    H151962   5.537   0.779   3.648  0.0988 -1.8911 -0.6718
10157TIP3    H251963   5.604   0.805   3.515  1.5353  2.2561  0.6914
10158TIP3   OH251964   4.370   0.166   1.118 -0.6103  0.0363  0.0830
10158TIP3    H151965   4.408   0.241   1.072  0.5041 -0.9785 -0.7211
10158TIP3    H251966   4.369   0.192   1.210  1.9473  0.2000  0.1355
10159TIP3   OH251967   1.020   2.248   3.334  0.6574  0.2973 -0.0706
10159TIP3    H151968   1.026   2.308   3.260  0.4467  1.0314  0.4912
10159TIP3    H251969   0.927   2.251   3.358  0.3361 -1.4015 -0.9562
10160TIP3   OH251970   2.251   5.987  16.453  0.5282 -0.0462  0.2718
10160TIP3    H151971   2.277   6.075  16.425 -2.2283  1.3164  1.5655
10160TIP3    H251972   2.190   5.957  16.386 -0.0198 -0.1274  0.7979
10161TIP3   OH251973   5.586   0.906   4.500 -0.2923 -0.4853 -0.0581
10161TIP3    H151974   5.503   0.882   4.460  0.5447  0.1827 -2.3530
10161TIP3    H251975   5.571   0.995   4.534 -0.7689 -0.7267  0.3738
10162TIP3   OH251976   5.625   6.734  12.056  0.1451 -0.0782 -0.0187
10162TIP3    H151977   5.583   6.816  12.080  2.6552  0.9537  1.2792
10162TIP3    H251978   5.581   6.707  11.976 -2.8569  0.8461  1.1874
10163TIP3   OH251979   0.145   4.024  15.167  0.0802 -0.0507 -0.9310
10163TIP3    H151980   0.088   4.046  15.241  0.6133  0.6541 -0.7247
10163TIP3    H251981   0.158   3.929  15.175 -1.4910 -0.3212 -1.2991
10164TIP3   OH251982   5.162   4.180   0.281 -0.9525 -0.1156 -0.0122
10164TIP3    H151983   5.164   4.268   0.245 -0.8383 -0.2116 -0.2393
10164TIP3    H251984   5.185   4.192   0.374 -0.5832  0.0513 -0.1240
10165TIP3   OH251985   5.002   0.624   1.252 -0.1350 -0.1167  0.3823
10165TIP3    H151986   4.995   0.697   1.190  0.4776  0.2342  0.7296
10165TIP3    H251987   5.058   0.656   1.322 -0.0726 -0.8346  0.6695
10166TIP3   OH251988   0.546   1.224   3.337 -0.1471  0.2886 -0.3101
10166TIP3    H151989   0.593   1.179   3.267  0.8902  1.0804 -0.1380
10166TIP3    H251990   0.566   1.173   3.416 -0.8795 -0.2865 -0.4761
10167TIP3   OH251991   4.595   2.375   0.398 -0.4224 -0.3827 -0.1281
10167TIP3    H151992   4.624   2.299   0.449  0.8986 -1.2622 -2.0773
10167TIP3    H251993   4.544   2.337   0.327  1.1612  0.4142 -1.7581
10168TIP3   OH251994   3.800   2.913  15.264  0.5458 -0.2337 -0.0534
10168TIP3    H151995   3.844   2.896  15.180  2.1250  0.1557  0.6510
10168TIP3    H251996   3.751   2.994  15.250  1.4765  0.2888 -0.3812
10169TIP3   OH251997   2.184   5.381  15.024 -0.4220 -0.3312  0.0198
10169TIP3    H151998   2.095   5.346  15.019 -0.7233  0.5061 -0.5678
10169TIP3    H251999   2.200   5.392  15.118  0.1543 -3.1611  0.3483
10170TIP3   OH252000   0.834   5.667  15.452  0.1452  0.1483  0.6333
10170TIP3    H152001   0.891   5.702  15.520  0.0802 -1.1832  1.3971
10170TIP3    H252002   0.833   5.736  15.385 -1.0511  2.2270  2.6273
10171TIP3   OH252003   4.131   1.482  14.964  0.0288 -0.0620 -0.0753
10171TIP3    H152004   4.052   1.488  14.910 -0.1282  0.8119  0.2269
10171TIP3    H252005   4.203   1.497  14.903 -0.1476  0.9092 -0.0686
10172TIP3   OH252006   6.713   2.682  12.032  0.1128 -0.1360  0.2805
10172TIP3    H152007   6.712   2.723  11.945  0.4123 -1.4583 -0.3736
10172TIP3    H252008   6.706   2.588  12.014 -0.2793 -0.4044  1.7163
10173TIP3   OH252009   5.293   6.501  12.452  0.6340 -0.3680  0.9395
10173TIP3    H152010   5.337   6.586  12.453 -2.3264  1.2720  1.5817
10173TIP3    H252011   5.303   6.470  12.362 -0.5780  2.0620 -0.1247
10174TIP3   OH252012   4.565   4.166   0.538 -0.3772 -0.2104  0.3425
10174TIP3    H152013   4.641   4.108   0.536 -0.0969  0.1373  0.9172
10174TIP3    H252014   4.599   4.252   0.517 -0.6964 -0.1340  0.1221
10175TIP3   OH252015   5.652   1.376  11.504  0.4228  0.6467  0.2638
10175TIP3    H152016   5.651   1.309  11.573 -1.5886 -0.1388 -0.4525
10175TIP3    H252017   5.742   1.375  11.471  0.0975 -3.2034 -1.0554
10176TIP3   OH252018   1.653   2.238  12.707  0.0224 -0.1310  0.1519
10176TIP3    H152019   1.640   2.164  12.646  1.6453 -1.4080  1.2812
10176TIP3    H252020   1.633   2.201  12.793  0.4901  0.8640  0.6949
10177TIP3   OH252021   6.477   1.805  12.131  0.3370  0.1627  0.1513
10177TIP3    H152022   6.573   1.806  12.129  0.3284  0.3344 -0.5059
10177TIP3    H252023   6.453   1.745  12.060 -0.0402  0.0647  0.3618
10178TIP3   OH252024   1.564   1.545  12.338  0.1429  0.0928 -0.0451
10178TIP3    H152025   1.565   1.605  12.264  0.7660  1.6714  1.1760
10178TIP3    H252026   1.645   1.564  12.386  0.2219 -1.5440  0.5539
10179TIP3   OH252027   5.469   0.585  13.845 -0.1253 -0.5925  0.3415
10179TIP3    H152028   5.546   0.586  13.901 -0.5302 -1.2283  0.9176
10179TIP3    H252029   5.444   0.493  13.839 -0.9916 -0.3678  0.3679
10180TIP3   OH252030   3.249   0.863  11.760 -0.5858 -0.1975 -1.0219
10180TIP3    H152031   3.309   0.789  11.746 -0.4858  0.1421 -2.5609
10180TIP3    H252032   3.285   0.908  11.837  0.5333 -0.5929 -1.2846
10181TIP3   OH252033   5.371   4.683  12.082  0.8858  0.2090 -0.6048
10181TIP3    H152034   5.409   4.760  12.125  0.3161  0.4595 -0.5365
10181TIP3    H252035   5.281   4.679  12.116  0.6205  0.0596 -1.3155
10182TIP3   OH252036   6.334   2.743  14.683 -0.2519 -0.3259 -0.2977
10182TIP3    H152037   6.260   2.687  14.706  0.0853 -0.3394  0.8511
10182TIP3    H252038   6.304   2.832  14.702 -0.0506 -0.3143 -0.0218
10183TIP3   OH252039   2.794   3.130   4.652  0.0115 -0.1583 -0.0133
10183TIP3    H152040   2.724   3.192   4.677 -1.0114 -1.4894  0.5672
10183TIP3    H252041   2.875   3.179   4.667 -0.7164  0.5936  1.8123
10184TIP3   OH252042   5.681   6.092  11.456 -0.4572 -0.4779 -0.2973
10184TIP3    H152043   5.673   6.102  11.362 -1.3924  1.7390 -0.0285
10184TIP3    H252044   5.765   6.132  11.478 -1.3776  1.3806  0.0506
10185TIP3   OH252045   1.391   3.020   0.977  0.7497  0.7326 -0.5958
10185TIP3    H152046   1.427   2.940   1.014 -0.7483  1.1546  1.9990
10185TIP3    H252047   1.449   3.090   1.007  0.8797  0.8509 -1.1022
10186TIP3   OH252048   4.075   4.885  16.069 -0.4045  0.0490 -0.0416
10186TIP3    H152049   4.082   4.902  15.975  2.8495  0.8699  0.2187
10186TIP3    H252050   4.145   4.937  16.108 -0.9142 -1.1584  2.7279
10187TIP3   OH252051   5.109   4.468   4.722  0.4573 -0.4584  0.4988
10187TIP3    H152052   5.100   4.465   4.626 -1.1133 -0.4107  0.6225
10187TIP3    H252053   5.055   4.541   4.749  3.0972  1.3647  1.2588
10188TIP3   OH252054   0.742   6.346   5.424  0.8356 -0.2397 -0.3551
10188TIP3    H152055   0.772   6.262   5.458 -0.5114 -0.2442  0.9611
10188TIP3    H252056   0.765   6.345   5.332  3.8434 -0.6367  0.3195
10189TIP3   OH252057   6.364   3.460  11.978  0.0540 -0.2441  0.3709
10189TIP3    H152058   6.344   3.371  11.951  0.6779 -0.2298 -0.1683
10189TIP3    H252059   6.356   3.512  11.899 -1.4894  0.4026  0.9154
10190TIP3   OH252060   2.222   1.515  16.017 -0.5837  0.3601 -0.1573
10190TIP3    H152061   2.253   1.547  15.932 -0.0335  0.5936  0.1264
10190TIP3    H252062   2.218   1.420  16.007 -1.8297  0.4575 -0.8766
10191TIP3   OH252063   0.833   6.090   2.559 -0.6935  0.5069  0.1419
10191TIP3    H152064   0.782   6.011   2.575  1.0360 -0.4934  0.9898
10191TIP3    H252065   0.884   6.070   2.481 -0.3400  0.8386  0.2838
10192TIP3   OH252066   6.470   5.937   0.753 -0.4842  0.3333 -0.2411
10192TIP3    H152067   6.463   5.883   0.674 -3.2696 -0.5361  0.5061
10192TIP3    H252068   6.521   5.883   0.814 -0.7718 -0.2246 -0.4832
10193TIP3   OH252069   4.297   5.415  16.958  0.0174 -0.4030 -0.0131
10193TIP3    H152070   4.235   5.485  16.976  0.1650  0.0984 -1.3552
10193TIP3    H252071   4.285   5.395  16.865  0.0069 -2.1409  0.3182
10194TIP3   OH252072   3.066   0.096  13.515  0.2836 -0.0886  0.0501
10194TIP3    H152073   3.134   0.077  13.450  1.1734  1.8857  0.3447
10194TIP3    H252074   2.985   0.099  13.464  0.8504  0.5893 -0.8378
10195TIP3   OH252075   5.845   6.279  13.587 -0.5079  0.1915 -0.3763
10195TIP3    H152076   5.783   6.206  13.586  0.7865 -0.9614  0.0476
10195TIP3    H252077   5.825   6.326  13.667 -1.3327  0.3062 -0.6318
10196TIP3   OH252078   0.997   0.926   5.541 -1.2207  0.0349  0.5800
10196TIP3    H152079   0.940   0.888   5.608  0.3836  2.2684  3.4562
10196TIP3    H252080   1.034   1.004   5.583  2.8724 -0.5253 -1.5087
10197TIP3   OH252081   1.883   6.037  14.794  0.1890 -0.1764 -0.1143
10197TIP3    H152082   1.792   6.012  14.777  0.1726  0.4185 -0.9583
10197TIP3    H252083   1.890   6.126  14.759  0.0135  1.4075  3.4333
10198TIP3   OH252084   0.896   2.101  15.724  0.0475 -0.8449 -0.1826
10198TIP3    H152085   0.861   2.012  15.733 -2.2822 -0.0112 -0.2334
10198TIP3    H252086   0.872   2.127  15.635  1.4922 -0.4413 -0.4782
10199TIP3   OH252087   2.969   5.760  11.030 -0.1767 -0.0675 -0.0372
10199TIP3    H152088   2.931   5.690  10.977  0.8228 -0.6602  0.0046
10199TIP3    H252089   2.905   5.831  11.024 -1.0050 -0.8149 -0.4417
10200TIP3   OH252090   2.398   2.113   1.529  0.1437  0.5737 -0.3652
10200TIP3    H152091   2.306   2.095   1.547  0.3613 -0.6589 -0.3483
10200TIP3    H252092   2.430   2.156   1.608  0.3761 -2.0934  1.1138
10201TIP3   OH252093   4.112   5.537  14.457  0.4166 -0.7975  0.2537
10201TIP3    H152094   4.038   5.598  14.453  0.0216 -1.2746  0.0583
10201TIP3    H252095   4.111   5.493  14.371  2.1187  0.5339 -0.5137
10202TIP3   OH252096   2.828   6.732   3.091  0.0968 -0.6130  0.5504
10202TIP3    H152097   2.852   6.708   3.002  1.5727 -1.1326  1.0671
10202TIP3    H252098   2.783   6.656   3.126 -0.9409 -0.2234  0.1042
10203TIP3   OH252099   3.827   6.387   3.242 -0.2469 -0.0151  0.1747
10203TIP3    H152100   3.757   6.332   3.279  0.7426 -0.2610  1.8031
10203TIP3    H252101   3.781   6.459   3.200 -1.5256 -1.0915 -0.3473
10204TIP3   OH252102   3.865   4.904   2.175  0.0026  0.0910  0.0731
10204TIP3    H152103   3.892   4.825   2.222 -1.9689 -0.5212  0.2618
10204TIP3    H252104   3.780   4.881   2.137 -0.1633  1.8172 -0.6625
10205TIP3   OH252105   0.089   4.729   2.317  0.0063 -0.1638 -0.0566
10205TIP3    H152106   0.003   4.746   2.280 -0.0065 -1.3348 -0.5843
10205TIP3    H252107   0.078   4.651   2.371  0.3274  0.7535  1.3903
10206TIP3   OH252108   0.219   5.076   2.308 -0.3616 -0.0722 -0.3184
10206TIP3    H152109   0.211   5.031   2.224  0.2699  0.7710 -0.8454
10206TIP3    H252110   0.280   5.148   2.292  1.6677 -1.2691  1.4379
10207TIP3   OH252111   6.656   1.472  16.403  0.1296 -0.2500 -0.2662
10207TIP3    H152112   6.599   1.407  16.361 -1.0131 -0.5296  1.6134
10207TIP3    H252113   6.696   1.519  16.330 -0.5396 -1.7523 -1.6629
10208TIP3   OH252114   1.808   1.831  17.022 -0.1332  0.2555 -0.2157
10208TIP3    H152115   1.764   1.806  16.940 -1.1674 -1.4855  0.8081
10208TIP3    H252116   1.894   1.789  17.016 -0.1706  0.2078 -0.4554
10209TIP3   OH252117   5.134   4.201   1.041 -0.5882 -0.9210 -0.1296
10209TIP3    H152118   5.111   4.287   1.076  0.3997 -0.7395  0.0951
10209TIP3    H252119   5.064   4.143   1.070 -2.0612  0.0733 -1.5110
10210TIP3   OH252120   3.750   0.943  12.926 -0.0630  0.5914 -0.6574
10210TIP3    H152121   3.810   0.980  12.862  1.2850 -1.9985 -1.0051
10210TIP3    H252122   3.806   0.892  12.985 -1.8301 -1.6545 -0.7900
10211TIP3   OH252123   4.604   2.018   1.397 -0.4292  0.1025  0.0422
10211TIP3    H152124   4.658   1.940   1.413 -0.2401  0.0861 -0.6182
10211TIP3    H252125   4.637   2.053   1.314  0.0220  1.3557  0.7353
10212TIP3   OH252126   4.620   4.209  11.400 -0.8843 -0.2857  0.8130
10212TIP3    H152127   4.630   4.131  11.346  1.3361  0.8605 -0.5577
10212TIP3    H252128   4.582   4.274  11.340  2.2858  1.2256  0.2252
10213TIP3   OH252129   0.715   3.320  11.028  0.5057 -0.4986 -0.3210
10213TIP3    H152130   0.662   3.251  10.987 -0.0011 -0.4567  0.2480
10213TIP3    H252131   0.669   3.401  11.005 -0.1550 -0.5147  0.8350
10214TIP3   OH252132   2.564   1.034   4.268  0.7973  0.0657 -0.1048
10214TIP3    H152133   2.579   1.089   4.191 -0.5984  0.6599  0.0214
10214TIP3    H252134   2.516   1.089   4.329  0.8197 -0.7820  0.7111
10215TIP3   OH252135   1.608   4.415   0.177 -0.5649  0.3975 -0.0111
10215TIP3    H152136   1.558   4.387   0.100 -1.7385  0.6754  0.6212
10215TIP3    H252137   1.689   4.365   0.173 -2.2988 -2.7526  0.7411
10216TIP3   OH252138   4.799   1.146  10.830 -0.0445  0.0345  0.0479
10216TIP3    H152139   4.773   1.238  10.823 -0.4892 -0.1509 -0.8541
10216TIP3    H252140   4.796   1.113  10.740  1.9504 -0.3890  0.0790
10217TIP3   OH252141   4.317   0.326   6.353 -0.3744  0.2667  0.0168
10217TIP3    H152142   4.388   0.292   6.407 -0.8227 -2.5333 -1.0302
10217TIP3    H252143   4.246   0.341   6.416  0.0471 -0.1323  0.6056
10218TIP3   OH252144   2.020   2.592  13.138 -0.3774 -0.4048 -0.1650
10218TIP3    H152145   2.019   2.497  13.124 -0.0126 -0.1765 -2.0009
10218TIP3    H252146   1.945   2.624  13.087  0.8815  0.5061 -1.5044
10219TIP3   OH252147   0.993   3.253  10.924  0.0097  0.1629 -0.4514
10219TIP3    H152148   0.961   3.341  10.944  1.0054  1.1341 -2.7342
10219TIP3    H252149   0.913   3.202  10.907 -0.5925  0.5142  1.1972
10220TIP3   OH252150   3.282   2.412  16.643  0.5284  0.1835  0.3391
10220TIP3    H152151   3.326   2.344  16.694  0.4951 -0.3537 -0.3255
10220TIP3    H252152   3.315   2.400  16.554 -1.4180 -0.6841 -0.3362
10221TIP3   OH252153   2.521   4.126   0.638 -0.6094  0.2509  0.2258
10221TIP3    H152154   2.523   4.222   0.642 -2.0727  0.4065 -1.3716
10221TIP3    H252155   2.599   4.103   0.587  0.3888  0.4801  1.6118
10222TIP3   OH252156   5.867   1.796   3.792  0.4976 -0.2180  0.4228
10222TIP3    H152157   5.952   1.839   3.783  0.8281 -1.0009 -0.4007
10222TIP3    H252158   5.804   1.867   3.793  1.0109  0.2962 -1.0560
10223TIP3   OH252159   4.269   3.628  16.535 -0.4982 -0.1481 -0.0924
10223TIP3    H152160   4.263   3.707  16.588  0.0605 -0.1866  0.0327
10223TIP3    H252161   4.328   3.651  16.463  1.4212 -1.0665  1.0932
10224TIP3   OH252162   3.855   2.820   2.194 -0.0050  0.2437 -0.0757
10224TIP3    H152163   3.878   2.814   2.101 -0.3548 -1.1319 -0.0879
10224TIP3    H252164   3.762   2.841   2.194 -0.6717 -2.3621 -0.1022
10225TIP3   OH252165   6.057   5.154   0.543  0.3473 -0.3211 -0.8686
10225TIP3    H152166   6.083   5.230   0.491  0.2955 -0.2060 -0.7283
10225TIP3    H252167   6.102   5.164   0.627 -0.6660  0.2501 -0.3652
10226TIP3   OH252168   4.264   2.822  16.394 -0.2058 -0.9473 -0.4907
10226TIP3    H152169   4.168   2.821  16.391 -0.2924  0.4785  0.6155
10226TIP3    H252170   4.285   2.858  16.480  1.2905  0.8225 -1.5119
10227TIP3   OH252171   3.343   6.491   1.189  0.0666 -0.1570 -0.3858
10227TIP3    H152172   3.344   6.548   1.267  0.8071 -0.1374 -0.4060
10227TIP3    H252173   3.337   6.551   1.116 -1.1495 -0.1945 -0.3381
10228TIP3   OH252174   4.743   3.829  14.678  0.0269  0.4566 -0.0765
10228TIP3    H152175   4.698   3.748  14.657  0.1612  0.6041 -0.9472
10228TIP3    H252176   4.775   3.816  14.768 -0.8150 -0.0538  0.1600
10229TIP3   OH252177   5.984   0.498  11.949 -0.0629  0.0168  0.6820
10229TIP3    H152178   5.944   0.580  11.980 -0.8510  0.1824 -0.7055
10229TIP3    H252179   5.948   0.431  12.009 -1.2625  0.3787  0.4042
10230TIP3   OH252180   3.188   1.104   6.183  0.4395  0.7409  0.3998
10230TIP3    H152181   3.187   1.180   6.241 -0.3242  0.0946  1.2657
10230TIP3    H252182   3.189   1.141   6.095  0.8359  1.7473  0.8062
10231TIP3   OH252183   5.868   0.501  14.192 -0.4724 -0.1163  0.4956
10231TIP3    H152184   5.794   0.550  14.227  0.1662 -0.7438  2.9158
10231TIP3    H252185   5.945   0.554  14.213 -0.0252 -0.6720  0.3054
10232TIP3   OH252186   6.812   5.373  11.605 -0.1100  0.1635  0.2224
10232TIP3    H152187   6.828   5.284  11.573  2.0866  0.2859  0.8023
10232TIP3    H252188   6.717   5.377  11.618 -0.2941 -2.0153 -0.0278
10233TIP3   OH252189   4.614   6.313   3.667 -0.2047 -0.5748 -0.2754
10233TIP3    H152190   4.702   6.347   3.650  0.5192 -2.2217 -0.0343
10233TIP3    H252191   4.559   6.391   3.675  1.3770  0.5284  0.4172
10234TIP3   OH252192   2.339   1.398  14.912 -0.1740  0.2767  0.2189
10234TIP3    H152193   2.312   1.320  14.863 -0.3040 -1.5567  2.9570
10234TIP3    H252194   2.266   1.459  14.902 -0.7442 -0.5308 -0.7737
10235TIP3   OH252195   1.993   0.831  11.350 -0.1246  0.1087 -0.8368
10235TIP3    H152196   2.026   0.760  11.295  0.0531 -0.5628  0.1042
10235TIP3    H252197   1.899   0.815  11.357 -0.0672 -0.1042 -0.5335
10236TIP3   OH252198   1.049   0.574   6.678  0.3296 -0.2583  0.1482
10236TIP3    H152199   0.999   0.502   6.641  0.0245  0.0253  0.0085
10236TIP3    H252200   1.090   0.537   6.756 -1.5173 -0.0166  1.2674
10237TIP3   OH252201   2.981   0.840   3.842 -0.3073 -0.4342  0.0399
10237TIP3    H152202   2.943   0.926   3.822 -1.4476 -0.8974  0.1142
10237TIP3    H252203   2.905   0.785   3.863  0.4740 -1.2094  0.9308
10238TIP3   OH252204   0.075   1.836   0.125  0.5213 -0.1021 -0.2561
10238TIP3    H152205   0.163   1.861   0.152  2.0982 -2.8889 -2.2496
10238TIP3    H252206   0.027   1.823   0.207  1.6896  2.1428  0.8692
10239TIP3   OH252207   0.500   5.292   4.210  0.1687 -0.3438  0.1257
10239TIP3    H152208   0.405   5.292   4.223  0.3022  0.7632  1.2434
10239TIP3    H252209   0.511   5.324   4.120 -0.4882  0.1995  0.2290
10240TIP3   OH252210   1.919   3.271   3.595 -0.0359  0.9904  0.5328
10240TIP3    H152211   1.829   3.275   3.564  0.1844  0.7838 -0.1522
10240TIP3    H252212   1.920   3.326   3.673 -0.5997  1.5331  0.1657
10241TIP3   OH252213   3.567   3.354   0.767 -0.4577 -0.6379 -0.9609
10241TIP3    H152214   3.580   3.277   0.712  0.3518 -0.4157 -1.0913
10241TIP3    H252215   3.566   3.320   0.857  1.7111 -0.6319 -0.8756
10242TIP3   OH252216   6.303   5.132  14.936  0.0383  0.4983  0.7688
10242TIP3    H152217   6.263   5.050  14.967  1.4798  0.1171  1.7038
10242TIP3    H252218   6.257   5.200  14.986 -0.6627  0.2190  0.5230
10243TIP3   OH252219   4.433   0.100  16.189  0.3857 -0.7594 -0.3887
10243TIP3    H152220   4.470   0.108  16.277  0.2479 -0.9128 -0.3168
10243TIP3    H252221   4.360   0.040  16.199  0.6892 -1.1855 -0.7051
10244TIP3   OH252222   3.257   0.127  17.118  0.1550 -0.0598  0.4788
10244TIP3    H152223   3.246   0.200  17.179 -0.5005  0.4017 -0.1827
10244TIP3    H252224   3.207   0.152  17.040  0.9061 -0.6846 -0.2213
10245TIP3   OH252225   2.025   0.465  12.901  0.0042 -0.0194  0.1217
10245TIP3    H152226   2.061   0.549  12.872 -0.7339 -0.1989 -1.3925
10245TIP3    H252227   1.933   0.484  12.918 -0.1082 -0.4626  0.0101
10246TIP3   OH252228   3.988   1.233   2.060  0.3929  0.2685  0.0904
10246TIP3    H152229   3.919   1.189   2.010  0.4361 -1.0127  1.0992
10246TIP3    H252230   4.011   1.171   2.129  2.3892  0.7514 -0.0560
10247TIP3   OH252231   6.300   3.202  11.857  0.8941  0.1770  0.1044
10247TIP3    H152232   6.335   3.190  11.769  0.7151  0.0058  0.0559
10247TIP3    H252233   6.205   3.194  11.846  0.9589 -1.5837  0.5879
10248TIP3   OH252234   5.744   0.342  17.005  0.0998  0.4878 -0.1600
10248TIP3    H152235   5.710   0.423  17.044  0.0142  0.2373  0.2938
10248TIP3    H252236   5.831   0.366  16.973 -0.2716  0.9905 -0.8380
10249TIP3   OH252237   5.024   4.768   3.179 -0.1431 -0.5645 -0.2289
10249TIP3    H152238   4.965   4.843   3.184  1.7107  0.9684  0.0292
10249TIP3    H252239   5.097   4.791   3.237  1.4403 -1.6543 -1.6886
10250TIP3   OH252240   1.050   0.771  12.630 -0.3441 -0.3643  0.1228
10250TIP3    H152241   1.090   0.856  12.648 -0.3426 -0.0216 -1.4043
10250TIP3    H252242   0.960   0.793  12.603 -0.4977 -0.8804  0.2102
10251TIP3   OH252243   6.159   2.364   0.501 -0.7511 -0.4561  0.6727
10251TIP3    H152244   6.066   2.385   0.499 -0.8987 -1.0884 -1.0039
10251TIP3    H252245   6.166   2.292   0.564 -1.6119 -1.2405 -0.0860
10252TIP3   OH252246   2.584   1.936  14.378  0.3426  0.0210 -0.2158
10252TIP3    H152247   2.565   1.858  14.326 -0.5500  0.3190 -0.3424
10252TIP3    H252248   2.581   1.905  14.469  1.7897 -0.4727 -0.3079
10253TIP3   OH252249   2.746   6.681  12.971  0.2535  0.3317  0.3530
10253TIP3    H152250   2.780   6.744  12.908 -3.4376  0.5534 -1.7000
10253TIP3    H252251   2.667   6.723  13.006  0.3013 -1.2464  2.5881
10254TIP3   OH252252   5.815   0.511  14.741  0.5605 -0.1918 -0.1927
10254TIP3    H152253   5.737   0.524  14.795  1.4284  0.8942  0.8547
10254TIP3    H252254   5.818   0.416  14.727 -0.8898 -0.2658 -0.2015
10255TIP3   OH252255   3.281   0.220   2.722  0.1402  0.2809  0.0047
10255TIP3    H152256   3.367   0.178   2.731 -0.9804 -2.0091  1.1233
10255TIP3    H252257   3.292   0.282   2.650  2.5853 -0.2695 -0.2120
10256TIP3   OH252258   3.599   5.632   3.117  0.2380  0.3479 -0.2732
10256TIP3    H152259   3.649   5.627   3.035  0.9477 -0.5934  0.2052
10256TIP3    H252260   3.631   5.559   3.170 -0.8312  0.4250  0.5135
10257TIP3   OH252261   5.456   0.281  11.253 -0.3214  0.5344  0.7003
10257TIP3    H152262   5.541   0.247  11.283 -0.1264  1.5094  1.2887
10257TIP3    H252263   5.394   0.211  11.275  0.5581 -1.0844 -1.5756
10258TIP3   OH252264   4.819   6.468   4.284  0.1087 -0.1864  0.4312
10258TIP3    H152265   4.781   6.466   4.372 -1.4481 -2.2212 -0.2049
10258TIP3    H252266   4.868   6.386   4.277  0.6548  0.1990 -0.4164
10259TIP3   OH252267   1.049   2.471   1.568 -0.3013  0.1093 -0.1488
10259TIP3    H152268   1.099   2.553   1.571 -0.4710  0.1993  0.3804
10259TIP3    H252269   1.029   2.452   1.660 -2.6941  0.9648 -0.4171
10260TIP3   OH252270   2.526   4.827   2.795 -0.4461 -0.6007  0.4552
10260TIP3    H152271   2.540   4.819   2.700  0.9331  0.0964  0.5686
10260TIP3    H252272   2.509   4.738   2.824 -3.5615 -0.5433 -0.7766
10261TIP3   OH252273   5.338   0.796   3.999  0.1156  0.2603  0.1266
10261TIP3    H152274   5.282   0.869   4.023  0.7803  0.3859  1.3890
10261TIP3    H252275   5.284   0.718   4.009 -0.0845  0.4466  0.4634
10262TIP3   OH252276   6.195   5.617   4.424  0.7434  0.2321  0.3137
10262TIP3    H152277   6.154   5.643   4.341  1.4047  0.6167  0.1027
10262TIP3    H252278   6.288   5.635   4.412  0.9665 -0.5038  0.8401
10263TIP3   OH252279   5.998   1.330  11.080  0.1566  0.3773  0.5615
10263TIP3    H152280   5.912   1.317  11.039 -0.6967 -2.5554  2.9368
10263TIP3    H252281   6.028   1.242  11.102  2.8427  1.4678  1.6769
10264TIP3   OH252282   2.144   1.401   0.692  0.9029 -0.4382  0.8915
10264TIP3    H152283   2.056   1.380   0.722  0.5163  1.4130  1.1906
10264TIP3    H252284   2.143   1.382   0.598  0.0874 -0.1475  0.8356
10265TIP3   OH252285   4.537   0.933  13.896 -0.1227  0.4332  0.2245
10265TIP3    H152286   4.597   0.876  13.849 -0.1695 -0.1706  0.8848
10265TIP3    H252287   4.488   0.875  13.954 -0.3523  1.1053  0.7218
10266TIP3   OH252288   2.588   3.420   3.137 -0.4127 -0.3570 -0.8620
10266TIP3    H152289   2.513   3.365   3.117  0.1002 -0.6491 -2.0966
10266TIP3    H252290   2.663   3.360   3.139 -0.1188  0.0115 -0.2453
10267TIP3   OH252291   2.403   2.088  16.479  0.2216  0.4168 -0.3696
10267TIP3    H152292   2.355   2.136  16.412  3.3209  4.4958 -0.0921
10267TIP3    H252293   2.482   2.056  16.434  0.4391 -0.3182  0.5040
10268TIP3   OH252294   1.105   1.278  16.075  0.3633  0.4808  0.6252
10268TIP3    H152295   1.049   1.353  16.094 -0.1208  0.0560  0.9229
10268TIP3    H252296   1.150   1.302  15.994  0.5284  1.2554  0.9369
10269TIP3   OH252297   6.257   6.393  12.574  0.1996 -0.5015  0.4649
10269TIP3    H152298   6.220   6.480  12.556 -2.2091 -2.0261 -3.0857
10269TIP3    H252299   6.190   6.349  12.627 -0.1762 -1.2399 -0.6010
10270TIP3   OH252300   1.350   1.629  11.585  0.5444 -0.4699 -0.5909
10270TIP3    H152301   1.347   1.717  11.546 -1.5297  0.6350  1.8031
10270TIP3    H252302   1.262   1.594  11.572  0.7409 -1.3327  0.3014
10271TIP3   OH252303   0.151   5.204  16.731 -0.4922  0.3703  0.1563
10271TIP3    H152304   0.182   5.243  16.649 -0.2861  3.9368  1.7503
10271TIP3    H252305   0.060   5.233  16.738  0.5262  3.4705  2.8396
10272TIP3   OH252306   2.304   0.783  14.325  0.3477  0.0721  0.1936
10272TIP3    H152307   2.273   0.808  14.238 -0.2913  2.2204  0.9923
10272TIP3    H252308   2.259   0.842  14.385  0.9038 -1.2505  1.9893
10273TIP3   OH252309   5.849   5.354   0.241  0.1153  0.4820  0.2986
10273TIP3    H152310   5.794   5.283   0.274  0.6422 -0.1855 -0.2477
10273TIP3    H252311   5.935   5.338   0.279  0.3302  0.6158 -0.1268
10274TIP3   OH252312   3.782   6.562   6.277  0.1781 -0.5201 -0.6132
10274TIP3    H152313   3.779   6.657   6.275 -0.0566 -0.5291 -0.7491
10274TIP3    H252314   3.719   6.535   6.210 -1.5698 -0.7951  1.0433
10275TIP3   OH252315   0.316   1.918  13.449 -0.4354 -0.5282  0.3137
10275TIP3    H152316   0.364   1.835  13.451  0.8094  0.1565  0.0890
10275TIP3    H252317   0.332   1.952  13.361 -1.2145 -0.2085  0.2946
10276TIP3   OH252318   3.030   5.508  11.586  0.1357  0.0544  0.4765
10276TIP3    H152319   2.939   5.477  11.593  0.1160 -0.3081 -1.0079
10276TIP3    H252320   3.077   5.458  11.652 -0.5223 -0.6928  0.4069
10277TIP3   OH252321   3.078   6.614   3.871 -0.0067 -0.0922  0.4661
10277TIP3    H152322   3.067   6.563   3.952  5.4515 -2.1837  0.3087
10277TIP3    H252323   3.049   6.554   3.802 -0.1097 -0.2573  0.6497
10278TIP3   OH252324   1.649   5.061  14.455 -0.7650 -0.4437  0.2672
10278TIP3    H152325   1.712   4.991  14.438  0.7997  0.8460  0.5986
10278TIP3    H252326   1.665   5.126  14.387  0.6373  1.4381  2.2315
10279TIP3   OH252327   3.483   4.828  12.422 -1.1771  0.6371  0.2788
10279TIP3    H152328   3.570   4.798  12.450 -1.2145 -1.0469 -1.2459
10279TIP3    H252329   3.497   4.919  12.395 -0.5024  1.2865  2.6394
10280TIP3   OH252330   4.353   6.464   3.004 -0.8216 -0.1284 -0.1028
10280TIP3    H152331   4.336   6.446   2.911 -1.2661 -1.2754  0.1744
10280TIP3    H252332   4.281   6.420   3.050  0.3654 -1.1332  0.8808
10281TIP3   OH252333   0.390   2.354  14.281  0.4107  0.6019 -0.2215
10281TIP3    H152334   0.418   2.310  14.201  2.6026 -0.4100  0.9938
10281TIP3    H252335   0.347   2.434  14.251  2.2626  0.8724 -2.4140
10282TIP3   OH252336   1.339   0.170   1.941 -0.1681  0.4322 -0.2627
10282TIP3    H152337   1.388   0.094   1.973  0.7275  0.6108 -1.1475
10282TIP3    H252338   1.267   0.132   1.890 -1.2560  0.1585  1.4078
10283TIP3   OH252339   6.403   1.130  14.651  0.0587  0.1789  0.4242
10283TIP3    H152340   6.320   1.151  14.608 -1.0715 -0.0104  2.4171
10283TIP3    H252341   6.420   1.039  14.626  0.0925  0.4675 -0.6382
10284TIP3   OH252342   5.118   5.660  14.159  0.3303  0.1193 -0.1327
10284TIP3    H152343   5.162   5.608  14.226  0.1236 -0.9244 -0.7842
10284TIP3    H252344   5.029   5.625  14.156  0.0566  0.8035 -0.2939
10285TIP3   OH252345   2.860   5.999  13.227 -0.1769 -0.4267  0.0980
10285TIP3    H152346   2.776   5.959  13.204 -0.6200  1.0618 -0.9887
10285TIP3    H252347   2.916   5.980  13.152 -0.5865  1.4746 -0.7313
10286TIP3   OH252348   4.940   0.049  12.420  0.0661 -0.1392 -0.0970
10286TIP3    H152349   4.988  -0.033  12.424 -1.3013 -0.9092  1.8768
10286TIP3    H252350   4.856   0.030  12.462 -0.2924  2.2495  0.4109
10287TIP3   OH252351   3.489   2.955  15.003  0.4286  0.1403  0.1974
10287TIP3    H152352   3.414   2.966  15.060  1.0508  0.4171  0.9772
10287TIP3    H252353   3.524   2.868  15.025  0.3006 -0.0251 -0.2238
10288TIP3   OH252354   3.455   0.882  15.069  0.1809  0.0973 -0.5649
10288TIP3    H152355   3.432   0.972  15.092 -1.2703 -0.2693 -0.5220
10288TIP3    H252356   3.530   0.890  15.010 -1.1203  1.4374 -2.0989
10289TIP3   OH252357   1.660   0.476  16.127 -0.1411 -0.2617  0.3477
10289TIP3    H152358   1.573   0.482  16.087  0.3402  2.1039 -0.5023
10289TIP3    H252359   1.644   0.492  16.220 -0.9801 -3.5154  0.8864
10290TIP3   OH252360   4.303   2.576  11.885 -0.2535  0.8588  0.0686
10290TIP3    H152361   4.266   2.498  11.928  0.1241  1.4496  1.5138
10290TIP3    H252362   4.394   2.552  11.866 -0.1885  0.8784  0.3507
10291TIP3   OH252363   3.657   4.125  14.747  0.3270  0.0351  0.7155
10291TIP3    H152364   3.750   4.104  14.759  0.0401 -0.4472  2.3325
10291TIP3    H252365   3.654   4.221  14.748  1.3308  0.3792 -4.1879
10292TIP3   OH252366   1.315   2.789   0.542  0.7811  0.1819 -0.2012
10292TIP3    H152367   1.393   2.779   0.597  1.3234  0.1072 -0.9655
10292TIP3    H252368   1.255   2.842   0.595  1.1644 -0.1443  0.5779
10293TIP3   OH252369   0.727   2.888   2.735 -0.4930  0.4962  0.0040
10293TIP3    H152370   0.648   2.836   2.729 -0.1538 -0.2428  1.3876
10293TIP3    H252371   0.713   2.962   2.676 -1.7265 -0.2168 -0.6133
10294TIP3   OH252372   3.278   2.841   1.152 -0.5329 -0.1831  0.2686
10294TIP3    H152373   3.294   2.822   1.059 -0.4641  1.2062 -0.0197
10294TIP3    H252374   3.244   2.759   1.187  1.6245 -1.4661 -0.4389
10295TIP3   OH252375   0.829   1.196   5.442 -0.0216 -0.1153  0.0350
10295TIP3    H152376   0.781   1.277   5.425  0.4658  0.4305  1.1951
10295TIP3    H252377   0.762   1.128   5.446 -0.4647  0.2702 -0.6044
10296TIP3   OH252378   0.393   0.692   0.231 -0.1964  0.1265 -0.1115
10296TIP3    H152379   0.314   0.677   0.178 -0.0185 -0.3964 -0.2321
10296TIP3    H252380   0.389   0.785   0.253 -1.0879  0.0092  0.2650
10297TIP3   OH252381   3.256   5.390   3.762 -0.2455 -0.2667 -0.3157
10297TIP3    H152382   3.192   5.450   3.724  1.7663  1.6390 -0.8625
10297TIP3    H252383   3.230   5.382   3.854 -1.7473 -0.2688 -0.7102
10298TIP3   OH252384   2.705   6.714   4.356  0.0433  0.3811  0.3908
10298TIP3    H152385   2.754   6.633   4.348 -0.1894  0.3176 -0.4244
10298TIP3    H252386   2.616   6.686   4.381 -0.1000  0.3671 -0.1299
10299TIP3   OH252387   1.153   1.749   3.432  0.0564  0.2870  0.6023
10299TIP3    H152388   1.235   1.719   3.395 -0.0954 -0.6101  0.9702
10299TIP3    H252389   1.157   1.845   3.426 -0.0523  0.1917 -1.8855
10300TIP3   OH252390   5.501   3.385   4.348  0.3344 -0.1030 -0.1652
10300TIP3    H152391   5.494   3.393   4.443  1.5485 -1.5529  0.0944
10300TIP3    H252392   5.569   3.448   4.324  0.0894  0.2010 -0.0664
10301TIP3   OH252393   6.743   5.429   2.479 -0.3964  0.1810 -0.0060
10301TIP3    H152394   6.664   5.380   2.501 -0.1891 -0.3061 -0.3355
10301TIP3    H252395   6.806   5.362   2.452 -0.0942  0.6238 -0.4158
10302TIP3   OH252396   0.338   5.528   5.116  0.0548  0.1742  0.5420
10302TIP3    H152397   0.353   5.519   5.210 -0.0031 -0.9966  0.4536
10302TIP3    H252398   0.314   5.440   5.087  2.4492 -0.0755 -1.0000
10303TIP3   OH252399   1.680   6.064  14.069  0.1994  0.0214  0.5548
10303TIP3    H152400   1.650   6.002  14.135 -0.2291  0.8686  1.1718
10303TIP3    H252401   1.774   6.073  14.084  0.8102 -2.3650 -1.1499
10304TIP3   OH252402   4.998   6.353  14.730  0.2250  0.2174 -0.2538
10304TIP3    H152403   4.961   6.337  14.817 -0.8340  2.4284 -0.2129
10304TIP3    H252404   4.936   6.414  14.690  1.4496  0.3426 -2.0379
10305TIP3   OH252405   4.127   3.810  14.643 -0.4722 -0.3528  0.6264
10305TIP3    H152406   4.067   3.815  14.569 -0.1869  0.8178  0.4630
10305TIP3    H252407   4.071   3.801  14.720 -0.7879 -0.8728  0.3418
10306TIP3   OH252408   4.764   2.771  13.581 -0.1085  0.1180  0.7577
10306TIP3    H152409   4.776   2.864  13.560 -0.5541 -0.0648 -0.4192
10306TIP3    H252410   4.690   2.770  13.642  0.7089  0.6171  1.7882
10307TIP3   OH252411   1.048   6.259  16.932 -0.3677 -0.3022  0.3422
10307TIP3    H152412   1.136   6.297  16.935 -0.1444 -0.6780 -1.0226
10307TIP3    H252413   1.041   6.209  17.014  0.2748  0.5859  0.9663
10308TIP3   OH252414   5.143   4.961  13.517  0.1364  0.3269  0.1430
10308TIP3    H152415   5.148   4.899  13.444  0.0728 -0.1121  0.5038
10308TIP3    H252416   5.052   4.955  13.546 -0.4737  2.2236 -1.2099
10309TIP3   OH252417   4.704   3.394   5.433  0.2121 -0.0359 -0.1336
10309TIP3    H152418   4.698   3.396   5.337 -1.6287 -1.8220 -0.1254
10309TIP3    H252419   4.622   3.433   5.463  0.6183  0.1854  0.7177
10310TIP3   OH252420   0.622   0.756   1.189 -0.0869 -0.1715 -0.0884
10310TIP3    H152421   0.677   0.694   1.141 -0.2328  0.4617 -1.1072
10310TIP3    H252422   0.667   0.840   1.178 -2.2196  0.7445 -2.6147
10311TIP3   OH252423   1.293   4.835  15.383  0.4065 -0.0898 -0.2789
10311TIP3    H152424   1.237   4.844  15.460  1.3215 -1.6102  0.5985
10311TIP3    H252425   1.369   4.890  15.401  0.7955 -0.7410  0.0781
10312TIP3   OH252426   4.045   0.986   2.506  0.0072  0.5606 -0.4711
10312TIP3    H152427   4.068   1.061   2.451 -0.2401  0.2565 -0.9958
10312TIP3    H252428   4.090   1.003   2.589  0.9598  0.6860 -0.9974
10313TIP3   OH252429   2.227   6.305  11.103 -0.1950 -0.3600 -0.3827
10313TIP3    H152430   2.199   6.281  11.015 -0.0813 -0.2520 -0.4477
10313TIP3    H252431   2.190   6.237  11.159 -0.2349 -0.4495 -0.5185
10314TIP3   OH252432   3.461   2.302  14.340 -0.2884 -0.5292  0.3060
10314TIP3    H152433   3.496   2.215  14.321  1.8650  0.5173 -0.8204
10314TIP3    H252434   3.534   2.350  14.379 -1.3472  0.8826  0.6617
10315TIP3   OH252435   2.762   2.010   4.641  0.6449 -0.4193  0.0761
10315TIP3    H152436   2.707   1.996   4.563 -1.4563  1.9289  0.9817
10315TIP3    H252437   2.719   1.959   4.709  0.6168 -0.0065  0.3721
10316TIP3   OH252438   1.225   0.616  16.220 -0.5580  0.0541 -0.5147
10316TIP3    H152439   1.216   0.542  16.161 -2.1186  0.3142 -0.6581
10316TIP3    H252440   1.247   0.690  16.163  1.6600 -0.3816 -0.2962
10317TIP3   OH252441   0.050   6.096  12.410 -0.2394 -0.4508 -0.2241
10317TIP3    H152442   0.140   6.101  12.378 -0.1718  1.0296  0.1559
10317TIP3    H252443   0.059   6.060  12.499  0.3618  2.7061  1.1186
10318TIP3   OH252444   1.184   5.555   0.598  0.4991 -0.0187  0.6547
10318TIP3    H152445   1.167   5.481   0.656  1.5235  0.0777  1.0967
10318TIP3    H252446   1.279   5.565   0.599  0.3265  2.0924  1.6177
10319TIP3   OH252447   4.776   4.421   6.517  0.0372  0.1950  0.3558
10319TIP3    H152448   4.701   4.480   6.508 -0.1502  0.1463  1.5080
10319TIP3    H252449   4.740   4.334   6.501  0.2659  0.3468 -1.1059
10320TIP3   OH252450   4.526   2.882   2.722 -0.1980  0.0955 -0.5521
10320TIP3    H152451   4.437   2.868   2.688  0.1448 -0.2212 -1.3426
10320TIP3    H252452   4.583   2.839   2.658  0.4460 -1.2224  0.8434
10321TIP3   OH252453   0.106   1.521   0.989  0.5241 -0.1546 -0.1694
10321TIP3    H152454   0.200   1.538   0.981  0.2734  0.8964 -1.0778
10321TIP3    H252455   0.081   1.483   0.905  0.0012  0.2959 -0.2243
10322TIP3   OH252456   5.975   1.770   3.278  0.0337  0.0738  0.0441
10322TIP3    H152457   5.920   1.818   3.217 -0.2917 -0.4868 -0.1144
10322TIP3    H252458   6.062   1.808   3.267 -0.3768  1.1999  0.5416
10323TIP3   OH252459   5.171   1.561  10.774 -0.1770 -0.6160  0.3435
10323TIP3    H152460   5.087   1.577  10.816 -1.0258 -2.6789 -0.4434
10323TIP3    H252461   5.178   1.466  10.770  3.3898 -0.6639  2.7033
10324TIP3   OH252462   1.480   3.620   6.258  0.0038 -0.5096  0.4746
10324TIP3    H152463   1.433   3.704   6.261 -1.1781 -1.1347  0.1535
10324TIP3    H252464   1.427   3.561   6.310  0.2180 -1.3434 -0.2246
10325TIP3   OH252465   0.135   1.325   3.818  0.5454 -0.4172 -0.1072
10325TIP3    H152466   0.183   1.366   3.889 -0.9582  0.0903  0.6610
10325TIP3    H252467   0.097   1.246   3.857 -1.3170  0.5079  0.0561
10326TIP3   OH252468   5.025   0.529   4.588  0.4157  0.0008  0.2271
10326TIP3    H152469   4.969   0.605   4.606 -0.9889 -1.4066  2.2599
10326TIP3    H252470   5.099   0.539   4.648  0.6919  0.2048 -0.1444
10327TIP3   OH252471   5.967   1.240   3.285 -0.1292 -0.3605  0.1414
10327TIP3    H152472   5.923   1.159   3.258 -2.3163  0.5951  0.6216
10327TIP3    H252473   5.899   1.307   3.278  1.3009  1.2221  0.9086
10328TIP3   OH252474   2.164   2.313   3.501  0.0311  0.8671  0.5804
10328TIP3    H152475   2.073   2.343   3.508 -0.4079  0.2412 -1.7034
10328TIP3    H252476   2.157   2.217   3.499  0.4743  0.8356 -1.9599
10329TIP3   OH252477   3.890   5.644  14.306 -0.5574  0.4976  0.0770
10329TIP3    H152478   3.875   5.688  14.222 -0.0766  0.6996  0.0957
10329TIP3    H252479   3.802   5.633  14.342 -0.6427  2.3515  0.5255
10330TIP3   OH252480   3.735   4.428   3.190 -0.3199  0.5919 -0.3203
10330TIP3    H152481   3.779   4.343   3.192  0.1713  0.7915  2.5601
10330TIP3    H252482   3.784   4.479   3.125  1.2286 -0.4371 -0.0242
10331TIP3   OH252483   6.694   0.099   5.696  0.6949  0.0549  0.4495
10331TIP3    H152484   6.682   0.153   5.774  1.6530  0.4630  0.3239
10331TIP3    H252485   6.788   0.086   5.690  0.6185 -0.1034 -0.5577
10332TIP3   OH252486   4.528   5.106   0.303 -0.1483  0.2687  0.2353
10332TIP3    H152487   4.580   5.137   0.377 -1.4367  3.3166  0.0126
10332TIP3    H252488   4.565   5.150   0.227 -0.6964 -0.4884 -0.4831
10333TIP3   OH252489   2.573   5.398   5.456 -0.1903  0.2981 -0.4156
10333TIP3    H152490   2.596   5.329   5.518 -2.4163 -0.6315 -0.5503
10333TIP3    H252491   2.644   5.463   5.465  2.7581 -2.5437 -1.2583
10334TIP3   OH252492   0.601   2.552  13.089 -0.0344 -0.5014  0.0957
10334TIP3    H152493   0.574   2.586  13.004  2.2892 -0.7754 -0.7972
10334TIP3    H252494   0.522   2.509  13.123 -1.8771  2.0540 -0.5597
10335TIP3   OH252495   4.967   1.974  12.342  0.4991  0.4778 -0.2190
10335TIP3    H152496   5.025   1.952  12.415  0.4618 -0.5954 -0.5049
10335TIP3    H252497   5.022   2.024  12.282  0.7707  0.5971  0.1243
10336TIP3   OH252498   1.962   2.425   4.730  0.3007  0.2675  0.3014
10336TIP3    H152499   1.980   2.353   4.790  0.9979  0.0714 -0.1209
10336TIP3    H252500   2.003   2.397   4.648  0.8786  1.3029  0.2330
10337TIP3   OH252501   6.566   1.400   3.965  0.8586  0.5480 -0.4542
10337TIP3    H152502   6.569   1.374   3.873  1.0195 -0.5930 -0.1407
10337TIP3    H252503   6.536   1.322   4.012  0.5474  1.1812  0.4442
10338TIP3   OH252504   5.360   5.759  15.226 -0.6256  0.2393  0.3421
10338TIP3    H152505   5.344   5.669  15.255  0.0000 -0.2252 -0.6964
10338TIP3    H252506   5.280   5.784  15.180 -1.0327  0.4378  1.1451
10339TIP3   OH252507   1.132   4.874   5.258  0.1238  0.0295 -0.4116
10339TIP3    H152508   1.080   4.946   5.223 -1.1864  0.3657  1.9868
10339TIP3    H252509   1.167   4.907   5.341  2.4279 -0.9512 -0.8988
10340TIP3   OH252510   1.564   3.993  11.241 -0.5979  0.0962 -0.3767
10340TIP3    H152511   1.658   3.983  11.256 -0.4234 -0.0074 -1.5181
10340TIP3    H252512   1.537   4.057  11.307  0.4491  0.8184 -0.6189
10341TIP3   OH252513   2.174   6.576   5.305  0.3464 -0.3281 -0.1711
10341TIP3    H152514   2.178   6.535   5.218 -0.7538 -0.7565 -0.0457
10341TIP3    H252515   2.102   6.639   5.298 -0.4694 -1.1114  0.7038
10342TIP3   OH252516   0.988   3.218  14.438  0.0205 -1.1340 -0.3183
10342TIP3    H152517   0.977   3.301  14.485 -3.3503 -1.6513  0.0348
10342TIP3    H252518   1.002   3.153  14.507  1.2736 -1.1200 -0.5202
10343TIP3   OH252519   2.152   0.975  14.149 -0.2963  0.0368  0.0151
10343TIP3    H152520   2.083   1.009  14.092 -0.5114 -0.9806 -0.3549
10343TIP3    H252521   2.148   1.031  14.227 -0.2925  1.1598 -0.7672
10344TIP3   OH252522   3.745   2.992  10.430  0.4251  0.1434  0.0880
10344TIP3    H152523   3.761   2.898  10.426 -0.7219 -0.2776  2.9972
10344TIP3    H252524   3.799   3.023  10.504 -0.5571  1.4101  0.3192
10345TIP3   OH252525   4.249   3.740   6.177 -0.4347  0.5210 -0.4570
10345TIP3    H152526   4.293   3.797   6.115  1.1623  1.4393  1.4026
10345TIP3    H252527   4.319   3.694   6.222 -1.4096  0.7823  1.4560
10346TIP3   OH252528   4.807   3.508   2.942 -0.2922 -0.1549  0.4062
10346TIP3    H152529   4.799   3.587   2.995 -0.7125 -0.3714  0.6707
10346TIP3    H252530   4.814   3.540   2.852  1.5325  0.2659  0.6634
10347TIP3   OH252531   0.231   3.966  11.655 -0.6927  0.3871  0.6027
10347TIP3    H152532   0.237   4.056  11.686  1.1901  0.2519  0.6994
10347TIP3    H252533   0.310   3.952  11.603 -1.0764 -1.1332  0.3673
10348TIP3   OH252534   0.216   6.000   5.194 -0.0245 -0.1400 -0.1675
10348TIP3    H152535   0.150   5.931   5.202 -1.1112  0.8768 -0.0339
10348TIP3    H252536   0.184   6.071   5.251  1.6719  0.0322  0.6604
10349TIP3   OH252537   5.342   1.451  12.294  0.1885 -0.3595 -0.3393
10349TIP3    H152538   5.394   1.526  12.266  0.5683 -0.4679  0.0685
10349TIP3    H252539   5.275   1.442  12.226  1.7002 -1.2497 -1.8148
10350TIP3   OH252540   3.344   1.855  13.741 -0.4589 -0.8588 -0.2640
10350TIP3    H152541   3.383   1.942  13.737  0.3090 -1.1310  0.7822
10350TIP3    H252542   3.356   1.818  13.653  0.3501 -0.3897 -0.3539
10351TIP3   OH252543   1.353   6.040  14.290 -0.0780  0.1627 -0.0015
10351TIP3    H152544   1.369   5.997  14.375  0.9371  2.8379  1.2772
10351TIP3    H252545   1.258   6.052  14.287 -0.3886 -2.0347 -0.3906
10352TIP3   OH252546   3.620   6.326   3.595  0.4519 -0.3284  0.2072
10352TIP3    H152547   3.710   6.353   3.577  0.1545  0.4506 -0.1471
10352TIP3    H252548   3.580   6.316   3.509 -0.1025  0.3959  0.3700
10353TIP3   OH252549   5.783   6.810  14.021 -0.3536  0.3472 -0.3448
10353TIP3    H152550   5.817   6.778  14.104  0.8323  0.1727 -0.8832
10353TIP3    H252551   5.705   6.757  14.005 -0.6944  0.5064  0.7307
10354TIP3   OH252552   3.835   0.934  15.164  0.1148 -0.2694  0.0272
10354TIP3    H152553   3.753   0.981  15.180  0.0170  0.1390 -1.5133
10354TIP3    H252554   3.810   0.855  15.117  0.3173 -1.8178  2.3426
10355TIP3   OH252555   5.329   4.583   3.779  0.2417  0.6669  0.1156
10355TIP3    H152556   5.268   4.583   3.853  0.4013  0.4196  0.2503
10355TIP3    H252557   5.373   4.498   3.785 -0.8682 -0.0331 -1.2054
10356TIP3   OH252558   5.352   2.039  10.992 -0.5898 -0.0759  0.0726
10356TIP3    H152559   5.299   2.045  11.072 -2.9200 -0.8989 -1.3113
10356TIP3    H252560   5.293   2.002  10.927  1.4094  0.0243 -1.9170
10357TIP3   OH252561   0.292   5.470  13.303 -0.0768 -0.4786  0.0544
10357TIP3    H152562   0.351   5.402  13.269  2.0514  0.4927  1.6118
10357TIP3    H252563   0.310   5.473  13.396 -2.5229  0.0238  0.5900
10358TIP3   OH252564   5.464   6.086  15.707 -0.2580  0.0835 -0.0446
10358TIP3    H152565   5.456   5.994  15.732 -0.4643  0.6017  1.9602
10358TIP3    H252566   5.387   6.103  15.652 -0.2024 -0.9142 -0.4647
10359TIP3   OH252567   6.108   5.254   1.138 -0.4412  0.1789  0.1648
10359TIP3    H152568   6.175   5.209   1.189 -0.4760  2.1416  2.1076
10359TIP3    H252569   6.087   5.194   1.067  1.0712 -1.8385  1.3254
10360TIP3   OH252570   4.514   5.938  16.965 -0.3460  0.8433 -1.5701
10360TIP3    H152571   4.563   5.860  16.991 -1.2594  0.7758  0.1328
10360TIP3    H252572   4.438   5.904  16.917 -1.2232  0.5598 -0.0605
10361TIP3   OH252573   2.135   3.159   5.162 -0.4513 -0.1737 -0.2487
10361TIP3    H152574   2.154   3.119   5.247  0.2362 -2.1456 -1.2588
10361TIP3    H252575   2.053   3.118   5.133 -0.1797 -0.2543 -0.9424
10362TIP3   OH252576   1.910   0.101  16.279 -0.3817  0.1838  0.0610
10362TIP3    H152577   1.990   0.049  16.286 -0.3305  0.3834  1.1361
10362TIP3    H252578   1.881   0.088  16.189  0.8619  0.1105 -0.3505
10363TIP3   OH252579   0.062   4.435  12.673  0.5022  0.0907 -0.7751
10363TIP3    H152580   0.099   4.368  12.615 -0.8156 -0.4771 -0.9826
10363TIP3    H252581   0.057   4.513  12.618 -1.0621 -0.5324 -1.5949
10364TIP3   OH252582   4.990   5.117   1.422  0.3196  0.1047  0.2667
10364TIP3    H152583   5.003   5.027   1.452  0.1429 -0.1976 -0.5368
10364TIP3    H252584   5.060   5.132   1.358  1.1766  1.0095  1.3547
10365TIP3   OH252585   4.664   1.242  14.728  0.2047 -0.0076  0.1943
10365TIP3    H152586   4.635   1.240  14.637  3.1450 -2.0532 -0.8422
10365TIP3    H252587   4.620   1.167  14.768  1.6263 -1.3211 -0.5883
10366TIP3   OH252588   5.518   1.938   0.519 -0.3537 -0.2107  0.3476
10366TIP3    H152589   5.531   1.845   0.502 -2.4738 -0.2185 -1.6832
10366TIP3    H252590   5.589   1.982   0.473 -0.1689 -0.7664  0.0985
10367TIP3   OH252591   5.434   3.293  12.804 -0.5280 -0.0454  0.2373
10367TIP3    H152592   5.380   3.322  12.730 -2.7680  1.5505  2.3302
10367TIP3    H252593   5.428   3.365  12.868  3.6917 -0.0081  0.9292
10368TIP3   OH252594   3.880   6.442  11.471  0.6911  0.2965  0.1896
10368TIP3    H152595   3.940   6.389  11.419 -0.2058 -1.4784  0.8493
10368TIP3    H252596   3.926   6.456  11.554  0.1865 -1.2014  0.7567
10369TIP3   OH252597   2.852   6.247   1.715 -0.1619 -0.5536 -0.3917
10369TIP3    H152598   2.890   6.183   1.776 -1.3652 -0.0052  0.9918
10369TIP3    H252599   2.757   6.241   1.730 -0.3847  0.5471 -1.2555
10370TIP3   OH252600   4.685   2.862   4.962 -0.1123 -0.1010 -0.2314
10370TIP3    H152601   4.734   2.940   4.989 -0.9448  0.1331  0.6313
10370TIP3    H252602   4.632   2.892   4.887 -0.5771  0.2194  0.2212
10371TIP3   OH252603   2.292   5.153  16.790 -0.1661  0.1783  0.5756
10371TIP3    H152604   2.308   5.067  16.828 -1.0272  0.5191  1.7854
10371TIP3    H252605   2.377   5.197  16.792 -0.0669 -0.0363  1.5735
10372TIP3   OH252606   0.462   5.152  14.481 -0.6405  0.6411  0.3819
10372TIP3    H152607   0.384   5.103  14.507 -0.4253  0.1012  0.0265
10372TIP3    H252608   0.476   5.127  14.390  1.2824 -1.0795  1.0925
10373TIP3   OH252609   0.391   4.121   3.064 -0.6291 -0.2722  0.8154
10373TIP3    H152610   0.313   4.171   3.087  0.1131  1.6375 -0.5289
10373TIP3    H252611   0.426   4.166   2.987  1.5202 -1.3736  1.0794
10374TIP3   OH252612   0.272   2.608  14.284 -0.3309 -0.8347 -0.4107
10374TIP3    H152613   0.337   2.678  14.274  0.9736 -1.7666  1.0704
10374TIP3    H252614   0.217   2.615  14.206  1.1197  0.4432 -1.3769
10375TIP3   OH252615   5.551   4.786   6.268 -0.1245 -0.6277 -0.5103
10375TIP3    H152616   5.540   4.817   6.178  0.3750 -1.2473 -0.7876
10375TIP3    H252617   5.507   4.701   6.270  0.7795 -1.0987 -0.4515
10376TIP3   OH252618   6.359   0.715  16.799  0.2710 -0.3497 -0.0083
10376TIP3    H152619   6.387   0.641  16.744  0.4234 -0.4803  0.2424
10376TIP3    H252620   6.441   0.758  16.824  0.1133  1.0927 -1.7603
10377TIP3   OH252621   6.473   4.413   2.521 -0.2074  0.0399  0.1536
10377TIP3    H152622   6.542   4.418   2.587  1.0087  1.1062 -1.0962
10377TIP3    H252623   6.407   4.356   2.558  2.5963 -3.4203  0.3241
10378TIP3   OH252624   2.293   0.899  12.951 -0.0245 -0.1453  0.0735
10378TIP3    H152625   2.201   0.909  12.928  0.0441 -0.5214 -0.3791
10378TIP3    H252626   2.306   0.958  13.026 -0.4671  0.4085 -0.2787
10379TIP3   OH252627   0.499   2.690   3.950 -0.7019  0.0850  0.0063
10379TIP3    H152628   0.441   2.629   3.996  1.1417 -0.2656  2.0417
10379TIP3    H252629   0.497   2.660   3.859 -1.9683 -1.2865  0.4352
10380TIP3   OH252630   2.725   2.831   3.898  0.2272  0.2660 -0.3563
10380TIP3    H152631   2.641   2.869   3.873 -1.1093 -1.9777  0.4046
10380TIP3    H252632   2.753   2.781   3.822  0.7291  0.7280 -0.4849
10381TIP3   OH252633   2.574   4.231  12.220  0.0629 -0.3708  0.3142
10381TIP3    H152634   2.491   4.182  12.224  0.7610 -1.5478  0.7270
10381TIP3    H252635   2.549   4.321  12.238 -1.4555 -0.3011 -1.7169
10382TIP3   OH252636   1.378   3.211  11.193  0.3335 -0.5496  0.8673
10382TIP3    H152637   1.389   3.248  11.280 -2.5952  0.7636  0.7995
10382TIP3    H252638   1.289   3.175  11.193  0.8551 -2.0362 -1.0825
10383TIP3   OH252639   1.253   3.325  13.702  0.3187 -0.3749 -0.0017
10383TIP3    H152640   1.235   3.370  13.619  3.2867 -1.6405 -1.5043
10383TIP3    H252641   1.334   3.365  13.734  0.1246 -1.0643  1.4266
10384TIP3   OH252642   5.783   6.793  15.635 -0.2989 -0.1116 -0.2473
10384TIP3    H152643   5.826   6.844  15.566 -0.2092  0.1949  0.0365
10384TIP3    H252644   5.842   6.719  15.650 -0.1612 -0.0083 -0.2764
10385TIP3   OH252645   0.052   5.497  12.624 -0.1289  0.5764  0.2658
10385TIP3    H152646  -0.017   5.549  12.582 -1.7837 -0.3123  1.7738
10385TIP3    H252647   0.078   5.434  12.557 -1.3194  0.4467 -0.0953
10386TIP3   OH252648   6.398   2.783  16.467 -0.3843  0.1368  0.0511
10386TIP3    H152649   6.430   2.696  16.492  2.2054  0.6715 -1.0590
10386TIP3    H252650   6.327   2.766  16.406  0.7110 -1.2452 -0.8846
10387TIP3   OH252651   3.450   0.441   3.904 -0.4759  0.3818  0.0581
10387TIP3    H152652   3.540   0.457   3.934  0.1784  1.3796 -2.2063
10387TIP3    H252653   3.396   0.494   3.962  0.0619 -1.8473  2.8665
10388TIP3   OH252654   6.130   0.023   1.661 -0.5366 -0.0480  0.1576
10388TIP3    H152655   6.151  -0.060   1.618  0.5109  0.0015  0.5605
10388TIP3    H252656   6.036   0.015   1.681 -0.2546 -1.5591  1.0817
10389TIP3   OH252657   5.201   6.030   1.850 -0.3152 -0.3205 -0.0133
10389TIP3    H152658   5.111   6.063   1.853  0.0653  0.6709  1.4426
10389TIP3    H252659   5.209   5.974   1.927 -0.1743 -1.8535 -1.0818
10390TIP3   OH252660   1.590   2.634  14.002  0.1749  0.2615  0.0133
10390TIP3    H152661   1.606   2.591  14.085 -0.7691 -0.1041  0.0206
10390TIP3    H252662   1.638   2.716  14.007  2.5191 -1.0313 -0.2443
10391TIP3   OH252663   0.147   2.458   0.785 -0.5419 -0.0011  0.1362
10391TIP3    H152664   0.186   2.505   0.859  0.1209 -1.4574  0.7578
10391TIP3    H252665   0.219   2.446   0.724 -0.3510 -1.3771  0.6045
10392TIP3   OH252666   5.333   5.611  12.826 -0.0680  0.3918  0.1321
10392TIP3    H152667   5.291   5.689  12.791  0.9718  0.4572 -1.0619
10392TIP3    H252668   5.347   5.555  12.750  2.2818  0.5389  0.3643
10393TIP3   OH252669   6.443   6.221   3.952  0.2769 -0.1293  0.5772
10393TIP3    H152670   6.450   6.162   4.027 -0.2437  1.1688  1.6948
10393TIP3    H252671   6.375   6.182   3.897  1.8482 -2.0148 -0.1381
10394TIP3   OH252672   6.706   6.575   0.719  0.4030 -0.6909  0.6190
10394TIP3    H152673   6.743   6.574   0.807  1.0592  0.5206  0.3877
10394TIP3    H252674   6.780   6.597   0.662 -0.0692 -1.1883 -0.1992
10395TIP3   OH252675   5.893   5.417  10.962 -0.2188  0.4154  0.1776
10395TIP3    H152676   5.945   5.380  10.891 -2.5011 -0.8829 -0.9356
10395TIP3    H252677   5.823   5.465  10.918 -0.4822  1.3871  1.5904
10396TIP3   OH252678   1.564   1.254  12.805  0.9086 -0.2334  0.2707
10396TIP3    H152679   1.653   1.288  12.807  0.2788  1.7925 -1.6765
10396TIP3    H252680   1.540   1.254  12.712 -1.1353 -0.6263  0.7382
10397TIP3   OH252681   0.718   1.865  11.730 -0.5601  0.0901  0.1582
10397TIP3    H152682   0.657   1.892  11.798 -2.0664 -2.0906 -0.1933
10397TIP3    H252683   0.805   1.876  11.769 -1.2569  1.3848  1.4197
10398TIP3   OH252684   4.143   3.221   3.190 -0.5687 -0.3126  0.2413
10398TIP3    H152685   4.112   3.161   3.258  1.1714 -0.3731  1.0365
10398TIP3    H252686   4.208   3.170   3.142 -1.6266 -0.1967 -1.3701
10399TIP3   OH252687   4.424   4.263   2.245 -0.2520  0.4637 -0.0601
10399TIP3    H152688   4.453   4.319   2.317  1.9276 -2.5175  1.6529
10399TIP3    H252689   4.343   4.222   2.276  0.4555 -0.4891  0.6045
10400TIP3   OH252690   6.701   4.508   2.633 -0.3465 -0.2277 -0.2066
10400TIP3    H152691   6.786   4.505   2.677 -0.4913 -0.7405  0.0387
10400TIP3    H252692   6.717   4.467   2.548 -0.2774 -0.0514 -0.2784
10401TIP3   OH252693   3.542   3.794  11.071  0.0090 -0.7138  0.2409
10401TIP3    H152694   3.562   3.727  11.137  0.3767 -0.6492  0.1962
10401TIP3    H252695   3.554   3.749  10.987  1.7712 -0.1831  0.1788
10402TIP3   OH252696   2.727   1.054   0.290 -0.4144  0.5560  0.7966
10402TIP3    H152697   2.645   1.035   0.245 -0.6729  0.2042  1.3918
10402TIP3    H252698   2.795   1.038   0.225 -0.6745 -1.5659  0.9517
10403TIP3   OH252699   6.358   1.526   0.697  0.4168 -0.0774  0.3075
10403TIP3    H152700   6.375   1.564   0.610  0.7391  0.2197  0.4992
10403TIP3    H252701   6.296   1.455   0.680  1.0341 -0.4880 -0.2677
10404TIP3   OH252702   1.524   4.326   5.447  0.2082  0.1784 -0.2616
10404TIP3    H152703   1.589   4.295   5.510 -0.6144  1.9229  1.5594
10404TIP3    H252704   1.576   4.372   5.380  0.9442  0.2187  0.3239
10405TIP3   OH252705   0.110   5.112   5.885  0.0322  0.3853  0.3583
10405TIP3    H152706   0.082   5.026   5.915  0.4636 -0.3417 -1.2151
10405TIP3    H252707   0.187   5.132   5.939 -0.3498  0.0210  1.0567
10406TIP3   OH252708   5.770   6.807  13.548 -0.2230 -0.3304 -0.1597
10406TIP3    H152709   5.700   6.863  13.581  0.3959  0.4735 -0.1787
10406TIP3    H252710   5.798   6.756  13.625  1.9777  2.3309  0.9755
10407TIP3   OH252711   3.475   3.170  15.559  0.0684  0.4841 -0.0183
10407TIP3    H152712   3.394   3.164  15.609 -0.1186  0.8933 -0.2616
10407TIP3    H252713   3.500   3.079  15.541  0.1850  0.3309  0.8809
10408TIP3   OH252714   5.152   0.971   4.845  0.1362  0.2896 -0.3155
10408TIP3    H152715   5.191   1.053   4.875 -1.8558  0.3708  2.4179
10408TIP3    H252716   5.164   0.910   4.919  0.6833 -1.6282 -1.8833
10409TIP3   OH252717   0.980   3.720   5.675  0.1726 -0.1267 -0.3497
10409TIP3    H152718   0.918   3.710   5.602  0.4672 -0.8555 -0.5103
10409TIP3    H252719   0.928   3.759   5.745 -0.5340 -0.9030 -0.4171
10410TIP3   OH252720   0.052   6.673   4.517  0.4509 -0.6161 -0.2388
10410TIP3    H152721   0.043   6.749   4.460 -1.1503 -0.1261  0.5958
10410TIP3    H252722  -0.008   6.608   4.479  0.2380 -0.6978  0.2327
10411TIP3   OH252723   1.759   2.710  15.775 -0.2431  0.0029  0.1553
10411TIP3    H152724   1.837   2.744  15.818  0.6851 -0.5524 -1.0295
10411TIP3    H252725   1.739   2.775  15.707 -0.3614 -0.2254 -0.0305
10412TIP3   OH252726   6.520   2.220   4.450  0.2705  0.1628 -0.1765
10412TIP3    H152727   6.546   2.309   4.476  1.4219 -0.2344  0.0768
10412TIP3    H252728   6.583   2.196   4.381 -0.2882 -0.3062 -0.5300
10413TIP3   OH252729   6.224   0.174  15.646  0.4909  0.3166 -0.1110
10413TIP3    H152730   6.293   0.237  15.623  0.0660  0.5070 -0.8919
10413TIP3    H252731   6.245   0.096  15.595 -0.5044  0.7675 -1.2527
10414TIP3   OH252732   2.708   4.723  11.049 -0.0155  0.0788 -0.6561
10414TIP3    H152733   2.747   4.755  11.131  0.1947  0.8190 -1.0383
10414TIP3    H252734   2.660   4.798  11.015 -2.4905 -1.0013  0.1926
10415TIP3   OH252735   5.162   0.005   5.896 -0.3833 -0.0310  0.6598
10415TIP3    H152736   5.153   0.003   5.801  0.2937  0.4080  0.5840
10415TIP3    H252737   5.082  -0.037   5.928  0.2324 -1.9595 -0.1462
10416TIP3   OH252738   6.468   3.049  12.023 -0.0659 -0.1185  0.2236
10416TIP3    H152739   6.442   3.099  11.945 -2.3861  0.7364  1.4317
10416TIP3    H252740   6.428   2.963  12.011 -3.2110  0.9599  1.7298
10417TIP3   OH252741   1.491   3.239  13.183  0.4810 -0.7127  0.0243
10417TIP3    H152742   1.517   3.330  13.171 -0.0291 -0.6557 -0.7583
10417TIP3    H252743   1.428   3.241  13.255  0.3849 -0.4239 -0.0649
10418TIP3   OH252744   3.720   6.609   1.392 -0.0314  0.2386 -0.0832
10418TIP3    H152745   3.735   6.654   1.475  1.6513  0.1546 -0.3156
10418TIP3    H252746   3.655   6.542   1.412  2.4828 -1.7767  1.9303
10419TIP3   OH252747   2.743   0.237   0.890  0.4221 -0.2530 -0.0612
10419TIP3    H152748   2.778   0.202   0.808 -2.3588 -0.9558 -1.0474
10419TIP3    H252749   2.705   0.161   0.934 -2.3504  0.8220 -0.4398
10420TIP3   OH252750   2.220   0.162   2.594  0.0190  0.3084 -0.0039
10420TIP3    H152751   2.291   0.152   2.531 -0.3557 -0.7752 -0.2809
10420TIP3    H252752   2.178   0.245   2.569 -0.1759 -0.1383 -1.2697
10421TIP3   OH252753   1.929   3.572  11.043  0.7989  0.1183  0.1491
10421TIP3    H152754   1.914   3.484  11.008 -0.9115  0.5732 -0.3182
10421TIP3    H252755   2.005   3.562  11.100  0.2667 -1.8070  0.5803
10422TIP3   OH252756   4.915   1.532   4.025 -0.2440  0.0104 -0.4625
10422TIP3    H152757   4.889   1.604   4.083 -1.0839 -0.3191 -0.4270
10422TIP3    H252758   4.941   1.575   3.943  1.8627  0.5657  0.4263
10423TIP3   OH252759   2.859   0.743  13.304  0.0744  0.1389 -0.2917
10423TIP3    H152760   2.842   0.652  13.329 -2.1643  0.2954 -0.9755
10423TIP3    H252761   2.782   0.791  13.335  1.2831  1.8625  0.2070
10424TIP3   OH252762   4.833   1.524  16.886  0.1949 -0.1668 -0.0772
10424TIP3    H152763   4.837   1.440  16.840  0.4443  1.3803 -3.1198
10424TIP3    H252764   4.919   1.532  16.928  0.3363 -1.2348 -0.1415
10425TIP3   OH252765   5.749   1.678   1.651  0.5943  0.1199 -0.3329
10425TIP3    H152766   5.798   1.728   1.585  2.0125 -1.1404 -0.2780
10425TIP3    H252767   5.694   1.618   1.600 -1.7784  2.1943 -0.4296
10426TIP3   OH252768   3.225   6.237  11.315  0.6131  0.2689 -0.4896
10426TIP3    H152769   3.285   6.306  11.288  2.7898 -1.2913  0.0891
10426TIP3    H252770   3.242   6.165  11.255 -1.1466 -0.0184 -0.6820
10427TIP3   OH252771   4.854   5.977   0.143  0.0860 -0.3149 -0.1836
10427TIP3    H152772   4.812   5.897   0.174  1.3649 -0.5618  1.0085
10427TIP3    H252773   4.813   6.047   0.193  0.7417 -0.5090  0.6481
10428TIP3   OH252774   0.147   4.310   6.059  0.1807 -0.2509  0.4127
10428TIP3    H152775   0.089   4.256   6.112 -1.2594  1.3714  0.6177
10428TIP3    H252776   0.205   4.352   6.121  0.8732 -1.0467  0.3170
10429TIP3   OH252777   1.339   4.637  16.744  0.2609  1.0707 -0.2977
10429TIP3    H152778   1.422   4.647  16.791 -1.4682  1.7398  2.9527
10429TIP3    H252779   1.306   4.552  16.773  1.1225 -0.7512 -4.0815
10430TIP3   OH252780   4.314   1.404   2.334  0.2264  0.2223  0.3824
10430TIP3    H152781   4.295   1.443   2.420 -0.5385  0.0833  0.2853
10430TIP3    H252782   4.348   1.477   2.282  3.0832 -0.1944  1.5072
10431TIP3   OH252783   3.499   5.001   6.260  0.2766  0.0947  0.0107
10431TIP3    H152784   3.567   5.068   6.269 -0.0676  0.4222  0.1866
10431TIP3    H252785   3.513   4.964   6.173  0.6824  0.1573  0.0472
10432TIP3   OH252786   4.509   5.775  15.136 -0.3485  0.2501  0.5751
10432TIP3    H152787   4.533   5.712  15.205  0.1864 -0.6415 -0.3916
10432TIP3    H252788   4.498   5.858  15.182 -2.0275 -0.7179  2.0398
10433TIP3   OH252789   3.981   1.740  14.776  0.1834 -0.3363  0.7015
10433TIP3    H152790   4.003   1.660  14.728 -1.3587  0.4736 -1.5268
10433TIP3    H252791   3.888   1.732  14.794 -0.1118  1.1597 -0.0275
10434TIP3   OH252792   2.369   0.894  16.709 -0.7539  0.2822  0.5377
10434TIP3    H152793   2.420   0.964  16.667 -1.3664  1.0033  0.9649
10434TIP3    H252794   2.282   0.901  16.670 -1.7500  1.8733  2.8280
10435TIP3   OH252795   5.893   2.677   2.250  0.5359 -0.4366  0.0553
10435TIP3    H152796   5.953   2.749   2.233 -0.2972 -0.0144 -1.2428
10435TIP3    H252797   5.926   2.636   2.330  2.3028  0.0187 -0.4088
10436TIP3   OH252798   3.271   1.671   2.950 -0.0175 -0.4250 -0.4565
10436TIP3    H152799   3.208   1.683   2.880 -0.3137 -1.1282 -0.3141
10436TIP3    H252800   3.352   1.709   2.916  0.1354 -1.7428 -1.6236
10437TIP3   OH252801   0.391   6.789   3.104 -0.1325 -0.1231 -0.7409
10437TIP3    H152802   0.350   6.758   3.185 -1.4527  1.6710 -0.6613
10437TIP3    H252803   0.317   6.813   3.048  0.7849 -0.1488 -1.9899
10438TIP3   OH252804   4.334   0.132   2.957 -0.1173 -0.3609  0.4891
10438TIP3    H152805   4.368   0.187   2.887  1.3316  0.0960  1.4939
10438TIP3    H252806   4.324   0.046   2.917  0.4699 -0.0589 -0.3341
10439TIP3   OH252807   3.564   3.488  11.220  0.0449  0.6153 -0.0527
10439TIP3    H152808   3.640   3.513  11.167  0.2152 -1.4491 -0.9078
10439TIP3    H252809   3.601   3.441  11.294 -0.3253  1.1776  0.4940
10440TIP3   OH252810   3.803   5.145  12.012  0.0259  0.0861 -0.0576
10440TIP3    H152811   3.804   5.229  12.058  2.5372  1.4271 -2.2373
10440TIP3    H252812   3.806   5.169  11.919  0.2566 -2.4224 -0.7609
10441TIP3   OH252813   1.307   0.564   0.230  0.5094  0.0973  0.2198
10441TIP3    H152814   1.246   0.491   0.230  0.1118  0.4278  0.3154
10441TIP3    H252815   1.389   0.526   0.197  0.4916 -0.5327  0.8791
10442TIP3   OH252816   1.999   6.369  16.907 -0.1194  0.1971  0.0467
10442TIP3    H152817   1.988   6.345  16.999  0.7647  1.0779  0.3927
10442TIP3    H252818   2.092   6.358  16.889 -0.5683 -1.8839 -1.3214
10443TIP3   OH252819   6.114   0.497   6.339 -0.6245 -0.1507  0.0046
10443TIP3    H152820   6.087   0.531   6.254 -1.2178  1.1364  0.6803
10443TIP3    H252821   6.191   0.547   6.362 -0.1862 -0.8220  0.0247
10444TIP3   OH252822   3.576   2.929  16.723 -0.1244 -0.1375  0.3981
10444TIP3    H152823   3.631   2.961  16.651  0.0884  0.6202  0.8792
10444TIP3    H252824   3.639   2.903  16.791 -0.2856 -1.8588 -0.0680
10445TIP3   OH252825   0.655   4.619   1.681 -0.2813 -0.0158 -0.2133
10445TIP3    H152826   0.712   4.647   1.753  1.2131  1.3384 -1.8226
10445TIP3    H252827   0.577   4.673   1.690 -0.5611 -0.5800  0.9504
10446TIP3   OH252828   5.206   5.925   3.797  0.0117 -0.0157 -0.2860
10446TIP3    H152829   5.235   5.840   3.829  0.2944  0.9069  2.1076
10446TIP3    H252830   5.113   5.928   3.820  0.4190  1.0150  1.4600
10447TIP3   OH252831   3.456   5.718  13.103  0.5008  0.2595  0.5482
10447TIP3    H152832   3.520   5.716  13.033  0.1088  0.0094  0.1917
10447TIP3    H252833   3.507   5.716  13.184  0.9363  0.0946  0.2672
10448TIP3   OH252834   2.582   4.259   5.509  1.0475  0.3882  0.8629
10448TIP3    H152835   2.531   4.339   5.496 -0.3417 -0.4504  0.9241
10448TIP3    H252836   2.569   4.236   5.601  1.4520  0.0947  0.8522
10449TIP3   OH252837   4.669   5.982  11.495  0.0970  0.5341 -0.2227
10449TIP3    H152838   4.743   5.965  11.437 -0.1483  2.6124 -1.2367
10449TIP3    H252839   4.663   6.078  11.500 -2.1119  0.4291  0.3538
10450TIP3   OH252840   6.582   1.820  15.994 -0.1952  0.2470 -0.1788
10450TIP3    H152841   6.526   1.785  15.925 -0.8792  1.3344 -0.2084
10450TIP3    H252842   6.549   1.780  16.074 -2.1508  2.0740  0.0237
10451TIP3   OH252843   2.765   1.524   4.763 -0.3010  0.2201 -0.2808
10451TIP3    H152844   2.842   1.472   4.743 -0.9649 -0.4452 -1.1699
10451TIP3    H252845   2.736   1.493   4.848  1.1996  1.4494  0.7338
10452TIP3   OH252846   0.291   5.012   0.673  0.2967 -0.2182 -0.5249
10452TIP3    H152847   0.212   4.983   0.718  1.0363 -0.4712  0.6609
10452TIP3    H252848   0.261   5.042   0.588 -1.6438  3.1658  1.1695
10453TIP3   OH252849   5.371   6.451  16.314 -0.2586 -0.6139  0.1291
10453TIP3    H152850   5.352   6.403  16.234 -1.4968  0.0915 -0.0135
10453TIP3    H252851   5.320   6.531  16.307  0.5015 -0.0211  1.1100
10454TIP3   OH252852   0.948   4.398  12.598 -0.3536  0.6553 -0.0017
10454TIP3    H152853   0.991   4.316  12.572 -1.0374 -0.3822  1.9209
10454TIP3    H252854   0.937   4.390  12.693 -2.8963  1.7988 -0.1327
10455TIP3   OH252855   2.919   5.421  16.074  0.1487  0.0244  0.1803
10455TIP3    H152856   2.840   5.403  16.023  0.3999  2.2883 -1.1646
10455TIP3    H252857   2.989   5.376  16.028 -0.1179 -0.7047  0.4794
10456TIP3   OH252858   5.332   2.946  13.468 -0.4397 -0.1640  0.0906
10456TIP3    H152859   5.338   2.888  13.544 -0.7773 -0.9604 -0.4795
10456TIP3    H252860   5.363   2.894  13.395 -0.5387  0.4500 -0.4008
10457TIP3   OH252861   3.938   4.320  11.462 -0.0780 -0.0293  0.0205
10457TIP3    H152862   3.916   4.365  11.544  0.7182  2.0625 -0.8363
10457TIP3    H252863   4.030   4.295  11.473 -0.8720 -2.8034  1.0215
10458TIP3   OH252864   5.025   4.682   0.105 -0.1876  0.1556  0.4194
10458TIP3    H152865   5.052   4.608   0.159 -0.3670 -0.4669 -0.3187
10458TIP3    H252866   4.930   4.684   0.112 -0.1722  0.4174  0.5640
10459TIP3   OH252867   1.881   5.026  16.832 -0.7304  0.1425  0.4993
10459TIP3    H152868   1.894   5.015  16.926  1.6776  0.6186  0.2883
10459TIP3    H252869   1.899   4.939  16.795 -1.6100 -0.0284  0.4539
10460TIP3   OH252870   1.723   2.544   4.068  0.6809  0.3669  0.3508
10460TIP3    H152871   1.636   2.585   4.067 -0.8875 -2.5480 -2.8756
10460TIP3    H252872   1.783   2.615   4.044 -1.2365  1.8284 -0.4057
10461TIP3   OH252873   4.123   1.277  13.470  0.0412  0.3593 -0.8143
10461TIP3    H152874   4.119   1.362  13.427 -1.8266  1.4511  1.3225
10461TIP3    H252875   4.197   1.285  13.531  1.2714 -0.3889 -2.1634
10462TIP3   OH252876   5.111   6.446   3.976 -0.4259 -0.6880  0.2277
10462TIP3    H152877   5.085   6.535   3.952  2.2300 -0.4465 -2.2515
10462TIP3    H252878   5.161   6.456   4.057  1.9557  0.5713 -1.2799
10463TIP3   OH252879   2.206   1.733   2.534  0.3061 -0.4418 -0.1438
10463TIP3    H152880   2.272   1.668   2.508 -0.3334 -0.7622 -0.9999
10463TIP3    H252881   2.236   1.764   2.619  2.4069  0.5516 -1.1798
10464TIP3   OH252882   0.182   3.949  16.674  0.4924  0.2579  0.1950
10464TIP3    H152883   0.206   4.028  16.625 -1.1199  0.3369 -0.5259
10464TIP3    H252884   0.167   3.883  16.607  1.5938 -0.6294  0.7856
10465TIP3   OH252885   4.066   3.631  14.323  0.2697 -0.5185 -0.0035
10465TIP3    H152886   3.977   3.640  14.290  0.3162 -2.4680 -0.8346
10465TIP3    H252887   4.093   3.719  14.347 -1.7163  0.1618 -0.1616
10466TIP3   OH252888   4.330   0.747   2.203  0.1126  0.9669 -0.2793
10466TIP3    H152889   4.294   0.730   2.290 -0.9376 -0.6660 -0.9840
10466TIP3    H252890   4.349   0.841   2.203 -0.9017  1.2121  1.3222
10467TIP3   OH252891   1.343   0.472   5.884 -0.9852 -0.4554  0.3307
10467TIP3    H152892   1.249   0.482   5.868 -0.6732 -0.6966 -1.8563
10467TIP3    H252893   1.356   0.378   5.890 -0.6416 -0.5213 -1.1661
10468TIP3   OH252894   0.453   1.083   1.673 -0.0162  0.1524 -0.0379
10468TIP3    H152895   0.417   0.995   1.670 -1.3419  0.6458  0.3874
10468TIP3    H252896   0.399   1.133   1.611  1.2997  0.4862 -0.9666
10469TIP3   OH252897   2.248   0.842   0.775 -0.1986 -0.0534  0.7804
10469TIP3    H152898   2.153   0.847   0.762  0.1697  3.1008 -2.3804
10469TIP3    H252899   2.283   0.818   0.689  1.9392  0.1077  1.5338
10470TIP3   OH252900   1.092   0.092   1.751  0.4001  0.5371 -0.0031
10470TIP3    H152901   1.106   0.038   1.673 -0.3630  0.5030 -0.1183
10470TIP3    H252902   1.015   0.055   1.793  0.3219  1.0685  0.3287
10471TIP3   OH252903   3.951   6.380  12.548  0.8499  0.4188 -0.2069
10471TIP3    H152904   3.865   6.361  12.510  1.2077 -0.2632 -0.7030
10471TIP3    H252905   3.997   6.296  12.546  2.2366  1.1433 -1.8314
10472TIP3   OH252906   2.834   0.087   0.664 -0.3760 -0.1896 -0.1548
10472TIP3    H152907   2.844   0.147   0.591  1.1741 -1.9672 -1.5209
10472TIP3    H252908   2.769   0.023   0.635  0.2280 -0.8935 -0.0025
10473TIP3   OH252909   5.548   1.036  11.521  0.2525 -0.0454 -0.3860
10473TIP3    H152910   5.569   1.046  11.428  2.7333  0.9730  0.1956
10473TIP3    H252911   5.615   1.088  11.566 -0.5622 -0.9324  2.0002
10474TIP3   OH252912   1.743   1.151  13.908 -0.1371 -0.2680 -0.2026
10474TIP3    H152913   1.689   1.100  13.847 -0.4807  0.4998 -0.5554
10474TIP3    H252914   1.680   1.194  13.965  0.1550 -0.3087  0.1549
10475TIP3   OH252915   6.620   3.870  11.333 -0.0885  0.5809 -0.1495
10475TIP3    H152916   6.690   3.899  11.392  0.4517  1.0766 -1.0073
10475TIP3    H252917   6.583   3.951  11.298  0.9486  0.3190 -2.0145
10476TIP3   OH252918   2.833   5.523   4.252  0.3731 -0.4967  0.3124
10476TIP3    H152919   2.822   5.481   4.338  0.8128  0.3007  0.7742
10476TIP3    H252920   2.786   5.605   4.259  4.1670  1.8579  1.5186
10477TIP3   OH252921   5.344   6.273  11.834 -0.2880 -0.1049  0.4845
10477TIP3    H152922   5.329   6.248  11.925 -0.6087  1.7106  0.9604
10477TIP3    H252923   5.436   6.297  11.831 -0.4898  0.6931  0.5557
10478TIP3   OH252924   3.110   1.456  11.941  0.4885 -0.1989 -0.1636
10478TIP3    H152925   3.125   1.498  12.026 -0.4564  0.5348 -0.3496
10478TIP3    H252926   3.074   1.370  11.963 -1.2941  0.5889  0.1962
10479TIP3   OH252927   0.724   4.921   5.657 -0.1877 -0.2404  0.0114
10479TIP3    H152928   0.783   4.846   5.647 -2.0675 -1.5027 -2.9275
10479TIP3    H252929   0.637   4.883   5.662 -1.1070  1.7053 -0.0674
10480TIP3   OH252930   6.513   2.100  10.883  0.1736  0.2961 -0.2364
10480TIP3    H152931   6.507   2.037  10.810 -0.5245 -0.6460  0.6004
10480TIP3    H252932   6.463   2.175  10.853 -2.6346 -1.2030  0.3082
10481TIP3   OH252933   1.389   0.340   5.198 -0.3916 -0.4141 -0.0717
10481TIP3    H152934   1.466   0.300   5.237 -0.1488  2.2894  2.4721
10481TIP3    H252935   1.318   0.279   5.218  0.4050 -0.9510  1.2438
10482TIP3   OH252936   3.738   5.615   2.859  0.0904  0.0933 -0.0109
10482TIP3    H152937   3.675   5.557   2.816  0.0020 -0.4185  0.7854
10482TIP3    H252938   3.812   5.619   2.798  0.6159 -1.8329  0.4020
10483TIP3   OH252939   2.043   0.142   3.621 -0.1175  0.3858  0.3074
10483TIP3    H152940   1.964   0.186   3.589  1.4757  1.4405 -2.5276
10483TIP3    H252941   2.010   0.075   3.680 -3.1956  0.4606 -1.1096
10484TIP3   OH252942   5.278   6.325   5.775 -0.2430 -0.3259 -0.1695
10484TIP3    H152943   5.240   6.322   5.687  1.3453  0.7056 -0.9429
10484TIP3    H252944   5.218   6.380   5.825  1.0365  2.9114 -1.8850
10485TIP3   OH252945   6.723   1.135  14.974 -0.5796 -0.0683 -0.4104
10485TIP3    H152946   6.780   1.207  14.949 -0.6434  1.1527  2.5733
10485TIP3    H252947   6.637   1.159  14.939 -0.5257  1.1652  0.2516
10486TIP3   OH252948   5.016   6.674   1.185  0.0012 -0.1071 -0.1193
10486TIP3    H152949   4.997   6.667   1.278 -0.5274  0.6904 -0.1616
10486TIP3    H252950   5.029   6.768   1.170  0.4287 -0.2648 -0.7832
10487TIP3   OH252951   6.086   2.524  15.088 -0.0001  0.2518 -0.2519
10487TIP3    H152952   6.028   2.478  15.149  0.7439 -0.9746 -0.4290
10487TIP3    H252953   6.128   2.591  15.140 -1.5470  1.1726 -0.1152
10488TIP3   OH252954   6.144   1.843  11.152  0.2471 -0.5354  0.6086
10488TIP3    H152955   6.075   1.776  11.149  0.8936 -1.2295  0.9347
10488TIP3    H252956   6.225   1.794  11.139  0.7158  0.2227  0.6366
10489TIP3   OH252957   4.862   5.531   5.377 -0.8343 -0.1348  1.0136
10489TIP3    H152958   4.905   5.463   5.428 -2.2725 -0.6437  1.5787
10489TIP3    H252959   4.930   5.560   5.315  0.0965 -1.3952  1.3928
10490TIP3   OH252960   6.423   4.347   4.973  0.5038  0.7052  0.6400
10490TIP3    H152961   6.391   4.276   5.030  0.3355  0.9698  0.8824
10490TIP3    H252962   6.440   4.419   5.034  0.7275  0.8526  0.4000
10491TIP3   OH252963   2.702   0.352  12.876 -0.2295  0.3643  0.6518
10491TIP3    H152964   2.654   0.429  12.845 -0.0482  0.0029 -0.5681
10491TIP3    H252965   2.789   0.385  12.896 -0.6342  0.7969  1.7796
10492TIP3   OH252966   2.982   2.075  14.791 -0.3174 -0.2863 -0.2963
10492TIP3    H152967   3.003   2.152  14.844 -0.3980 -1.2979  1.2630
10492TIP3    H252968   2.901   2.041  14.829  1.2588 -2.8589  1.0929
10493TIP3   OH252969   3.946   3.756   5.110 -0.4015 -0.2133  0.0487
10493TIP3    H152970   4.025   3.761   5.163  0.3158 -1.8235 -0.7774
10493TIP3    H252971   3.934   3.845   5.076  1.6099 -0.1172 -0.5559
10494TIP3   OH252972   1.020   1.911   2.436  0.2199 -0.3430  0.0128
10494TIP3    H152973   0.999   2.002   2.412  3.7184  0.9745  1.3083
10494TIP3    H252974   1.070   1.877   2.362 -1.3423 -1.4093 -0.6014
10495TIP3   OH252975   2.032   0.812  14.562 -0.3334  0.1776 -0.0482
10495TIP3    H152976   2.104   0.872  14.545 -0.4521  0.3429  0.0271
10495TIP3    H252977   2.032   0.800  14.657 -2.2747  2.5732  0.3581
10496TIP3   OH252978   0.433   0.878   4.839 -0.1088  0.4566 -0.1784
10496TIP3    H152979   0.419   0.784   4.843  0.2646  0.3818 -0.4625
10496TIP3    H252980   0.350   0.917   4.866 -0.5627  0.0450 -0.9326
10497TIP3   OH252981   2.654   6.039   4.241  1.1259 -0.2109  0.2244
10497TIP3    H152982   2.603   6.093   4.302  1.2773 -0.5084  0.6191
10497TIP3    H252983   2.601   6.036   4.162  2.0353  2.2637 -0.5921
10498TIP3   OH252984   6.545   3.120  13.751  0.3272  0.5062 -0.4982
10498TIP3    H152985   6.559   3.049  13.688  1.0250 -1.2935  1.5655
10498TIP3    H252986   6.631   3.136  13.789 -0.1555  1.2845  0.3165
10499TIP3   OH252987   6.515   2.544  15.887 -0.0060  0.2026  0.1054
10499TIP3    H152988   6.426   2.523  15.915 -0.0725 -0.0039 -0.2468
10499TIP3    H252989   6.571   2.488  15.941 -0.2313 -1.7775 -1.5757
10500TIP3   OH252990   1.070   5.678  14.898 -0.2994  0.2461 -0.0229
10500TIP3    H152991   0.990   5.629  14.916 -0.4737 -0.1087 -1.6086
10500TIP3    H252992   1.127   5.616  14.853  0.3527  0.8706 -0.0833
10501TIP3   OH252993   2.056   5.623   5.873  0.5040 -0.2573  0.2479
10501TIP3    H152994   2.060   5.605   5.779  2.6875 -1.1578  0.4418
10501TIP3    H252995   2.141   5.663   5.893 -0.6967  1.8015  1.5256
10502TIP3   OH252996   5.475   6.778   0.279 -0.3969 -0.3982 -0.1192
10502TIP3    H152997   5.516   6.693   0.262  1.6029  0.5226 -0.2238
10502TIP3    H252998   5.530   6.818   0.347 -2.1503  0.2557  0.9784
10503TIP3   OH252999   2.509   4.010   0.233  0.2838 -0.0821  0.2530
10503TIP3    H153000   2.547   3.929   0.198  1.7691 -0.0958  1.7884
10503TIP3    H253001   2.431   3.981   0.280  1.6587 -0.9078  2.1563
10504TIP3   OH253002   5.363   2.003  14.778 -0.3539  0.4036 -0.1715
10504TIP3    H153003   5.385   1.948  14.702 -1.8632  0.0272 -0.3681
10504TIP3    H253004   5.320   1.944  14.839  1.6068  0.5135  1.4125
10505TIP3   OH253005   4.770   1.475  11.263 -0.2905  0.5739  0.0299
10505TIP3    H153006   4.741   1.480  11.172 -1.6020  1.4847  0.4683
10505TIP3    H253007   4.864   1.454  11.257 -0.5291 -0.2451 -1.4933
10506TIP3   OH253008   3.020   5.647  13.893  0.2373  0.3325  0.0492
10506TIP3    H153009   2.968   5.715  13.851 -1.9532 -0.8315  0.7238
10506TIP3    H253010   3.106   5.687  13.906 -0.5763  2.4885 -0.7437
10507TIP3   OH253011   5.371   0.861   4.699 -0.1640  0.6016  0.7792
10507TIP3    H153012   5.345   0.923   4.631  1.3993  0.3754 -0.0657
10507TIP3    H253013   5.296   0.857   4.758 -1.2449  1.4279 -0.4881
10508TIP3   OH253014   0.037   3.164  13.598  0.1319 -0.2437  0.6503
10508TIP3    H153015  -0.049   3.143  13.561  1.1357 -0.3024 -1.8212
10508TIP3    H253016   0.075   3.079  13.619 -0.2897 -0.2262  1.5581
10509TIP3   OH253017   2.289   6.117   0.126  0.6273  0.1642 -0.0868
10509TIP3    H153018   2.223   6.053   0.097 -0.5903  1.2485  0.2261
10509TIP3    H253019   2.344   6.130   0.049 -2.0551  2.3690 -1.8255
10510TIP3   OH253020   2.306   1.365  12.133  0.5037  0.1976 -0.2812
10510TIP3    H153021   2.401   1.376  12.143  0.4077  0.7107  0.1026
10510TIP3    H253022   2.269   1.443  12.174 -0.0602  0.3627 -1.0934
10511TIP3   OH253023   2.891   5.695  13.027 -0.5713 -0.4771 -0.0882
10511TIP3    H153024   2.945   5.638  13.082 -2.1675 -1.0874  0.9325
10511TIP3    H253025   2.950   5.725  12.959  0.3340 -3.5771 -0.8621
10512TIP3   OH253026   2.784   1.911  14.147  0.0473  0.0410 -0.3248
10512TIP3    H153027   2.855   1.850  14.165  2.1867  2.0355 -1.3939
10512TIP3    H253028   2.742   1.925  14.232  1.4075 -0.6801  0.5052
10513TIP3   OH253029   3.608   3.699   4.558  0.3421  0.3082 -0.6648
10513TIP3    H153030   3.550   3.775   4.563 -1.4742 -1.0486  0.5475
10513TIP3    H253031   3.562   3.631   4.608  1.7828 -1.6578 -1.8687
10514TIP3   OH253032   5.356   0.054  11.364 -0.1302  0.2024  0.0284
10514TIP3    H153033   5.407  -0.014  11.409  2.2161  2.1215  0.4857
10514TIP3    H253034   5.276   0.062  11.415 -0.2310 -1.8155  0.2589
10515TIP3   OH253035   1.939   3.365  12.055 -0.5174 -0.2159  0.1977
10515TIP3    H153036   1.855   3.321  12.064  0.0458 -1.0871  1.4067
10515TIP3    H253037   1.988   3.313  11.991 -0.2333 -0.7846  0.8630
10516TIP3   OH253038   4.997   0.668  12.506 -0.0454 -0.3080 -0.5399
10516TIP3    H153039   4.976   0.712  12.589 -1.1934  1.3916 -1.6618
10516TIP3    H253040   5.037   0.585  12.533 -2.1995 -0.7420  1.7441
10517TIP3   OH253041   5.840   0.718   4.170  0.1372  0.5058  0.2663
10517TIP3    H153042   5.874   0.692   4.084  0.1640  0.1074  0.3959
10517TIP3    H253043   5.757   0.761   4.151 -0.2711 -0.3295  0.0952
10518TIP3   OH253044   1.543   0.864   5.648 -0.6548 -0.0401 -0.3422
10518TIP3    H153045   1.562   0.777   5.683 -0.1670 -1.3532 -3.5174
10518TIP3    H253046   1.625   0.913   5.660 -0.0119 -0.9341 -0.9348
10519TIP3   OH253047   3.702   2.278   4.079  0.1773  0.2544 -0.5215
10519TIP3    H153048   3.652   2.233   4.147 -0.3638 -0.0328 -1.0886
10519TIP3    H253049   3.729   2.360   4.118 -1.2762  0.7023 -0.3842
10520TIP3   OH253050   5.616   3.848  16.902  0.5534  0.6722  0.0368
10520TIP3    H153051   5.705   3.838  16.870  0.6628 -0.1930  0.5799
10520TIP3    H253052   5.561   3.841  16.823  0.9985  2.6954 -0.5276
10521TIP3   OH253053   5.604   2.068  10.158 -0.0746 -0.5407  0.0845
10521TIP3    H153054   5.629   2.038  10.071 -1.1036 -0.0984 -0.3815
10521TIP3    H253055   5.618   1.993  10.215  0.5212 -0.8625 -0.4799
10522TIP3   OH253056   3.265   2.900  11.261 -0.2651  0.5524  0.1539
10522TIP3    H153057   3.352   2.878  11.227 -0.1092 -2.7858  2.2812
10522TIP3    H253058   3.281   2.936  11.348 -0.9870  0.7460  0.2144
10523TIP3   OH253059   0.439   6.265  14.746 -0.2029  0.1040  0.0982
10523TIP3    H153060   0.477   6.307  14.668 -0.7490  1.3515  0.4838
10523TIP3    H253061   0.351   6.302  14.753 -1.2185 -2.0753 -0.2672
10524TIP3   OH253062   1.020   1.675  16.698 -0.0647 -0.0754  0.2307
10524TIP3    H153063   1.106   1.662  16.739 -1.1546  1.3040  3.2452
10524TIP3    H253064   1.030   1.756  16.648  0.1640  0.6526  1.4118
10525TIP3   OH253065   5.373   0.593   2.907  0.4869 -0.5537  0.4240
10525TIP3    H153066   5.429   0.666   2.879 -3.6496  3.2420  1.0285
10525TIP3    H253067   5.324   0.570   2.828  0.3492 -1.3218  0.7291
10526TIP3   OH253068   5.014   3.954  10.521 -0.3611  0.6380  0.2637
10526TIP3    H153069   4.946   3.917  10.465  0.8393  0.2956 -1.0297
10526TIP3    H253070   5.009   3.903  10.602 -0.6870 -0.3607 -0.3712
10527TIP3   OH253071   6.722   5.851   6.047  0.2058  0.2047 -0.3018
10527TIP3    H153072   6.749   5.942   6.042  1.0253 -0.0350 -0.2974
10527TIP3    H253073   6.631   5.851   6.017  0.8719  0.7104 -2.4408
10528TIP3   OH253074   3.295   2.175   5.407  0.5073  0.1756 -0.2399
10528TIP3    H153075   3.219   2.141   5.360  0.8960 -0.8128 -0.1914
10528TIP3    H253076   3.342   2.227   5.342  0.5073 -0.3488 -0.6727
10529TIP3   OH253077   0.424   5.131   1.809  0.2948  0.4181 -0.3737
10529TIP3    H153078   0.394   5.153   1.721  0.3621 -1.1092 -0.7984
10529TIP3    H253079   0.437   5.036   1.808  1.5985  0.5349  0.8822
10530TIP3   OH253080   4.169   1.989   3.360 -0.0645  0.2098  0.5055
10530TIP3    H153081   4.100   2.037   3.314 -0.6018  0.4601  1.5532
10530TIP3    H253082   4.205   2.053   3.422  0.8609 -0.0329  0.2294
10531TIP3   OH253083   5.997   2.747   4.461  0.0492  0.1169 -0.3843
10531TIP3    H153084   5.963   2.699   4.386  0.6824 -1.4074  0.2607
10531TIP3    H253085   6.092   2.732   4.458 -0.1928 -3.3826  2.8650
10532TIP3   OH253086   4.160   1.832  12.468  0.0745 -0.7046 -0.4026
10532TIP3    H153087   4.224   1.763  12.483 -0.0881 -0.6117  0.7532
10532TIP3    H253088   4.125   1.814  12.381  0.0965 -2.0156 -0.1513
10533TIP3   OH253089   5.131   2.732  14.849 -0.0966  0.2091  0.6206
10533TIP3    H153090   5.164   2.738  14.939  0.7201 -0.2574  0.3565
10533TIP3    H253091   5.195   2.778  14.796  0.1616 -0.7322  0.0959
10534TIP3   OH253092   5.522   5.762   3.376 -0.4844 -0.2888 -0.3638
10534TIP3    H153093   5.460   5.699   3.339  1.3294 -1.3000 -1.8336
10534TIP3    H253094   5.598   5.710   3.400  0.1806  1.0449  0.5467
10535TIP3   OH253095   0.880   4.018  12.322  0.0509  1.3864  0.7257
10535TIP3    H153096   0.919   3.958  12.385  0.2900 -0.4966 -1.1084
10535TIP3    H253097   0.936   4.012  12.245 -1.5064  1.7923 -0.4960
10536TIP3   OH253098   4.350   4.514  14.655 -0.3584 -0.2501  0.3306
10536TIP3    H153099   4.375   4.530  14.747 -0.4501 -1.1416  0.5162
10536TIP3    H253100   4.292   4.439  14.659 -1.9372  0.8849 -0.2568
10537TIP3   OH253101   5.536   4.460   1.135 -0.3330 -0.0959  0.2021
10537TIP3    H153102   5.513   4.440   1.226 -1.6680  0.0167 -0.0847
10537TIP3    H253103   5.579   4.545   1.140 -0.1914 -0.1935  0.7521
10538TIP3   OH253104   1.215   0.987   1.868  0.4349 -0.2644  0.0690
10538TIP3    H153105   1.292   0.972   1.814 -1.4032 -0.6065 -2.6639
10538TIP3    H253106   1.172   0.902   1.875  0.0138  0.0130  1.0799
10539TIP3   OH253107   2.755   1.204  13.828  0.2317 -0.5594  0.1587
10539TIP3    H153108   2.712   1.242  13.905  0.2262  0.7602 -0.4719
10539TIP3    H253109   2.816   1.272  13.798  0.6552 -1.2797 -0.6689
10540TIP3   OH253110   0.384   2.456  10.925  0.2634  0.0436  0.4674
10540TIP3    H153111   0.442   2.384  10.898  0.9529  0.3712  1.0418
10540TIP3    H253112   0.320   2.463  10.854  1.5201  0.3226 -0.6959
10541TIP3   OH253113   3.601   0.977   0.726 -0.4472 -0.3962 -0.0128
10541TIP3    H153114   3.637   1.025   0.802  0.3558 -0.3998 -0.3811
10541TIP3    H253115   3.532   1.034   0.694 -1.1983 -0.6651  1.0742
10542TIP3   OH253116   3.227   5.492   0.993 -0.5295  0.5359  0.1953
10542TIP3    H153117   3.221   5.586   1.011 -1.5038  0.6106 -0.4103
10542TIP3    H253118   3.146   5.455   1.030  0.3933 -0.2686  1.4980
10543TIP3   OH253119   2.249   4.019  15.442 -0.2389  0.0844  0.3246
10543TIP3    H153120   2.303   4.013  15.363 -1.1883  0.1418 -0.3501
10543TIP3    H253121   2.284   4.095  15.489 -1.6883  2.1226 -1.6640
10544TIP3   OH253122   4.869   5.951  16.704  0.6858 -0.0109  0.1091
10544TIP3    H153123   4.908   5.876  16.749  1.2254 -0.1901 -0.6385
10544TIP3    H253124   4.879   6.023  16.765  1.6699 -0.1863  0.1774
10545TIP3   OH253125   5.021   5.186   4.824  0.0308  0.1719 -0.4572
10545TIP3    H153126   5.099   5.164   4.774  1.2184  1.4174  0.7489
10545TIP3    H253127   5.050   5.185   4.916 -1.0628  1.7199 -0.0419
10546TIP3   OH253128   5.230   3.233   3.143 -0.2422 -0.0503 -0.1409
10546TIP3    H153129   5.145   3.262   3.174 -1.4388  1.0709 -3.9194
10546TIP3    H253130   5.231   3.139   3.161 -1.0511  0.3468  2.3632
10547TIP3   OH253131   2.026   4.588  11.037 -0.1575 -0.1189 -0.0363
10547TIP3    H153132   1.960   4.638  11.085 -0.1006  0.0119 -0.0925
10547TIP3    H253133   2.092   4.567  11.103 -0.4604 -0.6176  0.1142
10548TIP3   OH253134   1.211   6.428   1.238 -0.5267 -0.1280 -0.1311
10548TIP3    H153135   1.127   6.437   1.193 -1.1675  1.7896  1.3077
10548TIP3    H253136   1.192   6.376   1.316 -0.4195  0.4740  0.2994
10549TIP3   OH253137   2.529   5.106   2.734 -0.5553 -0.3014  0.0480
10549TIP3    H153138   2.528   5.015   2.763 -0.3603 -0.0309  0.9320
10549TIP3    H253139   2.620   5.134   2.745 -0.1864 -0.5507 -2.0464
10550TIP3   OH253140   2.674   4.290  11.341 -0.0821 -0.2937 -0.2561
10550TIP3    H153141   2.632   4.295  11.256 -0.1161  0.7210 -0.1853
10550TIP3    H253142   2.688   4.196  11.355  1.3941 -0.3977 -2.0890
10551TIP3   OH253143   1.504   1.474   6.421  0.4188 -0.1657  0.3759
10551TIP3    H153144   1.422   1.471   6.372 -0.2656 -0.4955  1.5022
10551TIP3    H253145   1.571   1.495   6.355 -0.6342  0.6501 -0.4694
10552TIP3   OH253146   3.535   2.109   2.951  0.4469 -0.9007  0.4518
10552TIP3    H153147   3.590   2.175   2.910  0.3408  0.2205  2.0049
10552TIP3    H253148   3.482   2.074   2.879  1.5645 -0.3851 -0.6652
10553TIP3   OH253149   6.015   4.665  11.604  0.8163 -0.2363  0.6069
10553TIP3    H153150   6.036   4.695  11.515  0.4782  0.3932  0.7404
10553TIP3    H253151   5.971   4.581  11.590  0.7899 -0.1569  0.1808
10554TIP3   OH253152   1.715   6.517   3.271  0.3520  0.3575  0.0429
10554TIP3    H153153   1.799   6.547   3.305 -0.1238  0.9750  0.6763
10554TIP3    H253154   1.730   6.508   3.176  0.5534  2.4928 -0.1800
10555TIP3   OH253155   5.270   2.502  14.636 -0.6486 -0.5944 -0.0573
10555TIP3    H153156   5.332   2.468  14.701  0.7823  1.3926 -0.3417
10555TIP3    H253157   5.305   2.475  14.552 -1.0164 -0.7721 -0.1584
10556TIP3   OH253158   6.301   3.860  16.169  0.2118 -0.0277  0.4623
10556TIP3    H153159   6.322   3.884  16.078 -1.9943  1.2908  0.2226
10556TIP3    H253160   6.289   3.765  16.166 -0.3896  0.0632 -0.7888
10557TIP3   OH253161   0.025   1.602  11.632 -0.3730  0.0469 -0.1294
10557TIP3    H153162   0.091   1.533  11.631 -1.4802 -1.1427 -3.0059
10557TIP3    H253163   0.052   1.663  11.563  0.0932  2.0811  1.7501
10558TIP3   OH253164   1.696   1.428  11.758 -0.1618  0.1898  0.2688
10558TIP3    H153165   1.763   1.454  11.821 -0.6875 -0.1934  1.0058
10558TIP3    H253166   1.712   1.335  11.742  0.6770  0.5314 -1.0708
10559TIP3   OH253167   6.609   0.798  11.312 -0.4070 -0.2888  0.0111
10559TIP3    H153168   6.582   0.716  11.270 -0.5883  0.1292 -0.7009
10559TIP3    H253169   6.640   0.852  11.240 -2.7944  1.2818  0.0568
10560TIP3   OH253170   5.026   1.206  13.642 -0.0855  0.3596 -0.0106
10560TIP3    H153171   5.091   1.154  13.595  2.5452  1.7756  1.7596
10560TIP3    H253172   4.979   1.143  13.697  1.1894 -0.4870  0.1433
10561TIP3   OH253173   6.494   0.805   4.787  0.6315  0.1256 -0.1276
10561TIP3    H153174   6.493   0.830   4.879  0.7269  0.5516 -0.2414
10561TIP3    H253175   6.421   0.743   4.778  0.3336  0.4350  0.1333
10562TIP3   OH253176   6.592   0.122  16.541 -0.3906  0.2179 -0.1674
10562TIP3    H153177   6.587   0.211  16.505 -0.6989  0.2419 -0.0694
10562TIP3    H253178   6.667   0.083  16.496  0.7818  1.0553  1.0034
10563TIP3   OH253179   2.140   3.500  15.933  0.7059  0.0497 -0.0431
10563TIP3    H153180   2.158   3.579  15.985  1.7565 -0.8672  1.0355
10563TIP3    H253181   2.050   3.513  15.902  0.2777  0.9681  1.4413
10564TIP3   OH253182   6.145   6.644  12.540  0.1470  0.2401 -0.3369
10564TIP3    H153183   6.171   6.717  12.596  2.0217 -0.9710  0.4634
10564TIP3    H253184   6.151   6.677  12.451  0.0323  1.3315  0.0529
10565TIP3   OH253185   5.791   4.356  15.024  0.3158 -0.0755  0.1191
10565TIP3    H153186   5.793   4.396  14.937  1.1601  1.1165  0.6496
10565TIP3    H253187   5.794   4.430  15.084 -0.2299 -0.8832  1.1755
10566TIP3   OH253188   6.493   5.882  11.122  0.1842 -0.5780  0.0536
10566TIP3    H153189   6.401   5.887  11.094  0.2897  0.1525 -0.1936
10566TIP3    H253190   6.543   5.902  11.043  0.5247  0.0082  0.4081
10567TIP3   OH253191   4.105   1.271  14.658 -0.6943  0.4299  0.2866
10567TIP3    H153192   4.165   1.314  14.597 -0.7978 -2.4364 -2.0494
10567TIP3    H253193   4.018   1.299  14.630 -0.6701  0.3597  0.1393
10568TIP3   OH253194   2.959   2.342   3.078 -0.2340 -0.0653 -0.9044
10568TIP3    H153195   2.959   2.404   3.151  2.1772  0.8351 -1.5547
10568TIP3    H253196   2.877   2.357   3.032 -0.7711  0.9299  0.3259
10569TIP3   OH253197   6.472   5.432  11.717  0.1987  0.2966  0.0319
10569TIP3    H153198   6.437   5.478  11.641 -0.8021 -0.4625  0.0009
10569TIP3    H253199   6.424   5.349  11.719  0.0898  0.3492  1.5559
10570TIP3   OH253200   5.364   3.916  10.861  0.0582 -0.1626  0.1031
10570TIP3    H153201   5.455   3.935  10.841 -0.0912 -0.0923 -0.5367
10570TIP3    H253202   5.314   3.964  10.795 -0.4078 -0.8889 -0.0907
10571TIP3   OH253203   3.472   2.658   5.590  0.6746  0.1343  0.1898
10571TIP3    H153204   3.523   2.604   5.530  0.5568 -0.4181  0.5746
10571TIP3    H253205   3.461   2.603   5.668 -2.1437 -0.5548 -0.5735
10572TIP3   OH253206   0.837   1.131   2.031  0.1267 -0.1975  0.0932
10572TIP3    H153207   0.791   1.204   2.072 -0.3954 -0.2281 -0.4242
10572TIP3    H253208   0.868   1.166   1.947  0.5893 -0.3345  0.2025
10573TIP3   OH253209   5.700   5.320  15.768  0.4139 -0.4025 -0.6032
10573TIP3    H153210   5.774   5.379  15.754  1.1871 -0.8525  1.2539
10573TIP3    H253211   5.678   5.288  15.680  1.2411  1.1274 -1.3999
10574TIP3   OH253212   4.126   6.577  12.486  0.8162  0.7467 -0.0906
10574TIP3    H153213   4.056   6.641  12.470  0.2487  0.0005 -0.7274
10574TIP3    H253214   4.079   6.496  12.508  1.5141  0.4976  0.5167
10575TIP3   OH253215   3.748   6.119  14.523  0.4067  0.6258 -0.4024
10575TIP3    H153216   3.657   6.127  14.551  0.3973 -0.4033 -0.1038
10575TIP3    H253217   3.769   6.027  14.536  1.4724  0.8387 -0.5363
10576TIP3   OH253218   6.396   5.813   2.385 -0.1496 -0.4764 -0.0018
10576TIP3    H153219   6.327   5.875   2.362 -0.8424 -1.1638  0.1716
10576TIP3    H253220   6.398   5.751   2.312  0.0863 -0.6139  0.1202
10577TIP3   OH253221   4.974   4.983   3.968 -0.0593 -0.1800 -0.0660
10577TIP3    H153222   4.950   5.074   3.949  0.7754 -0.0498 -0.5088
10577TIP3    H253223   5.050   4.966   3.914  0.8406 -0.6082  1.2822
10578TIP3   OH253224   3.032   3.744  14.018  0.0881  0.2508  0.5705
10578TIP3    H153225   2.979   3.726  13.940  2.3283 -0.5417 -0.8848
10578TIP3    H253226   2.987   3.700  14.089 -0.5039 -1.5888 -0.8624
10579TIP3   OH253227   5.704   4.756   5.773 -0.2939  0.3467  0.1517
10579TIP3    H153228   5.710   4.716   5.686  1.0735 -1.3418  0.9543
10579TIP3    H253229   5.713   4.682   5.833  0.9778  1.7123  1.7239
10580TIP3   OH253230   1.383   1.053  14.767  0.0361 -0.6949 -0.0310
10580TIP3    H153231   1.317   1.012  14.713 -0.8491 -0.2631  0.6838
10580TIP3    H253232   1.440   0.981  14.796  0.5066 -0.9281 -1.4715
10581TIP3   OH253233   3.751   4.586   3.509  0.2426  0.2064  0.8013
10581TIP3    H153234   3.773   4.496   3.486 -2.2080 -0.6882  1.5991
10581TIP3    H253235   3.805   4.605   3.586  1.5429 -0.1811  0.0014
10582TIP3   OH253236   2.411   4.243   4.282  0.0308  0.9164  0.6892
10582TIP3    H153237   2.453   4.157   4.273 -0.1017  0.9476 -0.3000
10582TIP3    H253238   2.433   4.290   4.201 -0.1410  1.7113  1.0927
10583TIP3   OH253239   1.516   6.226   1.455 -0.1422 -0.6699 -0.4833
10583TIP3    H153240   1.485   6.235   1.365 -1.0642 -1.2520 -0.2354
10583TIP3    H253241   1.547   6.313   1.479 -1.6166 -0.0474 -0.7474
10584TIP3   OH253242   4.530   5.294   2.920  0.2016  0.1343  0.1823
10584TIP3    H153243   4.621   5.280   2.947  0.7684  2.0780 -0.5741
10584TIP3    H253244   4.479   5.240   2.981  1.6461  1.4188  2.7016
10585TIP3   OH253245   4.177   3.820   1.624  0.0483 -0.6020  0.0831
10585TIP3    H153246   4.090   3.831   1.585 -0.6169 -0.8019  1.4651
10585TIP3    H253247   4.162   3.823   1.718  1.3945 -1.7521  0.3711
10586TIP3   OH253248   1.695   2.255   4.058  0.7898  0.1287  0.3124
10586TIP3    H153249   1.685   2.346   4.087  1.9667  0.5427 -0.5043
10586TIP3    H253250   1.769   2.221   4.109 -0.0265 -0.5796  1.0529
10587TIP3   OH253251   5.992   5.091  16.867 -0.2916 -0.4874  0.2590
10587TIP3    H153252   6.038   5.006  16.865 -0.6806 -0.7472  1.6091
10587TIP3    H253253   5.919   5.079  16.806 -0.0130 -0.9326  0.0035
10588TIP3   OH253254   3.290   3.377   4.032  0.3275 -0.3674 -0.4365
10588TIP3    H153255   3.373   3.408   4.068  0.9946  0.2424 -2.3681
10588TIP3    H253256   3.224   3.411   4.092  1.2321  2.5315 -0.9402
10589TIP3   OH253257   1.316   4.377  14.310 -0.4164 -0.1978  0.2184
10589TIP3    H153258   1.371   4.302  14.329 -0.7642 -0.1502  1.5114
10589TIP3    H253259   1.260   4.386  14.387 -0.1871  1.5454  0.2245
10590TIP3   OH253260   4.015   6.347  12.890  0.2642  0.1047 -0.5525
10590TIP3    H153261   3.983   6.437  12.881 -1.7529 -0.5841 -0.8937
10590TIP3    H253262   3.935   6.294  12.890  1.4634 -1.8417 -2.2097
10591TIP3   OH253263   5.175   3.261   3.768 -0.2539  0.0186  0.2125
10591TIP3    H153264   5.197   3.270   3.861 -0.8282 -1.8462  0.5684
10591TIP3    H253265   5.100   3.202   3.767  0.1098 -0.4642 -1.4794
10592TIP3   OH253266   1.463   4.118   0.424  0.0564  0.3530  0.1369
10592TIP3    H153267   1.439   4.154   0.339  1.4577 -1.5979 -1.1616
10592TIP3    H253268   1.379   4.096   0.465 -0.6872 -2.2005 -2.4131
10593TIP3   OH253269   3.628   5.916  15.391 -0.0601 -0.0232 -0.3800
10593TIP3    H153270   3.697   5.936  15.327 -0.9878  0.2307 -1.3382
10593TIP3    H253271   3.575   5.848  15.349 -1.1640  0.7282 -0.2639
10594TIP3   OH253272   6.612   4.564   0.177 -0.4378 -0.0618 -0.3550
10594TIP3    H153273   6.639   4.507   0.249  1.6992  0.9507 -0.2647
10594TIP3    H253274   6.616   4.509   0.099 -0.6654 -0.6184  0.0237
10595TIP3   OH253275   5.384   3.962   1.012 -0.2894  0.1854 -0.1269
10595TIP3    H153276   5.379   4.048   0.971  0.0472  0.7336  0.9268
10595TIP3    H253277   5.367   3.900   0.941  0.2283  1.0846 -1.0691
10596TIP3   OH253278   1.822   4.505  15.948 -0.3595 -0.9115  0.2881
10596TIP3    H153279   1.831   4.537  16.038 -0.1986 -0.1029 -0.0115
10596TIP3    H253280   1.855   4.415  15.952 -0.4141 -0.9065  1.0522
10597TIP3   OH253281   1.658   2.881  11.642  0.4760 -0.1564 -0.5862
10597TIP3    H153282   1.641   2.931  11.562 -0.6090 -1.2626 -1.0820
10597TIP3    H253283   1.573   2.842  11.664  1.0753 -0.9705  0.3342
10598TIP3   OH253284   4.132   3.490   3.829  0.0246 -0.1912 -0.3254
10598TIP3    H153285   4.151   3.402   3.794 -0.8683 -0.1227 -1.0001
10598TIP3    H253286   4.188   3.497   3.907  1.9868 -0.3878 -1.6570
10599TIP3   OH253287   1.631   3.693  10.999  0.2797  0.1874  0.2786
10599TIP3    H153288   1.629   3.715  10.906 -0.8055 -0.2566  0.1763
10599TIP3    H253289   1.647   3.599  11.001  0.6319  0.2504  0.5592
10600TIP3   OH253290   1.775   2.421  15.247 -0.1319  0.1212 -0.0249
10600TIP3    H153291   1.717   2.379  15.310 -1.5268  0.3178 -1.1272
10600TIP3    H253292   1.753   2.514  15.252  1.0607  0.3834  0.5113
10601TIP3   OH253293   4.268   2.457   4.475 -0.3488 -0.2198 -0.3759
10601TIP3    H153294   4.362   2.468   4.461 -0.4652  1.9442  0.2090
10601TIP3    H253295   4.259   2.452   4.571 -0.8215 -0.7422 -0.4406
10602TIP3   OH253296   5.158   2.935   1.737 -0.4671 -0.0350 -0.2663
10602TIP3    H153297   5.172   2.959   1.645 -0.6138  2.7476  0.3647
10602TIP3    H253298   5.240   2.957   1.781  0.4255 -3.3822  0.0173
10603TIP3   OH253299   2.393   0.452   5.935 -0.4552 -0.4551 -0.6396
10603TIP3    H153300   2.391   0.358   5.957 -2.1861 -0.6398 -1.4171
10603TIP3    H253301   2.311   0.486   5.970  0.7805  1.1127  0.8659
10604TIP3   OH253302   2.141   3.906  12.940 -0.1468  0.1497  0.0661
10604TIP3    H153303   2.067   3.961  12.914  0.9454  2.5463  1.6341
10604TIP3    H253304   2.103   3.837  12.994 -1.2978  0.9348  0.2823
10605TIP3   OH253305   2.825   0.767   1.114  0.0384  0.4950 -0.1789
10605TIP3    H153306   2.825   0.681   1.154 -0.1594  0.7534  0.3788
10605TIP3    H253307   2.805   0.750   1.022 -1.2035  0.0497  0.1512
10606TIP3   OH253308   2.380   2.330   6.298 -0.2869 -0.0709 -0.0670
10606TIP3    H153309   2.368   2.324   6.393 -2.0746 -0.7768 -0.2912
10606TIP3    H253310   2.472   2.307   6.284 -0.4038 -1.6550  1.3841
10607TIP3   OH253311   4.562   3.641  14.634 -0.3647  0.0652 -0.1256
10607TIP3    H153312   4.555   3.561  14.687  2.5553 -1.4274 -1.7414
10607TIP3    H253313   4.525   3.617  14.549 -2.1610  1.4681  0.1826
10608TIP3   OH253314   3.994   6.260   4.610 -0.2709  0.2019 -0.3286
10608TIP3    H153315   3.930   6.198   4.575 -0.4422  0.8516 -1.1946
10608TIP3    H253316   4.054   6.205   4.661 -0.8720 -0.5676 -0.4252
10609TIP3   OH253317   4.533   6.040  14.047  0.0653 -0.4342 -0.1230
10609TIP3    H153318   4.550   6.056  13.954 -0.7177 -2.0386 -0.5798
10609TIP3    H253319   4.595   5.972  14.072 -0.0511 -0.3527  0.3988
10610TIP3   OH253320   1.960   4.562  11.953  0.1906 -0.2032  0.2211
10610TIP3    H153321   1.874   4.582  11.990 -0.4742 -2.4987  0.0619
10610TIP3    H253322   1.952   4.586  11.860  0.7666  2.3702  0.7447
10611TIP3   OH253323   5.793   5.766   4.853 -0.3927  0.0940 -0.2578
10611TIP3    H153324   5.795   5.674   4.826  0.1564  0.3817 -1.2406
10611TIP3    H253325   5.845   5.768   4.933 -0.9437 -0.5514  0.1368
10612TIP3   OH253326   2.090   0.667  13.702  0.2268  0.2136  0.3960
10612TIP3    H153327   2.123   0.625  13.622  0.5118  2.6472 -0.8646
10612TIP3    H253328   2.126   0.615  13.773  2.7967 -0.1308 -1.0259
10613TIP3   OH253329   0.064   0.676   4.006 -0.5913 -1.0788 -0.0305
10613TIP3    H153330  -0.025   0.644   4.017 -0.5923 -0.3556  2.8439
10613TIP3    H253331   0.120   0.604   4.035 -0.2681 -1.1537 -0.8168
10614TIP3   OH253332   5.645   0.021   2.808 -0.3590 -0.6865  0.3743
10614TIP3    H153333   5.562  -0.025   2.804 -0.0742 -1.2048 -3.8571
10614TIP3    H253334   5.621   0.114   2.805 -0.7326 -0.6378  2.5777
10615TIP3   OH253335   0.196   2.214  11.838 -0.0627  0.7724  0.5218
10615TIP3    H153336   0.149   2.281  11.888  1.2753  2.6651 -0.6738
10615TIP3    H253337   0.192   2.243  11.747  0.1308 -1.0538 -0.1248
10616TIP3   OH253338   2.604   3.112   4.175  0.4784  0.2366  0.5320
10616TIP3    H153339   2.516   3.134   4.203 -0.5673 -0.4447 -1.9344
10616TIP3    H253340   2.658   3.186   4.204 -1.5368  2.3821 -0.8464
10617TIP3   OH253341   4.786   5.252   3.598  0.7198  0.2352  0.0623
10617TIP3    H153342   4.763   5.262   3.690  1.4986 -0.8076  0.3931
10617TIP3    H253343   4.878   5.278   3.593  0.5404  0.7757 -0.5220
10618TIP3   OH253344   1.282   6.324   6.263  0.4245 -0.4420  1.0501
10618TIP3    H153345   1.196   6.307   6.300  0.4353 -1.4366  0.6523
10618TIP3    H253346   1.322   6.387   6.323  0.1069 -1.3391  2.2325
10619TIP3   OH253347   2.937   6.818  16.674  0.1250  0.0103  0.0435
10619TIP3    H153348   3.017   6.778  16.710 -0.6132 -0.5251  1.1674
10619TIP3    H253349   2.950   6.817  16.580  0.4436 -2.2778  0.0619
10620TIP3   OH253350   0.208   0.339  12.824  0.7102  0.7452 -0.7604
10620TIP3    H153351   0.171   0.424  12.801  1.4002  1.5352  0.8743
10620TIP3    H253352   0.303   0.355  12.832  0.8594 -0.1848 -0.5023
10621TIP3   OH253353   1.193   1.393   2.887 -0.1219  0.1230  0.5268
10621TIP3    H153354   1.246   1.466   2.855  0.9486 -0.2683  1.3666
10621TIP3    H253355   1.107   1.432   2.904 -0.4536  0.5617 -1.8140
10622TIP3   OH253356   5.465   0.244  15.162  0.5703  0.5532  0.6947
10622TIP3    H153357   5.545   0.228  15.111  0.5295  1.6107  0.2668
10622TIP3    H253358   5.397   0.193  15.116  0.3148  2.2920 -0.9944
10623TIP3   OH253359   4.811   4.633   3.888 -0.0641 -0.3166  0.1093
10623TIP3    H153360   4.739   4.572   3.876  0.2606 -0.8912  0.9820
10623TIP3    H253361   4.796   4.672   3.974 -0.6965  1.4490 -0.7495
10624TIP3   OH253362   1.079   3.615   3.293 -0.2379  0.1807  0.0137
10624TIP3    H153363   1.045   3.591   3.379  1.2584 -0.2688  0.5146
10624TIP3    H253364   1.074   3.534   3.242  0.3456  0.0197  0.1970
10625TIP3   OH253365   2.021   6.136  14.301  0.1040  0.5435 -0.1542
10625TIP3    H153366   1.931   6.146  14.332  0.2917  1.1169  0.2275
10625TIP3    H253367   2.015   6.146  14.206 -0.0280  2.2431  0.0015
10626TIP3   OH253368   4.189   3.487   5.608  0.1016 -0.0474 -0.6011
10626TIP3    H153369   4.114   3.429   5.620  0.5682 -0.9246 -1.7342
10626TIP3    H253370   4.167   3.566   5.657 -0.0168 -1.6246  2.0897
10627TIP3   OH253371   2.463   2.123   3.330  0.4824 -0.2437 -0.1258
10627TIP3    H153372   2.552   2.149   3.355  0.0241  1.1926  0.0992
10627TIP3    H253373   2.425   2.088   3.410  0.3194  0.6717  0.2084
10628TIP3   OH253374   6.474   3.639  11.415 -0.1072  0.2184  0.1304
10628TIP3    H153375   6.538   3.633  11.486  1.5003 -0.7216 -1.3285
10628TIP3    H253376   6.492   3.723  11.373 -1.5299  1.1059  1.2147
10629TIP3   OH253377   6.700   6.576   3.288  0.8439  0.3916 -0.1171
10629TIP3    H153378   6.619   6.573   3.339 -0.9848  2.4615 -2.6684
10629TIP3    H253379   6.757   6.634   3.338  0.3800 -0.1761  1.1328
10630TIP3   OH253380   6.586   2.777   2.501  0.1536 -0.3605  0.0630
10630TIP3    H153381   6.605   2.847   2.563  1.2065 -1.1671  0.6900
10630TIP3    H253382   6.595   2.817   2.415  0.5601  0.3211  0.4175
10631TIP3   OH253383   5.325   4.050   4.636 -0.0750  0.3281  0.2294
10631TIP3    H153384   5.267   4.123   4.657  1.7557  1.6976  0.7097
10631TIP3    H253385   5.385   4.085   4.570 -0.9695 -1.6553 -1.7601
10632TIP3   OH253386   5.839   0.409  10.122 -0.8525  0.6378  0.2048
10632TIP3    H153387   5.914   0.468  10.119 -0.1047 -0.2321  0.8734
10632TIP3    H253388   5.772   0.458  10.170 -0.6224  1.3300 -0.1707
10633TIP3   OH253389   0.889   6.507  15.579 -0.0591  0.6496  0.3613
10633TIP3    H153390   0.867   6.600  15.584 -1.7276  0.3110 -0.1829
10633TIP3    H253391   0.891   6.488  15.485  1.3235  0.3400  0.4245
10634TIP3   OH253392   2.108   4.412  16.436 -0.0831 -0.6578 -0.0412
10634TIP3    H153393   2.196   4.376  16.440 -0.0821 -0.6097  0.3795
10634TIP3    H253394   2.109   4.471  16.360  0.5224  0.0796  0.5333
10635TIP3   OH253395   1.731   4.086   3.082 -0.6134  0.2525  0.4815
10635TIP3    H153396   1.663   4.020   3.066 -0.3771 -0.1254  1.0085
10635TIP3    H253397   1.693   4.142   3.150 -0.5186  0.2286  0.5529
10636TIP3   OH253398   3.281   2.052   1.979  0.3739 -0.4600  0.2718
10636TIP3    H153399   3.282   2.052   1.883  1.6796 -0.8285  0.2633
10636TIP3    H253400   3.325   1.970   2.004  4.2956  1.6594  1.1207
10637TIP3   OH253401   0.652   4.247  12.738  0.4931 -0.1384 -0.3655
10637TIP3    H153402   0.737   4.231  12.779  1.5574 -0.2909 -2.4726
10637TIP3    H253403   0.642   4.342  12.739  0.7870 -0.1080 -0.2847
10638TIP3   OH253404   2.487   6.557  11.902  0.4527  0.2717  0.5905
10638TIP3    H153405   2.431   6.480  11.894  0.0372  0.6038  0.2207
10638TIP3    H253406   2.574   6.526  11.880  0.3643 -0.1849  0.8661
10639TIP3   OH253407   0.940   6.518  13.545  0.6306 -0.3202  0.1652
10639TIP3    H153408   1.025   6.555  13.520 -0.0758  1.2829  0.0256
10639TIP3    H253409   0.897   6.497  13.462  0.3626  0.1233  0.1899
10640TIP3   OH253410   2.000   0.544  13.327 -0.0536 -0.6133 -0.4603
10640TIP3    H153411   2.069   0.499  13.277  1.3838  1.4855 -0.4901
10640TIP3    H253412   2.044   0.620  13.365 -1.5356 -1.0747  2.4957
10641TIP3   OH253413   2.099   3.197  15.696 -0.3470  0.5272  0.5914
10641TIP3    H153414   2.029   3.135  15.715  0.3236 -0.5919 -0.4254
10641TIP3    H253415   2.178   3.143  15.690  0.1863  1.3933 -0.7825
10642TIP3   OH253416   4.156   6.298   5.806  0.4123  0.3434  0.2239
10642TIP3    H153417   4.196   6.257   5.883 -0.0497 -0.1606  0.1989
10642TIP3    H253418   4.134   6.387   5.835  2.5658  1.0351 -0.0938
10643TIP3   OH253419   3.971   4.747  13.258 -0.0469  0.5708  0.4045
10643TIP3    H153420   4.044   4.736  13.197 -0.4670 -0.5631  0.0787
10643TIP3    H253421   3.995   4.823  13.311  1.0865  0.5777 -0.0896
10644TIP3   OH253422   5.935   5.872  11.046  0.0810  0.2958 -0.2744
10644TIP3    H153423   5.864   5.808  11.047  1.2062 -0.9920  0.6876
10644TIP3    H253424   5.909   5.939  11.109  0.1471 -0.6983  0.8426
10645TIP3   OH253425   0.442   0.865   3.607  0.6953  0.4721 -0.0628
10645TIP3    H153426   0.486   0.916   3.674  0.5090  1.1060 -0.4085
10645TIP3    H253427   0.509   0.849   3.541  0.5719  0.9039 -0.2972
10646TIP3   OH253428   1.680   3.811  13.833 -0.3373  0.4897 -0.1136
10646TIP3    H153429   1.762   3.839  13.872 -1.0405  1.2611  0.8377
10646TIP3    H253430   1.703   3.733  13.782  1.1024  1.1091 -0.4414
10647TIP3   OH253431   4.100   2.902   2.042 -0.3181  0.1628 -0.2474
10647TIP3    H153432   4.098   2.982   1.989 -0.5013 -0.1932 -0.7875
10647TIP3    H253433   4.178   2.911   2.096 -0.3508  0.7192 -0.2811
10648TIP3   OH253434   4.273   3.340   1.043 -0.2379 -0.5357  0.1697
10648TIP3    H153435   4.246   3.261   0.996  1.1288 -0.3717 -0.9515
10648TIP3    H253436   4.207   3.405   1.019 -0.1710 -0.7558 -0.6512
10649TIP3   OH253437   2.031   2.054   3.459 -0.2332  0.4034  0.3117
10649TIP3    H153438   2.018   2.011   3.544  2.7294 -0.7557  0.3323
10649TIP3    H253439   2.006   1.987   3.395  2.6975 -0.8929  0.3572
10650TIP3   OH253440   6.071   5.705  10.877  0.5929 -0.5717  0.3883
10650TIP3    H153441   6.023   5.764  10.935 -1.4924 -0.2236 -1.5657
10650TIP3    H253442   6.051   5.617  10.909 -0.7157 -0.3914  0.1059
10651TIP3   OH253443   4.099   2.346   5.444 -0.7695  0.4630  0.3940
10651TIP3    H153444   4.096   2.369   5.351 -1.8073  0.3771  0.3934
10651TIP3    H253445   4.101   2.250   5.445 -0.5050  0.4671  0.4637
10652TIP3   OH253446   3.431   6.167  13.496  0.3885  0.7656 -0.0252
10652TIP3    H153447   3.454   6.228  13.425 -0.6387  0.5071 -0.6072
10652TIP3    H253448   3.503   6.104  13.497  0.3039  0.6200 -1.0410
10653TIP3   OH253449   3.338   2.698  14.881  0.0700  0.3124 -0.0882
10653TIP3    H153450   3.423   2.735  14.904  0.0240  1.3240 -1.4341
10653TIP3    H253451   3.316   2.640  14.954  1.7917  0.2228  0.3863
10654TIP3   OH253452   3.244   3.976  10.971 -0.0496 -0.4362  0.4321
10654TIP3    H153453   3.232   4.043  10.905  0.1994 -1.0520 -0.2567
10654TIP3    H253454   3.309   4.012  11.031  0.4577 -0.2715 -0.2143
10655TIP3   OH253455   5.914   6.372   3.870 -0.2873 -0.0713 -0.4178
10655TIP3    H153456   5.993   6.426   3.881 -1.0602  0.8066  1.2727
10655TIP3    H253457   5.945   6.292   3.829  1.7650 -0.3592  1.4981
10656TIP3   OH253458   0.354   0.655  13.608  0.5619 -0.0921  0.7378
10656TIP3    H153459   0.378   0.623  13.521 -0.9360  0.2558  0.1622
10656TIP3    H253460   0.330   0.746  13.593  0.7937  0.1219  1.6307
10657TIP3   OH253461   2.309   0.924   5.330 -0.1362 -0.2155 -0.0925
10657TIP3    H153462   2.389   0.933   5.280 -0.0880 -0.5219 -0.0766
10657TIP3    H253463   2.255   0.862   5.279  0.3709 -1.4144  0.7666
10658TIP3   OH253464   5.682   1.719   5.300 -0.5157  0.0018 -0.5082
10658TIP3    H153465   5.605   1.664   5.288  0.7476 -1.6766 -1.4019
10658TIP3    H253466   5.675   1.751   5.390 -2.4426  0.2415 -0.7124
10659TIP3   OH253467   4.879   2.950  17.161 -0.1644 -0.4794 -0.1261
10659TIP3    H153468   4.956   2.923  17.111  0.6377  0.4314  0.5666
10659TIP3    H253469   4.814   2.973  17.095  0.8795  0.7362 -0.7680
10660TIP3   OH253470   2.816   5.680  17.008  0.7103  1.2156  0.0668
10660TIP3    H153471   2.858   5.741  17.068  0.0704  0.9595  0.8008
10660TIP3    H253472   2.859   5.596  17.025  1.2130  1.3407 -0.5518
10661TIP3   OH253473   1.826   4.449   0.401 -0.2157 -0.0397  0.3333
10661TIP3    H153474   1.740   4.477   0.369 -0.2213  0.4229  0.7350
10661TIP3    H253475   1.825   4.471   0.494  0.5085  0.3904  0.2479
10662TIP3   OH253476   0.928   0.505  13.121  0.0906 -0.0981 -0.0958
10662TIP3    H153477   1.017   0.535  13.099  0.2800 -0.9038 -0.4642
10662TIP3    H253478   0.893   0.573  13.178  0.7028  0.5632 -0.4911
10663TIP3   OH253479   5.939   1.589   4.896 -0.1641  0.2455  0.0688
10663TIP3    H153480   5.925   1.540   4.815 -0.5814 -1.5263  1.1524
10663TIP3    H253481   5.866   1.564   4.952  0.8842  0.3036  1.5221
10664TIP3   OH253482   5.218   1.366  13.214 -0.5389 -0.4753  0.0325
10664TIP3    H153483   5.151   1.312  13.174  0.2742 -1.2761 -0.2825
10664TIP3    H253484   5.283   1.303  13.246  0.0812  0.2844  0.2928
10665TIP3   OH253485   1.295   6.705   5.993 -0.0218  0.0029 -0.3510
10665TIP3    H153486   1.234   6.633   6.009  1.5080 -0.9030  2.0033
10665TIP3    H253487   1.366   6.690   6.055  0.2147  3.8100  0.5151
10666TIP3   OH253488   2.823   4.139  14.243  0.4224 -0.4678 -0.0492
10666TIP3    H153489   2.822   4.060  14.190  0.1236 -0.2398 -0.3881
10666TIP3    H253490   2.733   4.173  14.238  0.7534  0.3531 -0.6096
10667TIP3   OH253491   4.371   4.638   0.908  0.1373  0.2872 -0.2913
10667TIP3    H153492   4.457   4.675   0.926 -0.8674  1.6925  2.0517
10667TIP3    H253493   4.326   4.707   0.858  0.0277 -0.0278 -0.6322
10668TIP3   OH253494   0.763   3.035   3.529  0.0068  0.0796 -0.0510
10668TIP3    H153495   0.843   3.023   3.581  1.2915  2.8292 -1.1785
10668TIP3    H253496   0.788   3.009   3.440  0.6056  3.3706 -0.9687
10669TIP3   OH253497   5.245   3.822   5.338  0.0638 -0.1709  0.5886
10669TIP3    H153498   5.227   3.915   5.348 -0.4935 -0.2476  0.3464
10669TIP3    H253499   5.254   3.810   5.243 -1.4144 -0.6246  0.4757
10670TIP3   OH253500   2.995   2.313   1.707 -0.0137  0.0204  0.3466
10670TIP3    H153501   3.024   2.240   1.652 -2.9028 -1.0253  0.0217
10670TIP3    H253502   2.902   2.297   1.720 -1.0433  4.1904 -0.5059
10671TIP3   OH253503   0.567   5.927   1.208  0.5296  0.1226 -0.6303
10671TIP3    H153504   0.646   5.887   1.172  0.3348 -0.7841 -0.0759
10671TIP3    H253505   0.513   5.945   1.131  1.0133  0.1781 -0.9614
10672TIP3   OH253506   1.084   3.094   3.389 -0.1498  0.0940 -0.1238
10672TIP3    H153507   1.164   3.146   3.382  0.8770 -1.4497 -0.3056
10672TIP3    H253508   1.076   3.075   3.482  0.2490 -0.5441 -0.2099
10673TIP3   OH253509   2.644   1.073   2.627  0.6522  0.8055  0.0627
10673TIP3    H153510   2.643   1.129   2.550  0.1642  0.7144  0.0012
10673TIP3    H253511   2.553   1.071   2.657  0.9027  1.1719  0.8830
10674TIP3   OH253512   2.271   2.395  13.887  0.3626 -0.2622  0.3405
10674TIP3    H153513   2.306   2.475  13.847 -1.3019  0.1218 -0.4382
10674TIP3    H253514   2.320   2.324  13.846  2.0355  0.3189  1.2076
10675TIP3   OH253515   0.660   1.590  14.336 -0.3089 -0.4507 -0.0789
10675TIP3    H153516   0.700   1.677  14.341 -0.5645 -0.2938 -0.7236
10675TIP3    H253517   0.660   1.568  14.243  0.0931 -1.3063  0.1113
10676TIP3   OH253518   2.996   2.290   0.746 -0.2785 -0.1895 -0.0960
10676TIP3    H153519   3.048   2.248   0.815 -0.0190  1.7914  0.9867
10676TIP3    H253520   3.061   2.328   0.687 -0.4904  0.5789  0.1601
10677TIP3   OH253521   3.836   0.820   0.905  0.4882 -0.0231 -0.3328
10677TIP3    H153522   3.762   0.851   0.958  0.6879  1.2654 -0.7605
10677TIP3    H253523   3.904   0.800   0.970  0.3021  0.3192 -0.0249
10678TIP3   OH253524   1.742   5.329  13.396 -0.5990  0.4749  0.2602
10678TIP3    H153525   1.692   5.304  13.318 -0.6123  0.3815  0.2992
10678TIP3    H253526   1.781   5.247  13.427  1.0373  0.7970 -0.7808
10679TIP3   OH253527   3.323   1.021  16.441  0.2364 -0.4731 -0.0558
10679TIP3    H153528   3.409   0.979  16.447 -0.9357 -3.0045  0.2198
10679TIP3    H253529   3.340   1.112  16.465  3.0544 -0.5272 -1.4154
10680TIP3   OH253530   4.359   1.941   2.843  0.5033 -0.1310 -0.4827
10680TIP3    H153531   4.400   1.890   2.773 -1.1390 -0.2327 -1.4408
10680TIP3    H253532   4.268   1.950   2.815  0.1574  1.1458  0.9258
10681TIP3   OH253533   1.487   4.846  17.191 -0.2301 -0.1946  0.0131
10681TIP3    H153534   1.572   4.805  17.175  0.1121  0.5155 -0.0261
10681TIP3    H253535   1.506   4.920  17.249 -0.6823  0.5126 -0.7117
10682TIP3   OH253536   0.060   3.220   2.216  0.1231 -0.0947 -0.3889
10682TIP3    H153537   0.021   3.218   2.129  0.7983  1.7020 -0.7667
10682TIP3    H253538   0.037   3.306   2.251 -0.2658 -0.8371  1.2890
10683TIP3   OH253539   6.497   1.253  13.916  0.1207  0.3367 -0.4952
10683TIP3    H153540   6.454   1.331  13.881  0.4958  0.8860  0.2241
10683TIP3    H253541   6.545   1.285  13.993  0.5502 -0.5436 -0.3815
10684TIP3   OH253542   6.827   0.254   1.596 -0.3285 -0.1968 -0.3529
10684TIP3    H153543   6.796   0.240   1.685 -0.9717 -1.9480 -0.8080
10684TIP3    H253544   6.886   0.181   1.579  1.1135  1.0188 -0.8276
10685TIP3   OH253545   4.078   0.118   4.147 -0.1877  0.0941  0.5351
10685TIP3    H153546   3.985   0.128   4.165 -0.0693  0.4060  1.0013
10685TIP3    H253547   4.103   0.036   4.190 -0.5597 -0.7820 -0.8755
10686TIP3   OH253548   3.374   0.398  17.115  0.0981 -0.3300 -0.5917
10686TIP3    H153549   3.299   0.406  17.175  1.0984  1.9076  0.4748
10686TIP3    H253550   3.449   0.428  17.166  1.2267  0.3940 -2.5622
10687TIP3   OH253551   2.372   0.169  13.423 -0.1063 -0.0000 -0.0290
10687TIP3    H153552   2.381   0.208  13.337  0.3273  1.4443  0.6389
10687TIP3    H253553   2.349   0.242  13.481 -0.5145 -0.9486  1.0594
10688TIP3   OH253554   1.459   2.048  15.901 -0.6215 -0.0118 -0.9473
10688TIP3    H153555   1.419   2.110  15.962 -0.7322 -0.0823 -0.9461
10688TIP3    H253556   1.500   1.983  15.957  0.5008  0.6853 -0.9407
10689TIP3   OH253557   4.837   4.074  17.051 -0.4872  0.2907  0.5182
10689TIP3    H153558   4.816   4.168  17.046  0.8260  0.5499 -1.1922
10689TIP3    H253559   4.770   4.032  16.998 -0.8317  0.3111  0.9370
10690TIP3   OH253560   5.449   6.395  14.306  1.0204 -0.3083  0.5617
10690TIP3    H153561   5.527   6.391  14.250 -0.3207  0.0213 -1.4149
10690TIP3    H253562   5.424   6.487  14.304  0.4625 -0.4489  1.0159
10691TIP3   OH253563   0.967   6.294   1.606 -0.3063  0.4188  0.3831
10691TIP3    H153564   0.992   6.210   1.566  0.3223  0.5512  0.4860
10691TIP3    H253565   1.026   6.358   1.566 -0.7626  0.8076  0.3300
10692TIP3   OH253566   2.033   2.599  11.181 -0.1065 -0.0196  0.1401
10692TIP3    H153567   2.123   2.628  11.171 -0.3933  0.9908  0.3368
10692TIP3    H253568   2.039   2.511  11.218  0.7902  0.4154  1.0733
10693TIP3   OH253569   5.877   4.912   0.037 -0.0444 -0.3674 -0.0149
10693TIP3    H153570   5.869   4.868   0.121  0.8373 -0.9009 -0.1909
10693TIP3    H253571   5.945   4.978   0.051 -2.5852  2.3206  0.7734
10694TIP3   OH253572   3.950   0.073   1.062  0.3505 -0.3064 -0.2966
10694TIP3    H153573   3.894   0.065   1.140  1.0981  0.9771  0.3951
10694TIP3    H253574   3.997   0.155   1.074  0.8114 -0.3052 -1.9098
10695TIP3   OH253575   6.138   5.800  12.315  0.0118 -0.3925  0.1732
10695TIP3    H153576   6.184   5.852  12.248  0.8411 -0.3439  0.7697
10695TIP3    H253577   6.207   5.768  12.372 -0.5197 -1.9191 -0.0035
10696TIP3   OH253578   2.417   5.927  11.157 -0.4916 -0.4650  0.1490
10696TIP3    H153579   2.405   5.974  11.239  0.8123  0.5661 -0.2158
10696TIP3    H253580   2.491   5.869  11.174 -0.8705 -0.9993  0.0027
10697TIP3   OH253581   0.000   1.877  17.071 -0.0438 -0.1072  0.3781
10697TIP3    H153582   0.073   1.931  17.040 -0.1458  0.4336  1.0678
10697TIP3    H253583   0.030   1.843  17.155 -0.3742 -0.3228  0.4098
10698TIP3   OH253584   6.485   4.994   2.103 -0.0149 -0.1048  0.7904
10698TIP3    H153585   6.500   4.923   2.040  0.1428 -2.2135  3.0726
10698TIP3    H253586   6.565   4.999   2.154 -0.6280  0.5835  1.7313
10699TIP3   OH253587   0.330   2.092   0.761  0.4366 -0.1535  0.4355
10699TIP3    H153588   0.426   2.097   0.759  0.4395 -0.1369  0.6317
10699TIP3    H253589   0.311   2.011   0.808  0.3421  0.4433  1.4453
10700TIP3   OH253590   3.673   3.330  15.669 -0.6212 -0.1725 -0.5118
10700TIP3    H153591   3.623   3.275  15.608 -0.3230 -0.6242 -0.3589
10700TIP3    H253592   3.710   3.399  15.615 -0.3610 -0.5693 -0.8476
10701TIP3   OH253593   3.090   5.200   2.643 -0.0464  0.4410  0.0402
10701TIP3    H153594   3.168   5.214   2.698  0.2636 -1.3186  0.0867
10701TIP3    H253595   3.080   5.105   2.639  0.2480  0.4405 -3.3577
10702TIP3   OH253596   6.722   2.878  11.020  0.2831 -0.7290 -0.1317
10702TIP3    H153597   6.673   2.960  11.012  0.5769 -0.7095 -2.4329
10702TIP3    H253598   6.811   2.901  10.992  0.5609 -1.6666 -0.0438
10703TIP3   OH253599   3.876   4.514  16.596 -0.0417 -0.0454  0.3903
10703TIP3    H153600   3.835   4.563  16.526 -1.7319  0.8282  1.9080
10703TIP3    H253601   3.865   4.422  16.571  2.0784  0.2113 -1.8852
10704TIP3   OH253602   0.537   6.591  13.547  0.1758  0.0596 -0.0949
10704TIP3    H153603   0.579   6.510  13.520 -2.0952 -0.6539 -1.7333
10704TIP3    H253604   0.496   6.626  13.468 -0.4395  1.8597  0.9357
10705TIP3   OH253605   5.996   4.543  11.991 -0.6126  0.4040 -0.1185
10705TIP3    H153606   6.013   4.626  11.945 -0.1410  0.3453 -0.0533
10705TIP3    H253607   6.024   4.560  12.081  0.5528 -0.1758 -0.3546
10706TIP3   OH253608   4.982   2.274   3.623  0.0968  0.4843  0.5722
10706TIP3    H153609   4.908   2.249   3.679 -0.0423 -2.7542 -0.8501
10706TIP3    H253610   4.996   2.366   3.642 -2.0763  0.3616  3.4444
10707TIP3   OH253611   2.164   5.446  11.773 -0.1126 -0.2092 -0.0912
10707TIP3    H153612   2.166   5.405  11.860  3.3593 -0.6685 -0.2642
10707TIP3    H253613   2.099   5.395  11.724 -1.6426 -0.3764  1.9558
10708TIP3   OH253614   2.026   3.062   3.886  0.4887  0.2973  0.0235
10708TIP3    H153615   2.070   2.979   3.869  1.5341  0.6746  0.7950
10708TIP3    H253616   2.058   3.121   3.818 -1.1878 -0.2140 -1.2859
10709TIP3   OH253617   5.343   4.820  15.667 -0.4434  0.1365 -0.0580
10709TIP3    H153618   5.428   4.796  15.704 -0.8939  0.9243  1.6365
10709TIP3    H253619   5.363   4.883  15.599  0.4047 -0.8568 -0.7536
10710TIP3   OH253620   3.132   1.500  16.895  0.0587 -0.3714  0.1002
10710TIP3    H153621   3.048   1.454  16.902 -0.7091  1.2142  2.4586
10710TIP3    H253622   3.178   1.476  16.975  1.1720  0.1288 -0.3753
10711TIP3   OH253623   4.699   3.802  16.412 -0.4227  0.0013  0.9832
10711TIP3    H153624   4.646   3.823  16.489 -0.3744 -1.0709  1.3384
10711TIP3    H253625   4.768   3.745  16.447  2.2254  2.8994  0.9295
10712TIP3   OH253626   6.534   0.206  15.714 -0.3541 -0.3234 -0.2708
10712TIP3    H153627   6.523   0.300  15.699  0.6284 -0.0093  0.7857
10712TIP3    H253628   6.486   0.189  15.795 -0.1126 -0.6269 -0.1911
10713TIP3   OH253629   4.090   1.779   0.486 -0.3571  0.6287  0.3234
10713TIP3    H153630   4.009   1.822   0.513 -0.0784  1.2968  0.1059
10713TIP3    H253631   4.155   1.849   0.486 -0.0778  0.3759 -0.8627
10714TIP3   OH253632   2.607   5.074  14.465  0.3376  0.5376 -0.7453
10714TIP3    H153633   2.531   5.016  14.454 -0.7990  1.7710  0.2735
10714TIP3    H253634   2.586   5.126  14.543  2.0621  1.1963 -0.6815
10715TIP3   OH253635   2.873   4.944  12.370 -0.1193 -0.0317 -0.4647
10715TIP3    H153636   2.943   4.883  12.394 -1.8284 -1.9307  0.0999
10715TIP3    H253637   2.822   4.897  12.303 -1.7609  0.5617  0.3034
10716TIP3   OH253638   6.349   2.011   0.937  0.3590 -0.0286  0.1532
10716TIP3    H153639   6.263   1.969   0.931  0.1650  0.3753  0.0888
10716TIP3    H253640   6.348   2.058   1.021  0.0803  0.9263 -0.3694
10717TIP3   OH253641   6.083   1.906   1.774 -0.4362  0.2208 -0.4900
10717TIP3    H153642   6.041   1.853   1.841 -0.0677 -0.2846 -0.6500
10717TIP3    H253643   6.156   1.949   1.819  1.7654 -2.5053 -1.1501
10718TIP3   OH253644   5.413   5.519   0.113  0.1085  0.2443  0.0615
10718TIP3    H153645   5.470   5.466   0.056  1.0708  0.4573  0.7900
10718TIP3    H253646   5.332   5.468   0.119  0.8553 -0.9567  0.4002
10719TIP3   OH253647   6.465   2.098  11.404  0.2768  0.1654 -0.1849
10719TIP3    H153648   6.430   2.037  11.340  0.2773  0.1526 -0.1728
10719TIP3    H253649   6.411   2.177  11.395  0.2397  0.1430 -0.1610
10720TIP3   OH253650   1.170   0.230  14.246  0.1398  0.0472  0.0165
10720TIP3    H153651   1.235   0.211  14.178  0.4110  1.5496 -0.1801
10720TIP3    H253652   1.086   0.224  14.201  0.0903 -1.9568  0.2835
10721TIP3   OH253653   4.149   1.860   4.068 -0.2840  0.5534  0.0482
10721TIP3    H153654   4.184   1.775   4.040 -0.4605  0.4497  0.1457
10721TIP3    H253655   4.055   1.845   4.079  0.0413 -0.0031  2.8427
10722TIP3   OH253656   0.986   4.900  13.946 -0.3358 -0.0522 -0.1992
10722TIP3    H153657   0.987   4.995  13.951 -1.6825 -0.0325  0.0516
10722TIP3    H253658   1.057   4.878  13.885 -0.5988  1.1515 -0.9641
10723TIP3   OH253659   2.742   2.433   1.810 -0.6978  0.3370 -0.0194
10723TIP3    H153660   2.652   2.450   1.838 -1.0794 -0.6376 -0.6101
10723TIP3    H253661   2.784   2.519   1.809 -1.3584  0.7012  1.1369
10724TIP3   OH253662   2.960   2.620  11.632  0.2677  0.1516  0.5168
10724TIP3    H153663   3.020   2.652  11.565  0.1188  1.8412  1.1381
10724TIP3    H253664   3.010   2.555  11.680  1.5431  1.3346  0.8557
10725TIP3   OH253665   2.632   3.489  16.748 -0.1747  0.1655  0.7180
10725TIP3    H153666   2.623   3.543  16.826 -0.1658 -1.0306  1.5668
10725TIP3    H253667   2.722   3.458  16.750 -0.2675 -0.1310  0.4078
10726TIP3   OH253668   3.030   0.834  13.603 -0.3693  0.1760 -0.3017
10726TIP3    H153669   2.955   0.880  13.564 -2.4572 -2.6374  0.0150
10726TIP3    H253670   3.002   0.815  13.693 -0.9380 -3.8431 -1.1044
10727TIP3   OH253671   2.679   0.071  13.183 -0.6439  0.1115  0.0617
10727TIP3    H153672   2.726   0.065  13.100 -0.6507 -0.8931  0.1175
10727TIP3    H253673   2.600   0.121  13.163 -0.2293  0.6199 -0.3334
10728TIP3   OH253674   3.606   5.389  16.689 -0.4532  0.9343  0.3792
10728TIP3    H153675   3.673   5.449  16.655  1.3691 -0.2933  1.6478
10728TIP3    H253676   3.609   5.402  16.783 -1.8657  0.6534  0.4772
10729TIP3   OH253677   1.270   5.584  13.061  0.9237 -0.6854 -0.5084
10729TIP3    H153678   1.276   5.662  13.006 -1.7218 -0.0341  0.0135
10729TIP3    H253679   1.307   5.514  13.008  2.1542  0.6586 -1.4923
10730TIP3   OH253680   6.526   1.206   4.980  0.5577  0.6671 -0.3314
10730TIP3    H153681   6.481   1.201   4.896 -0.6582  0.7015  0.2863
10730TIP3    H253682   6.537   1.115   5.007  2.0324  0.6111 -1.0619
10731TIP3   OH253683   0.166   4.358  11.336 -0.4758 -0.0735 -0.0515
10731TIP3    H153684   0.135   4.327  11.251 -0.4336 -0.3578  0.0347
10731TIP3    H253685   0.115   4.308  11.400  0.7649 -1.1985  0.0958
10732TIP3   OH253686   4.969   2.689  11.205 -0.2260  0.4445 -0.0351
10732TIP3    H153687   4.888   2.699  11.156  0.5029 -0.1919 -1.4422
10732TIP3    H253688   5.014   2.616  11.163  1.3183  1.1300  0.3292
10733TIP3   OH253689   5.616   5.339  17.160 -0.0855 -0.8453 -0.0121
10733TIP3    H153690   5.617   5.343  17.065  1.6585  0.9662  0.0225
10733TIP3    H253691   5.685   5.277  17.182 -0.3976 -1.1606  0.0895
10734TIP3   OH253692   4.837   3.487  10.432  0.3989  0.1197 -0.2767
10734TIP3    H153693   4.769   3.481  10.499  1.5412  0.1028  0.9376
10734TIP3    H253694   4.868   3.397  10.421  0.4947  0.1804 -0.5113
10735TIP3   OH253695   5.036   2.490  11.623 -0.1705 -0.0279 -0.5218
10735TIP3    H153696   5.103   2.520  11.684 -0.4164 -0.7211  0.1002
10735TIP3    H253697   5.067   2.405  11.593 -0.2850  0.0994 -1.0137
10736TIP3   OH253698   0.317   2.803  13.176  0.0950  0.2560 -0.0510
10736TIP3    H153699   0.301   2.708  13.175  0.2911  0.2184 -1.1063
10736TIP3    H253700   0.286   2.833  13.091  0.3921  1.0894  0.1263
10737TIP3   OH253701   2.892   1.717   2.787 -0.2728 -0.4120  0.4397
10737TIP3    H153702   2.808   1.695   2.749  0.3283  0.6454 -1.6629
10737TIP3    H253703   2.872   1.779   2.857 -1.2373 -0.1436 -0.0658
10738TIP3   OH253704   1.445   0.847   2.546  0.2956 -0.1576  0.1856
10738TIP3    H153705   1.467   0.940   2.550  0.7021 -0.1915 -0.9088
10738TIP3    H253706   1.450   0.817   2.637 -3.8415  1.7467  1.3016
10739TIP3   OH253707   0.030   4.760  16.802  0.0612 -0.1734 -1.1157
10739TIP3    H153708   0.012   4.756  16.708  0.7788  1.6019 -1.3709
10739TIP3    H253709   0.117   4.800  16.808 -0.2900  0.4191  0.3101
10740TIP3   OH253710   3.918   3.773   1.933  0.1211 -0.0332  0.2576
10740TIP3    H153711   3.955   3.685   1.934 -0.1066 -0.2102 -1.9309
10740TIP3    H253712   3.987   3.827   1.894 -0.2736  0.4743  0.2571
10741TIP3   OH253713   2.354   6.337   1.395  0.5091 -0.6697  0.2793
10741TIP3    H153714   2.341   6.361   1.303  0.8158 -1.0451  0.1347
10741TIP3    H253715   2.443   6.302   1.398  0.9267  0.4150  0.9485
10742TIP3   OH253716   6.184   5.072   4.968  0.1488  0.3149 -0.3910
10742TIP3    H153717   6.248   5.114   4.911 -1.1216  1.8564 -0.7557
10742TIP3    H253718   6.130   5.019   4.909 -0.5082  1.0770 -0.4906
10743TIP3   OH253719   2.512   1.273   5.315 -0.1322 -0.1582  0.2147
10743TIP3    H153720   2.476   1.257   5.402 -0.0446  1.3758  0.5623
10743TIP3    H253721   2.443   1.318   5.268  0.3552  0.3502 -0.0184
10744TIP3   OH253722   4.241   2.063   6.017  0.6935 -1.0010 -0.8355
10744TIP3    H153723   4.203   2.151   6.021  0.3598 -1.0940 -1.8039
10744TIP3    H253724   4.266   2.052   5.926  0.3155 -2.1004 -0.8160
10745TIP3   OH253725   2.685   0.402   3.645  0.4148  0.2351  0.5850
10745TIP3    H153726   2.677   0.306   3.641  1.3037  0.1345  1.0023
10745TIP3    H253727   2.652   0.432   3.561 -0.8609 -0.3644  0.8339
10746TIP3   OH253728   5.321   1.307  16.062  0.0052  0.3752 -0.3408
10746TIP3    H153729   5.339   1.219  16.095  3.1270  1.3558  1.0018
10746TIP3    H253730   5.370   1.312  15.979 -0.8265  0.6012 -0.8265
10747TIP3   OH253731   3.921   5.270  16.482  0.6097 -0.2367  0.0187
10747TIP3    H153732   3.870   5.351  16.495  3.3428  1.7891 -0.9317
10747TIP3    H253733   3.914   5.252  16.388  0.0087 -1.1609  0.2275
10748TIP3   OH253734   6.067   1.057   1.382 -0.0262  0.1154 -0.2011
10748TIP3    H153735   6.129   1.119   1.343 -0.9142  1.5713  0.6264
10748TIP3    H253736   5.981   1.095   1.364 -0.6501 -1.3700 -0.4784
10749TIP3   OH253737   2.910   5.520  10.887  0.3733 -0.0928  0.1979
10749TIP3    H153738   2.965   5.573  10.829  1.4931 -0.4491  0.9040
10749TIP3    H253739   2.942   5.431  10.875  0.0281 -0.2851  0.7083
10750TIP3   OH253740   4.948   4.236  14.377  0.2983 -0.2859  0.3660
10750TIP3    H153741   4.941   4.331  14.378  1.5834 -0.1612 -0.4853
10750TIP3    H253742   4.950   4.213  14.284  1.8250 -0.9737  0.5389
10751TIP3   OH253743   4.748   3.993  15.054  0.5234 -0.2743  0.0879
10751TIP3    H153744   4.796   4.016  14.975 -0.5088 -1.1621 -0.8238
10751TIP3    H253745   4.659   4.024  15.038  0.3236 -0.3536  0.9680
10752TIP3   OH253746   0.641   1.302  10.624  0.3666 -0.3245 -0.2201
10752TIP3    H153747   0.631   1.277  10.716  1.1966  2.6735  0.8014
10752TIP3    H253748   0.728   1.341  10.619  0.1050  0.0996 -2.1465
10753TIP3   OH253749   0.245   3.067  16.234 -0.1257  0.2776 -0.0092
10753TIP3    H153750   0.152   3.075  16.253 -0.0264  0.5419  0.3663
10753TIP3    H253751   0.289   3.106  16.309  0.2671  1.1823 -0.6927
10754TIP3   OH253752   2.184   3.113  13.723  0.2851 -0.0625 -0.0382
10754TIP3    H153753   2.145   3.162  13.795 -0.7526  2.1041 -1.9286
10754TIP3    H253754   2.269   3.084  13.756  0.1698  1.5227  1.7898
10755TIP3   OH253755   4.080   4.203   4.260 -0.0738 -0.4633 -0.5393
10755TIP3    H153756   4.108   4.141   4.192  0.4196  0.6190 -1.3357
10755TIP3    H253757   4.011   4.255   4.217 -0.4080 -0.3753  0.0929
10756TIP3   OH253758   1.138   3.889   5.868 -0.0945  0.6216 -0.2600
10756TIP3    H153759   1.162   3.890   5.775  0.2237  1.1640 -0.1745
10756TIP3    H253760   1.166   3.974   5.901 -1.5507  1.0411 -0.0004
10757TIP3   OH253761   1.126   5.450  14.765 -0.2678  0.2508 -0.0702
10757TIP3    H153762   1.089   5.373  14.723  0.3951 -1.4041  2.1885
10757TIP3    H253763   1.198   5.416  14.819 -0.9774  2.1953  2.2651
10758TIP3   OH253764   0.671   4.567   0.919 -0.4471  0.2625 -0.5904
10758TIP3    H153765   0.699   4.584   0.830 -0.3859  1.5152 -0.3397
10758TIP3    H253766   0.645   4.652   0.954  0.2060 -0.0804  0.8207
10759TIP3   OH253767   4.808   2.954   3.989  0.0494 -0.4023 -0.6262
10759TIP3    H153768   4.727   3.004   3.980 -0.3208 -1.0747 -1.0318
10759TIP3    H253769   4.833   2.966   4.080 -0.8165 -0.6691 -0.3452
10760TIP3   OH253770   4.228   1.307  17.171 -0.1437 -0.4163 -0.0464
10760TIP3    H153771   4.139   1.320  17.204 -1.4096 -1.5149 -2.7342
10760TIP3    H253772   4.281   1.370  17.220 -2.7577  1.8705  0.1139
10761TIP3   OH253773   3.343   6.306  12.457 -0.0851  0.2803  0.1836
10761TIP3    H153774   3.390   6.235  12.500  0.7951 -1.2088 -2.9946
10761TIP3    H253775   3.256   6.270  12.438 -0.4191  0.8733  0.5469
10762TIP3   OH253776   2.807   0.837   4.084 -0.0297  0.1551  0.2876
10762TIP3    H153777   2.773   0.841   4.174 -0.5144 -0.7258  0.1486
10762TIP3    H253778   2.729   0.848   4.029  0.0981 -0.5088 -0.0289
10763TIP3   OH253779   3.148   0.354   0.321 -0.4039 -0.2814  0.4723
10763TIP3    H153780   3.237   0.371   0.352  0.4419 -1.5349 -1.1016
10763TIP3    H253781   3.136   0.260   0.333 -0.4935 -0.6071 -1.6837
10764TIP3   OH253782   4.316   4.189   3.532 -0.5683  0.0717  0.8179
10764TIP3    H153783   4.371   4.237   3.470 -1.5153  1.4046  0.9785
10764TIP3    H253784   4.338   4.097   3.516  1.2650  0.5137  0.4793
10765TIP3   OH253785   0.910   5.241  12.465  0.0764 -0.0517  0.0996
10765TIP3    H153786   0.959   5.311  12.421  1.9614 -1.6988 -0.5800
10765TIP3    H253787   0.842   5.217  12.402  0.3041  0.2300 -0.2627
10766TIP3   OH253788   0.006   2.444   1.237  0.4125  0.6168  0.1053
10766TIP3    H153789   0.061   2.393   1.178 -0.0468 -1.4552  1.3717
10766TIP3    H253790   0.066   2.475   1.305  0.0529 -2.8718  2.3182
10767TIP3   OH253791   2.382   2.996  17.051 -0.6091  0.2376  0.4298
10767TIP3    H153792   2.356   2.950  16.971  1.0602  1.4847 -0.8966
10767TIP3    H253793   2.470   2.963  17.070 -0.5649  0.7440  1.1546
10768TIP3   OH253794   6.200   3.174   4.579 -0.2678  0.1839  0.1157
10768TIP3    H153795   6.218   3.174   4.673 -0.3780  0.1592  0.1365
10768TIP3    H253796   6.223   3.085   4.551 -2.3634 -0.5375  0.5264
10769TIP3   OH253797   5.336   2.407  14.350  0.2950  0.4281 -0.0421
10769TIP3    H153798   5.370   2.497  14.352  0.0525  0.5303 -0.4291
10769TIP3    H253799   5.241   2.417  14.353  0.2829  0.1253  1.4895
10770TIP3   OH253800   4.292   1.154  14.831 -0.3971  0.0933 -0.4029
10770TIP3    H153801   4.243   1.209  14.769 -0.1112 -0.1313 -0.8331
10770TIP3    H253802   4.316   1.214  14.902 -2.3781 -0.0414  0.4678
10771TIP3   OH253803   0.074   1.910  14.426  0.1809 -0.8773 -0.3316
10771TIP3    H153804   0.086   1.816  14.408  0.8386 -0.5837 -1.5843
10771TIP3    H253805   0.073   1.916  14.521 -2.1859 -2.4131 -0.1803
10772TIP3   OH253806   4.971   1.113  16.288  0.0962  0.0058  0.1211
10772TIP3    H153807   4.878   1.102  16.309  0.0791 -2.0423 -0.7581
10772TIP3    H253808   4.971   1.145  16.197  0.2473 -0.3284  0.0031
10773TIP3   OH253809   4.715   6.363   0.697 -0.0224  0.4867  0.4458
10773TIP3    H153810   4.672   6.280   0.717  0.1109  0.9040  2.7944
10773TIP3    H253811   4.775   6.343   0.625  0.1088 -1.5017  1.0609
10774TIP3   OH253812   6.717   3.623   1.358  0.0315 -0.0950  0.0768
10774TIP3    H153813   6.794   3.566   1.350 -0.0406 -0.4722  1.6525
10774TIP3    H253814   6.749   3.699   1.407 -0.5488 -0.1749  0.5845
10775TIP3   OH253815   1.255   0.507   3.948  0.7238  0.2876 -0.6516
10775TIP3    H153816   1.254   0.504   4.044 -1.6244 -0.3557 -0.6371
10775TIP3    H253817   1.259   0.601   3.927 -1.6128  0.6363  0.1769
10776TIP3   OH253818   5.154   1.907  10.849  0.3119 -0.4616 -0.1285
10776TIP3    H153819   5.105   1.858  10.914 -0.5032  0.2256 -0.1983
10776TIP3    H253820   5.114   1.883  10.765  1.1147 -1.0649 -0.3476
10777TIP3   OH253821   2.030   0.818  13.474 -0.5095 -0.5468  0.2048
10777TIP3    H153822   2.104   0.782  13.523 -0.7394 -1.1422  0.1285
10777TIP3    H253823   1.955   0.809  13.533 -0.3789  0.8474  0.6173
10778TIP3   OH253824   0.675   3.732   1.343 -0.1406 -0.1946 -0.0377
10778TIP3    H153825   0.627   3.785   1.280 -0.2641 -0.9461 -0.5849
10778TIP3    H253826   0.700   3.794   1.412  1.0058  0.8838 -1.3705
10779TIP3   OH253827   6.379   1.791   4.249 -0.8654 -0.3219 -0.1174
10779TIP3    H153828   6.394   1.863   4.310  1.8029 -0.4626 -0.4736
10779TIP3    H253829   6.305   1.820   4.195 -0.6895  1.5792  0.5906
10780TIP3   OH253830   2.723   6.785   1.410  0.0939  0.0455 -0.3252
10780TIP3    H153831   2.683   6.767   1.325  0.4067 -0.2251 -0.4160
10780TIP3    H253832   2.754   6.875   1.403  2.0288 -0.6522 -1.2668
10781TIP3   OH253833   6.471   5.561   0.485  0.1651 -0.0504  0.3073
10781TIP3    H153834   6.548   5.503   0.484 -0.4899 -0.9448  0.2845
10781TIP3    H253835   6.450   5.571   0.577  0.6812  0.7330  0.3557
10782TIP3   OH253836   3.637   4.081  12.087 -0.2433  0.1439  0.1608
10782TIP3    H153837   3.660   3.988  12.092 -0.5790  0.0809  0.5709
10782TIP3    H253838   3.596   4.091  12.001 -2.2823 -0.5657  0.9811
10783TIP3   OH253839   3.432   4.230  14.274  0.0484 -0.3591  0.5183
10783TIP3    H153840   3.462   4.173  14.345  2.8280  1.8415  1.2963
10783TIP3    H253841   3.402   4.309  14.319  0.7106  0.6067 -0.6773
10784TIP3   OH253842   1.573   5.954  15.229 -0.0326  0.6370  0.1545
10784TIP3    H153843   1.652   5.955  15.283 -0.4344  1.6168  0.7399
10784TIP3    H253844   1.512   5.899  15.277  0.0419  0.4611  0.0515
10785TIP3   OH253845   3.058   4.112   3.946 -0.6197  0.3012 -0.2375
10785TIP3    H153846   3.049   4.116   3.851  1.9003 -0.4946 -0.5622
10785TIP3    H253847   3.073   4.020   3.966 -1.9029  0.3233  1.0661
10786TIP3   OH253848   6.245   1.808   0.789 -0.6119  0.3030 -0.6016
10786TIP3    H153849   6.247   1.744   0.860 -0.9004  0.6132 -0.3136
10786TIP3    H253850   6.252   1.755   0.709  0.2126 -0.0166 -0.3337
10787TIP3   OH253851   1.479   1.352  11.486 -0.4882  0.7932  0.3624
10787TIP3    H153852   1.407   1.415  11.492 -0.6556  0.9400 -2.1560
10787TIP3    H253853   1.453   1.293  11.415  0.7922 -0.6191  1.0251
10788TIP3   OH253854   3.774   4.800  15.866  0.1900 -0.4776 -0.3165
10788TIP3    H153855   3.704   4.824  15.805 -0.5111 -1.2719  0.1682
10788TIP3    H253856   3.855   4.816  15.817 -0.3623 -2.2173 -1.9039
10789TIP3   OH253857   2.407   2.392  15.218 -0.2430 -0.3229 -0.0574
10789TIP3    H153858   2.348   2.463  15.194  1.1750  0.9277  0.0384
10789TIP3    H253859   2.450   2.422  15.298  2.8538  0.2796 -1.8063
10790TIP3   OH253860   0.905   6.593  14.109  0.5281  0.2327  0.1265
10790TIP3    H153861   0.818   6.568  14.079 -0.4337 -0.5497  3.1389
10790TIP3    H253862   0.964   6.529  14.068 -0.2459  0.8478 -2.0491
10791TIP3   OH253863   3.907   5.878  11.523  0.7018  0.0909  0.2056
10791TIP3    H153864   3.980   5.932  11.551  0.3797  0.1022  1.0557
10791TIP3    H253865   3.924   5.860  11.431  0.9315  1.4518 -0.0365
10792TIP3   OH253866   2.437   5.077   5.551 -0.1080 -0.5102  0.4846
10792TIP3    H153867   2.485   5.117   5.624  0.6971  2.5743 -1.5600
10792TIP3    H253868   2.345   5.100   5.567 -0.4989 -2.8497  2.2071
10793TIP3   OH253869   0.065   0.686  15.077 -0.6108 -0.1433 -0.7723
10793TIP3    H153870   0.091   0.620  15.013  0.7715  0.4752 -0.8927
10793TIP3    H253871   0.055   0.767  15.026 -1.2970 -0.0313 -0.4737
10794TIP3   OH253872   1.928   0.748   2.217  0.3122 -0.6143 -0.3777
10794TIP3    H153873   1.977   0.829   2.231 -0.6265  0.0468 -0.8391
10794TIP3    H253874   1.926   0.706   2.303  0.8589 -0.1789 -0.1491
10795TIP3   OH253875   3.907   4.322   5.032  0.6053  0.2184 -0.1909
10795TIP3    H153876   3.866   4.367   5.106 -1.2515 -0.2469 -0.8757
10795TIP3    H253877   3.938   4.392   4.975 -1.6506  0.7117 -0.9169
10796TIP3   OH253878   1.975   6.701  14.114  0.5677 -0.0155 -0.7669
10796TIP3    H153879   1.905   6.636  14.105  0.6204  0.0151 -1.3933
10796TIP3    H253880   2.055   6.653  14.093  0.9528 -0.4710  1.4487
10797TIP3   OH253881   4.799   5.704   1.166 -0.2943 -0.1471 -0.2645
10797TIP3    H153882   4.726   5.729   1.223  1.3216  1.9994  1.0684
10797TIP3    H253883   4.776   5.740   1.080 -0.8937  0.3496  0.0927
10798TIP3   OH253884   3.783   3.452   2.098 -0.3515  0.5018  0.3494
10798TIP3    H153885   3.700   3.407   2.112 -0.3407  0.1185 -0.6719
10798TIP3    H253886   3.769   3.503   2.018  0.6284 -0.1822 -0.2820
10799TIP3   OH253887   5.842   6.169   4.338  0.1438 -0.4341 -0.4672
10799TIP3    H153888   5.870   6.078   4.337 -0.2761 -0.5734 -0.1025
10799TIP3    H253889   5.923   6.219   4.340  0.3736 -0.8103 -0.2056
10800TIP3   OH253890   3.659   5.160   1.972  0.1653 -0.2176  0.2127
10800TIP3    H153891   3.724   5.104   1.929 -0.2032 -0.5632  0.1043
10800TIP3    H253892   3.585   5.161   1.912 -0.7333 -1.4582  1.2426
10801TIP3   OH253893   1.416   3.581   0.468 -0.4587  0.0681 -0.2388
10801TIP3    H153894   1.415   3.494   0.507 -1.1272 -0.3534 -1.1502
10801TIP3    H253895   1.447   3.567   0.379 -0.4197  0.7835 -0.3469
10802TIP3   OH253896   5.420   6.139   1.238  0.1279 -0.1277  0.4610
10802TIP3    H153897   5.336   6.162   1.197  0.3811 -0.7027 -0.4135
10802TIP3    H253898   5.455   6.223   1.269 -0.9713  0.0581  1.2457
10803TIP3   OH253899   2.994   4.672   5.071 -0.1254 -0.0176  0.3443
10803TIP3    H153900   3.078   4.630   5.090  0.1564  0.0724 -0.6495
10803TIP3    H253901   3.018   4.755   5.030 -0.6933 -0.1363 -0.2394
10804TIP3   OH253902   1.981   1.892  16.328  0.3825  0.0084  0.1339
10804TIP3    H153903   2.017   1.924  16.245 -0.2468  0.0024 -0.1390
10804TIP3    H253904   1.922   1.821  16.304  0.8152 -0.5367  0.6495
10805TIP3   OH253905   0.528   2.203  13.015 -0.3255 -0.2356  0.2396
10805TIP3    H153906   0.518   2.119  12.971 -0.8743 -0.2050  0.2990
10805TIP3    H253907   0.481   2.192  13.098 -0.7658  0.2644  0.0620
10806TIP3   OH253908   5.435   0.030   5.914  0.2447 -0.1645  0.0467
10806TIP3    H153909   5.348  -0.010   5.904 -0.0033 -0.4352  2.6624
10806TIP3    H253910   5.424   0.094   5.984  2.3088 -0.6871  0.9024
10807TIP3   OH253911   6.817   5.869   5.260 -0.2885 -0.5118 -0.0664
10807TIP3    H153912   6.752   5.805   5.230 -1.2939  0.8406 -0.8654
10807TIP3    H253913   6.795   5.885   5.351  0.7435 -2.1730  0.5380
10808TIP3   OH253914   3.061   6.543  13.453 -0.5067  0.1752 -0.2991
10808TIP3    H153915   2.997   6.606  13.420 -0.3711 -0.3971 -1.6939
10808TIP3    H253916   3.010   6.464  13.472 -0.4896  0.3082  0.3376
10809TIP3   OH253917   5.196   5.747   0.560  0.2924  0.2980 -0.2636
10809TIP3    H153918   5.262   5.780   0.499  0.9030 -0.7918 -0.2113
10809TIP3    H253919   5.159   5.670   0.516  0.5946 -0.3799  0.6468
10810TIP3   OH253920   2.112   4.830  11.343  0.0315 -0.3495  0.1191
10810TIP3    H153921   2.019   4.834  11.323  0.0275 -0.6693  0.0601
10810TIP3    H253922   2.152   4.891  11.281 -0.1495 -0.1347  0.2136
10811TIP3   OH253923   2.489   0.764   4.946  0.4183  0.5596 -0.7658
10811TIP3    H153924   2.565   0.777   5.001  0.6058 -1.3559 -0.5211
10811TIP3    H253925   2.466   0.852   4.915  2.4859  1.2103 -0.5618
10812TIP3   OH253926   0.453   4.309  13.521 -0.4502  0.6337  0.1488
10812TIP3    H153927   0.495   4.364  13.455 -2.1321  0.4300 -1.1589
10812TIP3    H253928   0.526   4.265  13.565  0.7528  0.7526 -1.5965
10813TIP3   OH253929   6.386   3.470   0.007  0.1953  0.3806 -0.3927
10813TIP3    H153930   6.306   3.454  -0.044  0.0273 -1.0473  0.2767
10813TIP3    H253931   6.430   3.385   0.011  1.4253  0.9951 -0.1753
10814TIP3   OH253932   5.452   5.001  14.055 -0.1758 -0.4276  0.6939
10814TIP3    H153933   5.384   5.055  14.094  0.8801  0.6439  1.0993
10814TIP3    H253934   5.465   5.038  13.968 -0.7540 -1.2190  0.2645
10815TIP3   OH253935   4.802   0.844  14.672  0.1874 -0.0566  0.3609
10815TIP3    H153936   4.871   0.826  14.736 -1.2906 -2.8390  1.3469
10815TIP3    H253937   4.733   0.886  14.723 -0.5330 -1.2376  0.4061
10816TIP3   OH253938   1.056   2.130   3.989  0.2214  0.1523  0.0113
10816TIP3    H153939   1.011   2.052   3.958  2.4238 -1.2772  0.1977
10816TIP3    H253940   1.127   2.144   3.926  1.4341  0.4100  1.3752
10817TIP3   OH253941   0.146   2.663   1.771 -1.0383  0.2877 -0.4315
10817TIP3    H153942   0.073   2.610   1.803 -0.3268 -0.1447  0.5413
10817TIP3    H253943   0.204   2.600   1.728  0.0677  0.1373  1.1861
10818TIP3   OH253944   1.553   3.734  16.468  0.1856 -0.0576 -0.9088
10818TIP3    H153945   1.462   3.755  16.447  0.6582  1.5239 -1.4763
10818TIP3    H253946   1.599   3.817  16.462  1.7950 -0.9416 -1.2416
10819TIP3   OH253947   4.626   3.461  10.604  0.3975  0.0857  0.1690
10819TIP3    H153948   4.680   3.383  10.606 -1.1174 -1.0550 -0.8684
10819TIP3    H253949   4.621   3.490  10.695  1.7002 -0.4829  0.4398
10820TIP3   OH253950   0.864   1.079  10.728  0.1496  0.1849  0.1912
10820TIP3    H153951   0.952   1.080  10.689  0.1674 -0.7912  0.1811
10820TIP3    H253952   0.805   1.066  10.653 -0.0410  1.2039  0.1530
10821TIP3   OH253953   5.267   6.688  13.426  0.0566 -0.3079  0.1409
10821TIP3    H153954   5.349   6.678  13.378  1.5186  0.1565  2.4082
10821TIP3    H253955   5.241   6.779  13.412  0.0958 -0.3713 -0.3349
10822TIP3   OH253956   1.440   1.277  13.758  0.1554  0.7080 -0.0862
10822TIP3    H153957   1.356   1.301  13.720  1.2254  1.3477 -2.2431
10822TIP3    H253958   1.485   1.360  13.771  0.8011  0.3283  0.1574
10823TIP3   OH253959   1.082   5.943  16.294 -0.2201 -0.3444 -0.1890
10823TIP3    H153960   1.112   5.999  16.365  0.2730  0.4270 -0.9959
10823TIP3    H253961   1.134   5.969  16.218 -0.7158 -1.1742 -0.8349
10824TIP3   OH253962   3.095   2.763   1.560  0.2375  0.3137  0.0230
10824TIP3    H153963   3.123   2.681   1.519  0.8726  0.2676  0.5204
10824TIP3    H253964   3.118   2.831   1.497  0.1521  0.1490 -0.1862
10825TIP3   OH253965   1.985   4.174  11.616 -0.3196 -0.2631  0.3541
10825TIP3    H153966   1.939   4.238  11.562 -1.4785 -0.9511  0.4823
10825TIP3    H253967   1.996   4.218  11.701  0.9745  0.5977 -0.2370
10826TIP3   OH253968   0.417   3.282  12.107 -0.4790  0.3902 -0.5959
10826TIP3    H153969   0.423   3.220  12.179  0.5990  0.9033 -0.2183
10826TIP3    H253970   0.347   3.343  12.133  0.1604  0.7998  0.2115
10827TIP3   OH253971   5.546   4.061   5.802 -0.3703  0.0614  0.3708
10827TIP3    H153972   5.600   3.982   5.814 -1.9296 -0.9651  0.9087
10827TIP3    H253973   5.593   4.111   5.735  1.0938 -0.9111  0.6007
10828TIP3   OH253974   4.965   3.469   4.799 -0.3879  0.2758  0.0199
10828TIP3    H153975   4.877   3.469   4.835 -0.5350  0.2166 -0.3342
10828TIP3    H253976   4.963   3.403   4.729  0.7537 -1.9717  1.9598
10829TIP3   OH253977   6.054   2.956  15.887  0.0976 -0.0095  0.0373
10829TIP3    H153978   5.979   2.935  15.831  1.8132  0.3766 -2.5963
10829TIP3    H253979   6.077   3.046  15.864  2.0411 -0.5021 -0.1182
10830TIP3   OH253980   1.535   6.053   5.631  0.0479  0.3775  0.4531
10830TIP3    H153981   1.492   5.968   5.639 -1.2270  0.8693 -0.8318
10830TIP3    H253982   1.506   6.102   5.707 -1.4855  0.5872 -0.2180
10831TIP3   OH253983   3.335   5.364   3.211  0.1315 -0.4317  0.2591
10831TIP3    H153984   3.282   5.395   3.137 -1.1640 -0.9025  0.9469
10831TIP3    H253985   3.294   5.404   3.288  3.0932  2.2904  0.6255
10832TIP3   OH253986   3.026   3.130   1.785 -1.2259 -0.3568  0.2368
10832TIP3    H153987   3.058   3.219   1.766  1.3580 -1.7326 -2.6272
10832TIP3    H253988   3.093   3.093   1.842 -2.6393 -0.3693  1.9894
10833TIP3   OH253989   5.729   4.088  15.968  0.5576  0.6409  0.1598
10833TIP3    H153990   5.691   4.025  15.907  0.4806  0.0812  0.7773
10833TIP3    H253991   5.754   4.162  15.913  0.6596  0.0748 -0.5747
10834TIP3   OH253992   1.730   6.452   4.832  0.4265  0.3470 -0.4781
10834TIP3    H153993   1.687   6.472   4.749  2.4905 -0.4484 -1.8324
10834TIP3    H253994   1.816   6.494   4.825 -0.1460  2.2426  2.2823
10835TIP3   OH253995   4.975   4.569  16.021 -0.5462  0.0050  0.3503
10835TIP3    H153996   5.050   4.533  16.068  0.3741 -2.1938 -2.5167
10835TIP3    H253997   4.901   4.514  16.048 -0.4133 -0.0443  0.6147
10836TIP3   OH253998   3.995   5.213  16.944 -0.5490  0.1132  0.4591
10836TIP3    H153999   4.052   5.174  16.878 -0.8502  0.7340 -0.1765
10836TIP3    H254000   4.055   5.242  17.013 -0.2605 -0.8151  0.6116
10837TIP3   OH254001   0.794   6.584  14.523  0.1364 -0.2805  0.2343
10837TIP3    H154002   0.886   6.603  14.538 -0.1123  0.4198  0.9805
10837TIP3    H254003   0.748   6.658  14.562 -0.7212 -0.2964 -0.6932
10838TIP3   OH254004   2.171   2.964   4.221 -0.7839 -0.3478 -0.4107
10838TIP3    H154005   2.179   2.911   4.300 -2.4521 -1.0102 -0.6329
10838TIP3    H254006   2.238   2.931   4.162  0.5581  0.2346  0.7435
10839TIP3   OH254007   3.777   4.275  13.727 -0.3929 -0.0783 -0.0410
10839TIP3    H154008   3.706   4.227  13.770 -1.4483  1.2491 -0.2222
10839TIP3    H254009   3.842   4.208  13.705 -2.1086 -1.5442 -0.9080
10840TIP3   OH254010   4.548   0.818   2.783 -0.5048  0.2996 -0.1464
10840TIP3    H154011   4.546   0.757   2.709  1.8072 -0.7084  0.5472
10840TIP3    H254012   4.469   0.797   2.833  0.5564 -2.7412  0.4688
10841TIP3   OH254013   6.623   6.452   0.323  0.0843  0.4271  0.3540
10841TIP3    H154014   6.692   6.517   0.312 -0.5130  0.7619 -2.3657
10841TIP3    H254015   6.548   6.490   0.277 -0.9225 -1.2904  0.5009
10842TIP3   OH254016   1.191   4.384   0.250  0.2218 -0.0396 -0.0091
10842TIP3    H154017   1.242   4.307   0.224 -0.7736 -0.8139  0.2654
10842TIP3    H254018   1.165   4.366   0.341  1.9587  1.7157  0.9287
10843TIP3   OH254019   1.625   2.188  14.442 -0.0054 -0.1391  0.7633
10843TIP3    H154020   1.647   2.250  14.373 -2.7337  2.3117  1.8707
10843TIP3    H254021   1.602   2.243  14.517 -1.5911 -2.5159  2.1627
10844TIP3   OH254022   4.124   4.948  14.085  0.2285 -0.6874 -0.1361
10844TIP3    H154023   4.190   4.884  14.113  1.2970 -0.0493 -1.1042
10844TIP3    H254024   4.175   5.027  14.063 -1.1046  0.7808  1.7000
10845TIP3   OH254025   1.252   5.807   1.845 -0.8804 -0.1422 -0.3113
10845TIP3    H154026   1.243   5.791   1.939  2.8522  0.2489  0.2365
10845TIP3    H254027   1.253   5.902   1.837  2.8751 -0.0191 -0.0513
10846TIP3   OH254028   6.653   1.114   2.058 -0.3737 -0.0906  0.3821
10846TIP3    H154029   6.704   1.109   1.976 -0.4396 -1.5705  0.4090
10846TIP3    H254030   6.719   1.129   2.126 -0.3570  1.5528  0.0412
10847TIP3   OH254031   0.871   5.622   3.297  0.4100  0.2675 -0.6501
10847TIP3    H154032   0.798   5.683   3.297 -0.6339 -0.9285 -1.6259
10847TIP3    H254033   0.918   5.640   3.378 -0.9359  1.1025 -0.0263
10848TIP3   OH254034   1.588   3.103  15.958  0.4150 -0.4244 -0.4062
10848TIP3    H154035   1.551   3.124  16.043 -1.4063 -0.8029 -1.0436
10848TIP3    H254036   1.556   3.014  15.940  1.6988 -0.7860 -1.0031
10849TIP3   OH254037   4.554   2.197   5.577 -0.1720 -0.0379 -0.0956
10849TIP3    H154038   4.629   2.182   5.635  0.7770  0.0906 -1.2543
10849TIP3    H254039   4.509   2.272   5.616  0.2524 -0.1575  0.6566
10850TIP3   OH254040   4.393   4.208  15.350  0.0790 -0.2032  0.2238
10850TIP3    H154041   4.417   4.205  15.257  0.2051  0.7362  0.2219
10850TIP3    H254042   4.406   4.118  15.381  0.6869 -0.3764 -0.5051
10851TIP3   OH254043   0.549   4.149   3.611  0.2573 -0.4983 -0.7506
10851TIP3    H154044   0.492   4.104   3.673 -0.9039  0.8015 -0.8437
10851TIP3    H254045   0.557   4.089   3.537 -1.2808 -0.5830 -0.8818
10852TIP3   OH254046   5.870   3.019  15.666 -0.1308  0.4244 -0.0949
10852TIP3    H154047   5.803   3.074  15.706  0.4384 -0.1195  1.6769
10852TIP3    H254048   5.904   3.072  15.594 -0.5584  1.8137  0.6929
10853TIP3   OH254049   1.828   1.611  14.314 -0.1280  0.2515  0.0727
10853TIP3    H154050   1.889   1.618  14.242 -0.7784  0.2317 -0.4897
10853TIP3    H254051   1.791   1.699  14.323 -0.0646  0.2491  0.3625
10854TIP3   OH254052   4.581   1.508  14.762  0.0191 -0.8402  0.3698
10854TIP3    H154053   4.633   1.428  14.772  0.1806 -0.5543  2.3373
10854TIP3    H254054   4.505   1.494  14.818 -0.1059  0.2358  0.4912
10855TIP3   OH254055   5.966   5.944  16.389 -0.4141 -0.2567  0.2117
10855TIP3    H154056   6.035   5.878  16.381  0.5381  0.8227 -1.0639
10855TIP3    H254057   5.899   5.917  16.327 -0.2646 -0.3181  0.0758
10856TIP3   OH254058   1.619   5.454   3.316  0.0509 -0.0033 -0.1001
10856TIP3    H154059   1.559   5.527   3.337 -0.6745 -0.2657 -1.1749
10856TIP3    H254060   1.702   5.480   3.354 -0.5112  0.8221  0.6127
10857TIP3   OH254061   3.791   2.114   1.133  0.0670  0.2790  0.3062
10857TIP3    H154062   3.842   2.125   1.053  0.0458  0.0059  0.2538
10857TIP3    H254063   3.723   2.050   1.110  0.8514 -0.7981  0.9015
10858TIP3   OH254064   5.590   6.281   5.642  0.2958  0.1867 -0.1768
10858TIP3    H154065   5.554   6.254   5.726  0.3708  0.4481 -0.0606
10858TIP3    H254066   5.677   6.315   5.662  0.5505 -0.2841 -0.4346
10859TIP3   OH254067   6.401   4.309   3.534  0.1374  0.3550 -0.5741
10859TIP3    H154068   6.345   4.335   3.607  1.2338 -0.6475  0.6666
10859TIP3    H254069   6.472   4.373   3.535  0.7596 -0.3382 -0.0210
10860TIP3   OH254070   4.834   6.805   0.545  0.4072 -0.1282  0.1062
10860TIP3    H154071   4.927   6.798   0.565  0.0597 -0.8221  1.6834
10860TIP3    H254072   4.791   6.757   0.616 -1.1802  0.6580 -0.2714
10861TIP3   OH254073   1.309   6.800  10.899 -0.3074  0.1635 -0.2094
10861TIP3    H154074   1.344   6.833  10.982  1.6145  0.0990 -0.9321
10861TIP3    H254075   1.351   6.854  10.832 -0.9082 -0.5512 -1.2019
10862TIP3   OH254076   1.217   6.421   6.009 -0.3336 -0.2266 -0.1984
10862TIP3    H154077   1.260   6.425   6.095 -2.1108  1.5770  0.6956
10862TIP3    H254078   1.277   6.370   5.955  1.3779 -0.5023  1.8037
10863TIP3   OH254079   5.665   1.544  16.019 -0.2428  0.0373 -0.2704
10863TIP3    H154080   5.733   1.558  16.085 -0.4130 -1.2707  0.2138
10863TIP3    H254081   5.683   1.609  15.952  0.8358  0.4217  0.3660
10864TIP3   OH254082   2.363   0.046   5.396 -0.0159  0.6311  0.0475
10864TIP3    H154083   2.439   0.091   5.359  1.1418 -3.6698 -3.6768
10864TIP3    H254084   2.396   0.004   5.475  2.2001 -2.2443 -2.1781
10865TIP3   OH254085   1.747   1.852   4.760 -0.0191 -0.2755 -0.4395
10865TIP3    H154086   1.701   1.768   4.761 -1.4617  0.4798  1.2474
10865TIP3    H254087   1.794   1.854   4.844  1.6370 -0.2215 -1.3341
10866TIP3   OH254088   6.513   2.074  15.875 -0.5947 -0.3985 -0.5427
10866TIP3    H154089   6.526   2.027  15.957  1.8669  1.4521  0.2471
10866TIP3    H254090   6.551   2.017  15.808  0.1552 -0.6262  0.0580
10867TIP3   OH254091   6.585   3.735  14.464 -0.1560  0.1214  0.3860
10867TIP3    H154092   6.580   3.735  14.369  0.5803  0.0945  0.3371
10867TIP3    H254093   6.546   3.651  14.491  1.6392 -0.9112 -0.0410
10868TIP3   OH254094   5.174   2.115  14.233  0.0441  0.3049 -0.4925
10868TIP3    H154095   5.179   2.082  14.144 -2.9298 -0.1294 -0.6192
10868TIP3    H254096   5.145   2.206  14.224  1.0615  0.6944  0.0175
10869TIP3   OH254097   4.098   3.785  12.299  0.1847  0.2426 -0.1961
10869TIP3    H154098   4.013   3.822  12.275 -0.8497  0.0187  2.7804
10869TIP3    H254099   4.150   3.860  12.326  0.3556  0.1908 -0.3787
10870TIP3   OH254100   1.051   4.091   3.889 -1.0163 -0.1137 -0.2159
10870TIP3    H154101   0.962   4.082   3.923 -0.4492  3.4355  2.9226
10870TIP3    H254102   1.064   4.186   3.883  2.9337 -0.4096  0.8252
10871TIP3   OH254103   4.629   6.360  13.008  0.2896 -0.2986  0.0702
10871TIP3    H154104   4.621   6.450  13.041  0.9312 -0.5642  0.9609
10871TIP3    H254105   4.566   6.357  12.935  0.3284  0.8974 -0.0443
10872TIP3   OH254106   5.794   4.157   4.206  0.3025 -0.0353 -0.5303
10872TIP3    H154107   5.736   4.107   4.149  0.2081 -0.1335 -0.3485
10872TIP3    H254108   5.849   4.207   4.146  1.6503 -1.7410 -0.7846
10873TIP3   OH254109   2.335   6.097  13.265  0.3516  0.1011  0.5675
10873TIP3    H154110   2.294   6.183  13.255 -0.5222 -0.5566 -2.6460
10873TIP3    H254111   2.429   6.116  13.274  0.3753  1.4410 -1.6626
10874TIP3   OH254112   6.320   1.776   5.523 -0.5240 -0.1722  0.4244
10874TIP3    H154113   6.320   1.710   5.454  0.5666  1.3349 -1.1145
10874TIP3    H254114   6.410   1.776   5.557 -0.2879  1.0246 -0.1486
10875TIP3   OH254115   2.482   0.273  14.105  0.3912 -0.8625 -0.4377
10875TIP3    H154116   2.409   0.317  14.061  0.2380 -1.6228 -0.9789
10875TIP3    H254117   2.541   0.343  14.132 -0.0888 -0.3037 -0.8320
10876TIP3   OH254118   1.256   4.538  11.120 -0.3736 -0.2670 -0.6923
10876TIP3    H154119   1.229   4.472  11.184 -0.2684 -0.2149 -0.5951
10876TIP3    H254120   1.265   4.489  11.038  2.0192 -0.8456 -0.1434
10877TIP3   OH254121   3.400   2.914  14.274 -0.4668 -0.3600 -0.4467
10877TIP3    H154122   3.341   2.840  14.286  0.6436 -1.4951 -1.6408
10877TIP3    H254123   3.343   2.987  14.249 -1.4112 -1.2902 -1.1025
10878TIP3   OH254124   1.992   2.827  16.908 -0.2584  0.1183 -0.4530
10878TIP3    H154125   1.998   2.839  16.813 -2.1696 -1.9221 -0.8821
10878TIP3    H254126   2.046   2.750  16.926 -0.7068 -0.0931 -0.0124
10879TIP3   OH254127   3.500   6.688   0.902  0.8135  0.6466  0.2108
10879TIP3    H154128   3.412   6.670   0.935  1.9854 -1.4595  2.4588
10879TIP3    H254129   3.545   6.729   0.976  1.5944  2.4223 -1.1509
10880TIP3   OH254130   6.804   6.182   0.576  0.0098  0.4477  0.4464
10880TIP3    H154131   6.761   6.154   0.657  0.4242 -0.5206  0.3400
10880TIP3    H254132   6.861   6.109   0.552  0.9785  1.3134  0.0484
10881TIP3   OH254133   6.106   2.841   1.891 -0.1722  0.6875  0.1599
10881TIP3    H154134   6.016   2.874   1.887 -0.1640  0.6664 -0.2908
10881TIP3    H254135   6.160   2.920   1.896 -0.1599  0.7547 -0.7873
10882TIP3   OH254136   4.754   1.799   5.748 -0.1567 -0.4047  0.3596
10882TIP3    H154137   4.722   1.849   5.673  0.0040  0.0462  0.5883
10882TIP3    H254138   4.801   1.726   5.710  0.0220 -0.1123  0.0174
10883TIP3   OH254139   3.265   3.224  15.352  0.3874  0.0450  0.0259
10883TIP3    H154140   3.352   3.211  15.389 -0.7102 -0.1779  2.7505
10883TIP3    H254141   3.278   3.289  15.282  2.3616  2.0456  2.0849
10884TIP3   OH254142   6.313   4.930   2.718 -0.1563 -0.0351 -0.2693
10884TIP3    H154143   6.274   4.909   2.803 -0.3713  0.6650 -0.1901
10884TIP3    H254144   6.312   4.848   2.670 -1.9876  0.0306 -0.3804
10885TIP3   OH254145   4.750   1.123   5.045 -0.3620 -0.5213  0.4636
10885TIP3    H154146   4.796   1.153   4.966 -1.2313  0.3098  0.2567
10885TIP3    H254147   4.798   1.163   5.117 -1.5959  1.6245  0.1935
10886TIP3   OH254148   2.708   0.863  11.273  0.0053  0.5551 -0.2213
10886TIP3    H154149   2.623   0.820  11.264  0.2275 -0.3283  1.4965
10886TIP3    H254150   2.707   0.899  11.362  0.9459  1.6408 -0.6269
10887TIP3   OH254151   4.982   1.294  11.747 -0.4599  0.0145 -0.2539
10887TIP3    H154152   4.937   1.346  11.680 -0.0165  0.2500 -0.3732
10887TIP3    H254153   5.048   1.352  11.782 -1.3970  0.2543  1.1787
10888TIP3   OH254154   3.988   2.627   1.903 -0.0673  0.5037 -0.0423
10888TIP3    H154155   3.920   2.568   1.873  0.9030 -0.7088  0.0512
10888TIP3    H254156   3.954   2.715   1.886 -1.7501 -0.0637  0.2829
10889TIP3   OH254157   4.873   6.065  11.289  0.2124  0.4465 -0.1839
10889TIP3    H154158   4.913   5.980  11.307 -0.1381  0.2323 -0.4100
10889TIP3    H254159   4.940   6.128  11.314  0.2031  0.1261  0.6625
10890TIP3   OH254160   4.900   3.623   3.583  0.3532  0.3802  0.2806
10890TIP3    H154161   4.930   3.700   3.632  1.0594 -0.5461  1.3504
10890TIP3    H254162   4.979   3.583   3.548  0.5923 -2.2095  3.3027
10891TIP3   OH254163   0.183   6.041   1.397 -0.0584  0.2848  0.1508
10891TIP3    H154164   0.253   6.055   1.461 -0.6357  0.9729  0.6552
10891TIP3    H254165   0.190   5.949   1.373  1.4131  0.4891 -0.2790
10892TIP3   OH254166   0.500   1.645   3.569 -0.4085  0.0454 -0.1352
10892TIP3    H154167   0.561   1.665   3.640  1.3811  0.4363 -1.6714
10892TIP3    H254168   0.473   1.731   3.536 -0.4239 -0.1231 -0.5657
10893TIP3   OH254169   5.108   2.068  11.764 -0.1641 -0.2889  0.1558
10893TIP3    H154170   5.060   1.990  11.790 -1.0309  0.1291 -0.1493
10893TIP3    H254171   5.136   2.108  11.846 -0.1534 -0.6442  0.3275
10894TIP3   OH254172   3.885   2.808   3.301  0.4114  0.2358  0.2700
10894TIP3    H154173   3.965   2.768   3.265  0.3998 -0.4660  0.9983
10894TIP3    H254174   3.863   2.876   3.238  1.9296  0.8534  0.3441
10895TIP3   OH254175   1.074   2.160   6.120  0.6493 -0.4589 -0.0346
10895TIP3    H154176   1.031   2.226   6.065 -0.4365 -2.1453 -1.3038
10895TIP3    H254177   1.007   2.133   6.182 -0.1300 -2.7732 -1.7291
10896TIP3   OH254178   0.192   4.251   5.473 -0.5912 -0.3221  0.2959
10896TIP3    H154179   0.109   4.297   5.479 -1.3529 -1.6053 -0.1276
10896TIP3    H254180   0.191   4.188   5.545 -0.6692 -1.3853 -0.6090
10897TIP3   OH254181   2.491   5.429  17.001  0.2129  0.5256 -0.1388
10897TIP3    H154182   2.460   5.347  17.040 -0.2495  0.9080  0.3231
10897TIP3    H254183   2.447   5.497  17.052  2.7984  1.1460  1.4502
10898TIP3   OH254184   3.835   0.841  13.500 -0.0821 -0.2338  0.0690
10898TIP3    H154185   3.760   0.803  13.454  1.7106 -1.4679 -2.0283
10898TIP3    H254186   3.848   0.926  13.459  0.8794 -0.8943 -1.0475
10899TIP3   OH254187   6.758   5.718  11.499 -0.2151 -0.2669  0.4068
10899TIP3    H154188   6.709   5.679  11.571 -0.0466  1.9094  1.8129
10899TIP3    H254189   6.816   5.782  11.541  0.4298  0.5628 -1.5997
10900TIP3   OH254190   0.421   0.664  12.476  0.7703  0.1801 -0.0817
10900TIP3    H154191   0.382   0.750  12.488 -0.8384 -0.3395 -1.2488
10900TIP3    H254192   0.351   0.610  12.439  1.4682 -1.8672  1.3424
10901TIP3   OH254193   1.556   1.102   3.448 -0.2394 -0.1393  0.0462
10901TIP3    H154194   1.472   1.106   3.495  0.2103 -1.0694  0.9515
10901TIP3    H254195   1.590   1.191   3.453 -0.3443 -0.1491  1.2346
10902TIP3   OH254196   0.661   0.011   3.287  0.2780 -0.5355  0.8108
10902TIP3    H154197   0.663  -0.052   3.215 -1.1396  0.5951 -0.2928
10902TIP3    H254198   0.594  -0.023   3.347 -0.3602 -0.1941  0.3033
10903TIP3   OH254199   6.698   4.191   3.255  0.6817  0.3320  0.7774
10903TIP3    H154200   6.642   4.123   3.217 -1.7179  0.8369  3.0764
10903TIP3    H254201   6.771   4.142   3.293  0.1197 -0.7405  0.5342
10904TIP3   OH254202   3.040   1.313   0.600 -0.0802  0.2019 -0.3411
10904TIP3    H154203   2.974   1.307   0.531 -0.1647  0.9106 -0.3325
10904TIP3    H254204   3.000   1.368   0.667  0.5339  0.7056 -0.3680
10905TIP3   OH254205   4.116   1.596  15.420  0.1016  0.3090  0.0241
10905TIP3    H154206   4.199   1.633  15.448 -0.5642  1.7388  0.1838
10905TIP3    H254207   4.079   1.661  15.361 -1.2986  0.1024  0.6296
10906TIP3   OH254208   1.738   3.485   5.072 -0.3905  0.0714  0.4364
10906TIP3    H154209   1.774   3.545   5.137 -1.4295 -1.8810  2.9830
10906TIP3    H254210   1.695   3.542   5.008  1.6937  2.1340  0.7146
10907TIP3   OH254211   3.933   0.566   1.951  0.6613  0.3949 -0.0838
10907TIP3    H154212   3.965   0.541   2.038 -0.9363  1.8657  0.9870
10907TIP3    H254213   3.929   0.661   1.953 -2.5085  0.3889 -0.5291
10908TIP3   OH254214   3.590   1.469   4.568  0.7365  0.3641 -0.0820
10908TIP3    H154215   3.576   1.410   4.494 -0.3905  2.6330 -1.7991
10908TIP3    H254216   3.653   1.533   4.536  0.4127  1.2594  1.0075
10909TIP3   OH254217   0.198   3.363   0.167 -0.1565 -0.3612 -0.2917
10909TIP3    H154218   0.253   3.332   0.239  0.8249 -0.3693 -1.0287
10909TIP3    H254219   0.216   3.303   0.095  0.2340  0.7001 -1.1021
10910TIP3   OH254220   4.704   4.030   3.735 -0.8406 -0.1177  0.1236
10910TIP3    H154221   4.610   4.029   3.753 -1.1054 -2.7645 -0.9564
10910TIP3    H254222   4.712   4.006   3.643  0.8975 -0.0229  0.2023
10911TIP3   OH254223   2.443   4.901  15.199  0.4093  0.8708  0.3244
10911TIP3    H154224   2.526   4.889  15.246  0.3187  0.4659  0.3895
10911TIP3    H254225   2.460   4.974  15.139  0.5580  1.3139  0.9029
10912TIP3   OH254226   5.417   3.232  13.219  0.4875 -0.2894 -0.4243
10912TIP3    H154227   5.371   3.205  13.299  2.3099  0.8746  1.0893
10912TIP3    H254228   5.379   3.177  13.150 -0.4948 -2.0004  1.3828
10913TIP3   OH254229   3.835   3.040  17.047  0.3010 -1.0193  0.2738
10913TIP3    H154230   3.796   2.970  16.995  1.4462  0.3444 -2.6223
10913TIP3    H254231   3.772   3.112  17.041  1.1153 -0.3491 -0.5790
10914TIP3   OH254232   5.725   5.851  16.285  0.1062 -0.0690 -0.3109
10914TIP3    H154233   5.727   5.866  16.190  0.1081 -2.4714 -0.7510
10914TIP3    H254234   5.638   5.814  16.301  0.7493 -1.3826  0.2961
10915TIP3   OH254235   2.935   5.112   3.020 -0.2471 -0.3056  0.1378
10915TIP3    H154236   2.919   5.043   3.084  1.0709 -0.3265  0.4791
10915TIP3    H254237   2.913   5.071   2.936  1.1214 -1.4071  0.2602
10916TIP3   OH254238   6.262   2.806   0.887 -0.3649  0.5222  0.0157
10916TIP3    H154239   6.269   2.816   0.983 -0.6086  0.6170  0.0235
10916TIP3    H254240   6.170   2.788   0.871  0.0412 -1.8809 -0.0040
10917TIP3   OH254241   1.006   0.962   5.257 -0.0639  0.5997  0.2751
10917TIP3    H154242   0.915   0.948   5.230 -0.0168 -1.1788  0.9484
10917TIP3    H254243   1.012   0.920   5.343  1.0321  2.0115  0.9409
10918TIP3   OH254244   6.445   2.484  16.874  0.5177 -0.0030  0.1569
10918TIP3    H154245   6.519   2.474  16.813  0.6564  1.5491  0.0310
10918TIP3    H254246   6.386   2.411  16.852  1.2535 -0.3308 -0.8300
10919TIP3   OH254247   2.574   1.784   3.366 -0.9094  0.0157  0.1697
10919TIP3    H154248   2.643   1.842   3.396 -1.2589 -0.1853  1.4504
10919TIP3    H254249   2.568   1.799   3.272  1.6125 -0.7557 -0.1966
10920TIP3   OH254250   0.055   6.069   3.541 -0.0832 -0.0004 -0.0006
10920TIP3    H154251   0.077   6.013   3.467 -0.2439  0.8768 -0.7354
10920TIP3    H254252   0.056   6.011   3.617 -1.6045 -1.2739 -0.9053
10921TIP3   OH254253   1.857   4.130   4.294 -0.5355  0.4787  0.3100
10921TIP3    H154254   1.853   4.147   4.388 -0.9981  2.0649  0.0353
10921TIP3    H254255   1.769   4.100   4.271 -0.9273  1.7139  0.1238
10922TIP3   OH254256   6.051   6.290  11.189 -0.0772 -0.6893  0.1865
10922TIP3    H154257   6.047   6.236  11.110  0.5569 -0.6529  0.1284
10922TIP3    H254258   5.960   6.292  11.221 -0.3111 -0.8232 -0.4561
10923TIP3   OH254259   5.600   4.549  15.302  0.0865 -0.5490 -0.5606
10923TIP3    H154260   5.559   4.545  15.388 -2.0555 -0.9683 -1.5023
10923TIP3    H254261   5.526   4.560  15.242  1.5919  0.7794 -2.2796
10924TIP3   OH254262   0.610   5.819   5.572 -0.3137  0.3012  0.0413
10924TIP3    H154263   0.556   5.811   5.493 -0.9634  2.6334  0.1800
10924TIP3    H254264   0.549   5.802   5.644 -0.0347 -0.4979  0.0927
10925TIP3   OH254265   1.357   6.515  16.430 -0.0927 -0.8023  0.4424
10925TIP3    H154266   1.415   6.476  16.495  1.0674  0.0309 -0.0579
10925TIP3    H254267   1.273   6.523  16.475  0.5755 -0.6291  1.7196
10926TIP3   OH254268   3.146   1.097   1.399 -0.4140  0.0585  0.2455
10926TIP3    H154269   3.061   1.137   1.379 -0.2808  0.7218  0.9541
10926TIP3    H254270   3.171   1.052   1.318 -0.6534  1.2639 -0.5236
10927TIP3   OH254271   4.901   4.334   3.580  0.4670  0.6470 -0.1543
10927TIP3    H154272   4.889   4.291   3.665  1.5331  0.2723 -0.1812
10927TIP3    H254273   4.847   4.413   3.586 -0.2008  0.1608  0.5213
10928TIP3   OH254274   3.774   0.069   3.097  0.3324 -0.2365  0.1495
10928TIP3    H154275   3.770   0.082   3.192  1.3178  2.7166 -0.1008
10928TIP3    H254276   3.838  -0.001   3.085  2.2139  1.1116  1.6671
10929TIP3   OH254277   2.363   3.619  13.521  0.2081  0.0807  0.4119
10929TIP3    H154278   2.314   3.567  13.457  0.6878 -1.0262  0.9194
10929TIP3    H254279   2.452   3.584  13.517  1.0906  2.2458 -0.7048
10930TIP3   OH254280   3.126   2.202   5.124 -0.1556 -0.0728 -0.1272
10930TIP3    H154281   3.106   2.271   5.187 -3.4882 -0.0630 -1.0217
10930TIP3    H254282   3.194   2.241   5.068  0.2993  1.2501  1.2702
10931TIP3   OH254283   6.209   1.726  14.255 -0.4441 -0.1197  0.5154
10931TIP3    H154284   6.152   1.790  14.214  0.4660  0.0036 -0.6053
10931TIP3    H254285   6.173   1.713  14.342 -1.2372  1.1389  0.3841
10932TIP3   OH254286   5.634   5.425  12.589 -0.2419 -0.1490 -0.1231
10932TIP3    H154287   5.637   5.501  12.649 -1.2299  1.3785 -1.9012
10932TIP3    H254288   5.702   5.443  12.524 -1.4543  0.0033 -1.4037
10933TIP3   OH254289   4.229   2.514   2.830 -0.0659  0.3449  0.1952
10933TIP3    H154290   4.213   2.433   2.878  1.2650  0.3374  0.6693
10933TIP3    H254291   4.201   2.496   2.740 -1.2699 -0.1009  0.6536
10934TIP3   OH254292   6.558   1.105  16.905  0.5771 -0.3099 -0.3565
10934TIP3    H154293   6.646   1.141  16.897 -0.0011  1.1151 -0.5752
10934TIP3    H254294   6.522   1.144  16.984  0.3104 -1.2902  0.0306
10935TIP3   OH254295   5.130   0.469  12.702 -0.0897 -0.5881  0.2184
10935TIP3    H154296   5.180   0.387  12.701  0.2032 -0.4660  1.8759
10935TIP3    H254297   5.190   0.534  12.665  1.2434 -0.3479  2.6087
10936TIP3   OH254298   4.950   1.015   3.240  0.4509 -0.3800  0.0807
10936TIP3    H154299   4.973   0.956   3.168 -0.6682  0.3269 -0.9081
10936TIP3    H254300   4.942   1.101   3.199 -0.6312 -0.0298  0.9660
10937TIP3   OH254301   5.292   5.532  15.366  0.0051  0.7231  0.4302
10937TIP3    H154302   5.197   5.539  15.369 -0.0691 -0.4193  0.9906
10937TIP3    H254303   5.320   5.533  15.458  0.3092 -1.4878  0.4198
10938TIP3   OH254304   5.127   4.995  11.800 -0.6033  0.1893  0.4580
10938TIP3    H154305   5.057   4.950  11.753 -1.6113  0.5913  1.5111
10938TIP3    H254306   5.127   5.084  11.765  0.8228 -0.3506 -1.0244
10939TIP3   OH254307   6.622   5.111  11.831 -0.1692  0.3546 -0.6215
10939TIP3    H154308   6.565   5.156  11.769  0.6102  0.2333 -1.4502
10939TIP3    H254309   6.711   5.139  11.806  0.2369 -0.6642 -0.3591
10940TIP3   OH254310   1.576   1.700  16.484 -0.7227  0.0458  0.2382
10940TIP3    H154311   1.644   1.635  16.503 -0.6874 -0.7959 -2.4034
10940TIP3    H254312   1.496   1.647  16.471 -1.3047  0.7949  0.6862
10941TIP3   OH254313   2.200   1.252  15.953  0.1142 -0.8566  0.1715
10941TIP3    H154314   2.156   1.200  16.020  0.1866  0.1691  1.0398
10941TIP3    H254315   2.293   1.236  15.968  0.1215 -0.8702  0.1119
10942TIP3   OH254316   5.218   5.521   0.844  0.0682  0.3984 -0.0030
10942TIP3    H154317   5.207   5.616   0.846  3.5449  0.9668 -1.2358
10942TIP3    H254318   5.299   5.507   0.794  0.0168 -3.1966  0.6572
10943TIP3   OH254319   2.228   3.630   6.318 -0.0831 -0.2263 -0.1091
10943TIP3    H154320   2.200   3.696   6.381  0.3456 -0.5332  0.4159
10943TIP3    H254321   2.207   3.667   6.232 -3.7516 -1.1841  0.2414
10944TIP3   OH254322   2.596   2.602   4.509  0.0486  0.0617  0.4033
10944TIP3    H154323   2.618   2.693   4.530 -3.6777  1.0296  0.9744
10944TIP3    H254324   2.574   2.563   4.593 -1.9034 -0.1852 -0.1729
10945TIP3   OH254325   1.259   4.213   0.751  0.7308  0.4034  0.1276
10945TIP3    H154326   1.343   4.177   0.777  0.2906 -0.3949  0.4640
10945TIP3    H254327   1.210   4.223   0.833 -0.3227 -1.2646 -0.2478
10946TIP3   OH254328   4.357   6.437  14.463  0.1936  0.5728  0.1701
10946TIP3    H154329   4.416   6.366  14.491 -0.1910  0.3171  0.3441
10946TIP3    H254330   4.284   6.433  14.525 -0.5951  0.1009 -0.7617
10947TIP3   OH254331   6.741   0.439  16.666 -0.3223  0.2286  0.2675
10947TIP3    H154332   6.667   0.434  16.727  1.0707  0.0364  2.0418
10947TIP3    H254333   6.783   0.353  16.673  2.1999  1.4711  2.2494
10948TIP3   OH254334   1.093   6.830  12.094  0.2709 -0.4404  0.3249
10948TIP3    H154335   1.116   6.771  12.022  0.7217 -0.1426  0.2243
10948TIP3    H254336   1.118   6.917  12.063 -0.0019 -0.2496  0.6403
10949TIP3   OH254337   3.673   2.706   1.618 -0.0599  0.4050 -0.4235
10949TIP3    H154338   3.733   2.762   1.668  0.9731 -2.3272  1.6841
10949TIP3    H254339   3.611   2.674   1.683  0.5242 -2.2765 -1.0358
10950TIP3   OH254340   1.340   1.770  13.597  0.2749 -0.0719  0.2831
10950TIP3    H154341   1.408   1.707  13.620  1.7521  0.7143 -1.6708
10950TIP3    H254342   1.356   1.790  13.505 -2.0434  0.8799  0.0079
10951TIP3   OH254343   2.800   4.088   2.234  0.6265 -0.1139 -0.3296
10951TIP3    H154344   2.862   4.123   2.299  1.1522 -1.5914  0.0318
10951TIP3    H254345   2.805   4.148   2.160 -0.6252  2.1116  1.2874
10952TIP3   OH254346   1.454   6.242   2.527 -0.0310 -0.0991 -0.1953
10952TIP3    H154347   1.416   6.327   2.548 -0.3055 -0.0389 -0.9124
10952TIP3    H254348   1.505   6.257   2.447 -0.7427 -0.7711 -0.7959
10953TIP3   OH254349   4.580   2.620  12.645 -0.2522 -0.1706  0.2671
10953TIP3    H154350   4.632   2.694  12.673 -2.2875  0.5778  2.3388
10953TIP3    H254351   4.556   2.641  12.554  0.5300  0.8835  0.2831
10954TIP3   OH254352   2.891   6.738  13.332 -0.0560  0.1970  0.4003
10954TIP3    H154353   2.796   6.753  13.335 -0.0919  0.2040 -0.4612
10954TIP3    H254354   2.924   6.806  13.273  0.4325 -0.0451  0.3882
10955TIP3   OH254355   4.647   0.836  16.881 -0.0418 -0.0472  0.4407
10955TIP3    H154356   4.687   0.766  16.829 -1.3504 -0.6478  0.2008
10955TIP3    H254357   4.630   0.906  16.818  0.0168 -0.0582  0.4130
10956TIP3   OH254358   1.130   4.302   2.853 -0.1307 -0.2248  0.4041
10956TIP3    H154359   1.144   4.347   2.937  0.0320 -1.6154  1.1410
10956TIP3    H254360   1.072   4.361   2.805  1.2315  1.4975  0.7252
10957TIP3   OH254361   3.544   6.292  16.418  0.0275 -0.0401 -0.0389
10957TIP3    H154362   3.544   6.341  16.500 -0.7642 -0.5642  0.2958
10957TIP3    H254363   3.472   6.330  16.367 -1.9414 -2.0645  1.0298
10958TIP3   OH254364   3.038   0.029  14.958  0.0823  0.0848  0.1992
10958TIP3    H154365   3.027   0.082  15.037 -0.5131  0.0041  0.1777
10958TIP3    H254366   3.127  -0.006  14.964  0.1522  0.3395  0.6700
10959TIP3   OH254367   6.011   5.621   5.896 -0.1534 -0.4781 -0.1916
10959TIP3    H154368   6.074   5.582   5.835 -0.7635  0.5258 -1.5000
10959TIP3    H254369   6.008   5.714   5.871 -0.4976 -0.0574  1.3101
10960TIP3   OH254370   2.168   4.668  13.271  0.4167 -0.3889 -0.2424
10960TIP3    H154371   2.078   4.686  13.244  0.3410 -2.1012 -1.2640
10960TIP3    H254372   2.221   4.718  13.208  0.1887 -0.8418 -0.8042
10961TIP3   OH254373   0.653   3.474   4.334 -0.3395  0.1263  0.5635
10961TIP3    H154374   0.635   3.521   4.415 -0.2294  2.0596 -0.4689
10961TIP3    H254375   0.576   3.418   4.320 -1.8759  2.1734  0.3826
10962TIP3   OH254376   3.629   5.728   4.365 -0.5920  0.4687 -0.0090
10962TIP3    H154377   3.643   5.816   4.330  0.2086  0.2764 -0.1958
10962TIP3    H254378   3.685   5.723   4.442  1.5428 -0.7917 -1.5503
10963TIP3   OH254379   2.940   6.608  13.872  0.5970 -0.0910  0.1277
10963TIP3    H154380   2.870   6.613  13.938  0.5390  2.1224 -0.0333
10963TIP3    H254381   3.018   6.582  13.921  0.6951  2.1288  1.2325
10964TIP3   OH254382   3.533   3.723   0.644  0.2148  0.1022 -0.6429
10964TIP3    H154383   3.508   3.672   0.722 -0.7523  1.2159 -0.1940
10964TIP3    H254384   3.453   3.769   0.620  0.7326  0.4088 -1.8200
10965TIP3   OH254385   5.970   0.046   0.744 -0.5228 -0.7725  0.4238
10965TIP3    H154386   5.938  -0.044   0.739 -0.3783 -0.7782 -0.6621
10965TIP3    H254387   5.896   0.100   0.717  0.4101 -0.8127 -2.5977
10966TIP3   OH254388   3.662   1.997   0.917  0.3183 -0.2154  0.1149
10966TIP3    H154389   3.677   1.904   0.933 -1.3236 -0.4032  0.8500
10966TIP3    H254390   3.622   2.001   0.830  0.7392 -0.1483 -0.0782
10967TIP3   OH254391   0.227   4.664   5.073 -0.1787  0.1945 -0.4447
10967TIP3    H154392   0.221   4.594   5.008 -1.5139  0.1626 -0.3008
10967TIP3    H254393   0.301   4.638   5.128 -1.5824 -1.9647  0.5584
10968TIP3   OH254394   0.802   5.287   5.534  0.5046  0.1408 -0.0169
10968TIP3    H154395   0.837   5.311   5.620 -0.3140 -0.5105  0.5122
10968TIP3    H254396   0.708   5.274   5.549  0.2709  0.4740 -1.1100
10969TIP3   OH254397   2.655   3.349   5.730 -0.2879  0.2369  0.3667
10969TIP3    H154398   2.563   3.372   5.746 -0.4584 -0.0273 -0.2506
10969TIP3    H254399   2.679   3.295   5.805 -0.7077  0.0927  0.3980
10970TIP3   OH254400   4.516   4.067   2.541 -0.2869 -0.5807  0.1786
10970TIP3    H154401   4.535   4.000   2.606 -1.2569 -1.2962 -0.2557
10970TIP3    H254402   4.498   4.146   2.592  1.6322 -0.3955  0.6752
10971TIP3   OH254403   1.649   3.559  12.120  0.3001  0.1720 -0.2000
10971TIP3    H154404   1.688   3.573  12.206 -0.3853  2.6225 -0.2052
10971TIP3    H254405   1.573   3.503  12.137  2.6189 -3.2320  0.0370
10972TIP3   OH254406   1.279   2.559   6.356  0.0479  0.0129  0.0148
10972TIP3    H154407   1.256   2.653   6.355  0.8486  0.2427 -1.8662
10972TIP3    H254408   1.342   2.550   6.427 -1.0988  0.5880  1.1587
10973TIP3   OH254409   3.616   4.341  11.452 -0.0501 -0.0669  0.3008
10973TIP3    H154410   3.677   4.348  11.379 -1.5342 -2.2975 -1.2855
10973TIP3    H254411   3.651   4.271  11.507  0.2125  0.5102  0.8888
10974TIP3   OH254412   2.749   0.154   5.995 -0.3043 -0.1262 -0.1824
10974TIP3    H154413   2.711   0.219   6.054  0.0562 -0.6635  0.6755
10974TIP3    H254414   2.826   0.122   6.042 -0.4413 -1.1229 -0.6094
10975TIP3   OH254415   4.599   4.491   5.459  0.0689  0.0258  0.1999
10975TIP3    H154416   4.599   4.587   5.457 -0.6146  0.0384 -1.8230
10975TIP3    H254417   4.507   4.467   5.469  0.1963 -0.4205  0.3373
10976TIP3   OH254418   2.394   1.662  15.110 -0.7491  0.4363 -0.4300
10976TIP3    H154419   2.351   1.577  15.099 -0.4066  0.2609 -0.4426
10976TIP3    H254420   2.416   1.666  15.203 -1.5846  0.9147 -0.2447
10977TIP3   OH254421   1.783   4.230  16.074 -0.4305 -0.8205  0.6732
10977TIP3    H154422   1.794   4.151  16.020  0.6114 -0.4716  0.3383
10977TIP3    H254423   1.696   4.262  16.053 -0.3053 -1.0777 -0.3060
10978TIP3   OH254424   0.157   3.396  11.620  0.1030  0.9089  0.2534
10978TIP3    H154425   0.130   3.362  11.705  0.7951  1.3846  0.6717
10978TIP3    H254426   0.118   3.336  11.556  2.7535 -1.8152  0.9658
10979TIP3   OH254427   0.616   2.024  11.361 -0.0023 -0.2133  0.2134
10979TIP3    H154428   0.552   2.085  11.398  0.4528  0.5837 -0.2789
10979TIP3    H254429   0.590   2.015  11.269 -1.2172 -2.2969  0.6849
10980TIP3   OH254430   5.912   0.206   9.963  0.1781 -0.1228  0.2311
10980TIP3    H154431   6.002   0.202   9.996  0.8999 -2.1956 -1.7448
10980TIP3    H254432   5.872   0.278  10.011  2.9307  0.9510  1.0970
10981TIP3   OH254433   5.489   2.673  14.341  0.3081 -0.4066  0.2948
10981TIP3    H154434   5.526   2.743  14.395 -0.7939  1.1717 -0.8991
10981TIP3    H254435   5.525   2.689  14.254 -3.1623  1.3847 -0.9991
10982TIP3   OH254436   3.518   0.680   4.622 -0.0333 -0.3881  0.5277
10982TIP3    H154437   3.589   0.736   4.590 -0.8428  1.3209  1.5853
10982TIP3    H254438   3.464   0.663   4.545 -0.2229  1.0239  0.3190
10983TIP3   OH254439   5.122   1.214   5.607 -0.1978  0.5327  0.2555
10983TIP3    H154440   5.161   1.241   5.690 -2.1146 -1.8656  2.0718
10983TIP3    H254441   5.028   1.228   5.619 -0.5901 -0.5808 -1.2160
10984TIP3   OH254442   1.319   4.039   5.081  0.2363 -0.6460 -0.6971
10984TIP3    H154443   1.344   4.084   5.001 -0.5379 -1.0858 -1.2076
10984TIP3    H254444   1.237   3.995   5.059 -0.6008  0.1501  0.6748
10985TIP3   OH254445   1.058   6.410   4.817  0.3700 -0.3096 -0.1200
10985TIP3    H154446   0.990   6.351   4.785 -0.7290 -0.2744  2.0013
10985TIP3    H254447   1.131   6.352   4.841 -0.4810 -0.7949  1.3990
10986TIP3   OH254448   1.273   4.264  15.834  0.2651  0.2769  0.3382
10986TIP3    H154449   1.257   4.196  15.899  0.9250  0.7025  0.9628
10986TIP3    H254450   1.352   4.308  15.865  1.7514 -0.7548 -1.7803
10987TIP3   OH254451   4.637   2.778  15.892  0.3984  0.1080 -0.0117
10987TIP3    H154452   4.598   2.691  15.884  1.6919 -0.4022 -1.1350
10987TIP3    H254453   4.563   2.838  15.885 -0.4354 -0.8701  0.1367
10988TIP3   OH254454   2.292   5.641  10.507  0.3763 -0.0865 -0.4255
10988TIP3    H154455   2.200   5.667  10.506  0.1513 -0.6412  1.6058
10988TIP3    H254456   2.337   5.710  10.458 -0.8750  1.2825  0.2792
10989TIP3   OH254457   6.227   2.551  13.424  0.0600 -0.0945 -0.0125
10989TIP3    H154458   6.198   2.567  13.334 -0.8872 -0.9291  0.1249
10989TIP3    H254459   6.322   2.541  13.416  0.3823  2.6573 -0.4778
10990TIP3   OH254460   4.053   5.769  16.517 -0.4478 -0.0618 -0.6020
10990TIP3    H154461   4.126   5.797  16.463  0.7986 -2.5275 -0.3489
10990TIP3    H254462   3.975   5.792  16.466  0.6340 -0.8461 -2.7208
10991TIP3   OH254463   5.651   1.175  15.613  0.6857  0.8460 -0.0353
10991TIP3    H154464   5.608   1.229  15.679  0.1937  0.4012  0.0121
10991TIP3    H254465   5.579   1.128  15.570  1.0062  1.0377 -0.8040
10992TIP3   OH254466   6.118   5.427   4.597  0.5559 -0.5527 -0.0276
10992TIP3    H154467   6.157   5.469   4.674  0.6290 -0.4423 -0.1251
10992TIP3    H254468   6.157   5.472   4.523  0.7482 -0.8910 -0.1369
10993TIP3   OH254469   2.296   4.977  11.186 -0.4600 -0.5915 -0.1106
10993TIP3    H154470   2.389   4.996  11.197 -0.6595  1.2393 -1.2306
10993TIP3    H254471   2.293   4.900  11.129  0.3708 -0.7866  0.1065
10994TIP3   OH254472   6.661   1.931   2.495 -0.2746 -0.0741 -0.0753
10994TIP3    H154473   6.708   1.853   2.467  1.7577  0.4849  1.5444
10994TIP3    H254474   6.713   2.004   2.460  0.2759  0.5632  1.9540
10995TIP3   OH254475   2.444   0.183  14.384 -0.1705 -0.0326 -0.1425
10995TIP3    H154476   2.441   0.210  14.292 -0.8911  0.7499  0.1029
10995TIP3    H254477   2.403   0.255  14.432  1.1197  0.0375  0.9097
10996TIP3   OH254478   3.896   4.709  17.079 -0.4028 -0.0115  0.8554
10996TIP3    H154479   3.898   4.803  17.100  0.1198 -0.1826  1.5732
10996TIP3    H254480   3.824   4.701  17.015  0.3170  1.0624 -0.1419
10997TIP3   OH254481   1.551   5.151  13.214  0.7234 -0.5142 -0.1604
10997TIP3    H154482   1.564   5.067  13.259  0.6908 -1.0084 -1.0416
10997TIP3    H254483   1.459   5.171  13.226  0.6324 -0.8331 -0.3155
10998TIP3   OH254484   4.043   5.874   2.353 -0.2362  0.1329 -0.7227
10998TIP3    H154485   4.113   5.912   2.406 -0.7924  0.9772 -0.5919
10998TIP3    H254486   4.041   5.782   2.380 -0.8695  0.6480  1.1326
10999TIP3   OH254487   1.261   6.247   2.996 -0.3529  0.4812 -0.4968
10999TIP3    H154488   1.314   6.267   3.073  0.8145 -0.5196 -1.0147
10999TIP3    H254489   1.175   6.225   3.032 -0.0826  0.9096  0.4556
11000TIP3   OH254490   5.136   4.160   3.157  0.1834 -0.0437 -0.5455
11000TIP3    H154491   5.124   4.225   3.226  0.4113  0.7461 -1.2296
11000TIP3    H254492   5.063   4.175   3.096 -0.8528 -1.6890  0.2267
11001TIP3   OH254493   4.426   4.691  12.456  0.4384  0.4323  0.5895
11001TIP3    H154494   4.426   4.640  12.374 -0.9080  0.0842  0.7855
11001TIP3    H254495   4.488   4.644  12.512 -1.0655 -1.2915  0.9092
11002TIP3   OH254496   6.701   5.333   1.814  0.5049 -0.0441  0.3831
11002TIP3    H154497   6.613   5.299   1.794  0.4763  0.8866 -1.2067
11002TIP3    H254498   6.685   5.398   1.882 -0.0231  0.0492  0.1778
11003TIP3   OH254499   5.083   1.863  12.024  0.3595 -0.2329  0.1413
11003TIP3    H154500   5.173   1.860  11.989  0.4323 -1.2222  0.3799
11003TIP3    H254501   5.066   1.773  12.051 -1.4597 -0.5595 -1.8210
11004TIP3   OH254502   0.586   1.105  14.712 -0.4446 -0.6153  0.0915
11004TIP3    H154503   0.664   1.090  14.660 -0.1819 -0.0758  0.3204
11004TIP3    H254504   0.618   1.148  14.791 -1.0169 -0.0601  0.0272
11005TIP3   OH254505   3.737   6.438  15.261  0.0037  0.6312 -0.1739
11005TIP3    H154506   3.818   6.487  15.271  0.2976  0.5321 -1.7973
11005TIP3    H254507   3.732   6.418  15.168 -1.4782 -0.0812  0.0221
11006TIP3   OH254508   2.260   5.425   2.695 -0.1778  0.4688  0.2027
11006TIP3    H154509   2.308   5.483   2.754  1.2373  0.1957 -0.6223
11006TIP3    H254510   2.295   5.338   2.714 -2.1726 -0.1407  1.3272
11007TIP3   OH254511   2.299   3.949  14.366  0.9819  0.6488 -0.0606
11007TIP3    H154512   2.299   3.933  14.461 -0.9417 -0.9339 -0.2537
11007TIP3    H254513   2.226   4.010  14.352 -2.1307 -2.8648 -0.8676
11008TIP3   OH254514   1.287   4.020  13.606  0.2732  0.2995  0.5573
11008TIP3    H154515   1.351   4.017  13.678 -0.0321  2.0596  0.9718
11008TIP3    H254516   1.322   4.087  13.547 -1.2465  1.4756  0.9078
11009TIP3   OH254517   4.730   3.229  13.978 -0.0112  0.6240 -0.2825
11009TIP3    H154518   4.826   3.230  13.974 -0.0135  0.0784 -0.4573
11009TIP3    H254519   4.705   3.146  13.938 -0.5477  0.6263  0.0490
11010TIP3   OH254520   1.349   3.940   3.251  0.0833 -0.4415  0.2043
11010TIP3    H154521   1.399   4.011   3.291 -1.0278 -1.0409  2.9014
11010TIP3    H254522   1.266   3.980   3.226  0.5500 -0.2030 -1.0408
11011TIP3   OH254523   5.217   6.579  11.761 -0.3019 -0.0822 -0.6320
11011TIP3    H154524   5.182   6.615  11.842 -1.9038  0.7534 -1.6418
11011TIP3    H254525   5.308   6.609  11.758 -0.4090  0.3902  0.5385
11012TIP3   OH254526   1.205   2.877   6.692 -0.1450  0.0792 -0.1108
11012TIP3    H154527   1.110   2.887   6.693 -0.3914 -1.8425  0.1103
11012TIP3    H254528   1.230   2.892   6.601 -0.8265 -0.5118 -0.4084
11013TIP3   OH254529   1.754   1.424  13.724 -0.0624 -0.7715 -0.0306
11013TIP3    H154530   1.840   1.433  13.767 -0.6501  0.0769  1.0070
11013TIP3    H254531   1.748   1.330  13.705 -0.0038 -1.3143  2.2981
11014TIP3   OH254532   1.589   5.569   2.381  0.6557  0.0021 -0.6700
11014TIP3    H154533   1.531   5.607   2.315  0.3066  1.9699  0.6789
11014TIP3    H254534   1.677   5.583   2.346  0.5050  1.5814 -0.5069
11015TIP3   OH254535   3.741   6.635  15.821 -0.3294 -0.2584 -0.5507
11015TIP3    H154536   3.673   6.595  15.767 -0.6708 -1.0725  0.4450
11015TIP3    H254537   3.711   6.724  15.836 -1.0964 -0.5602 -0.2681
11016TIP3   OH254538   4.242   2.106   3.601 -0.2564  0.9007  0.6268
11016TIP3    H154539   4.237   2.061   3.685  0.4233 -0.4638 -0.0292
11016TIP3    H254540   4.228   2.198   3.622  0.3042  0.6410  2.2843
11017TIP3   OH254541   2.572   0.171   1.167  0.5594 -0.8301  0.1469
11017TIP3    H154542   2.541   0.137   1.250  0.2580 -1.7358 -0.3231
11017TIP3    H254543   2.660   0.205   1.186  0.2391 -0.4472  0.9645
11018TIP3   OH254544   0.023   5.038  14.154 -0.1000  0.0905  0.4955
11018TIP3    H154545   0.090   5.006  14.215  0.5251 -1.9794 -1.1668
11018TIP3    H254546  -0.047   4.973  14.158  0.2592 -0.4842 -1.4359
11019TIP3   OH254547   0.349   6.052   1.626 -0.1179  0.0809 -0.0910
11019TIP3    H154548   0.431   6.007   1.604 -0.0862  0.5193 -0.9200
11019TIP3    H254549   0.313   6.002   1.700  0.2014 -0.9540 -0.6085
11020TIP3   OH254550   2.856   6.534  14.227 -0.0291 -0.5720  0.1542
11020TIP3    H154551   2.830   6.455  14.274  0.8109 -0.8037  0.2424
11020TIP3    H254552   2.784   6.550  14.165 -0.4693 -1.0760  0.5300
11021TIP3   OH254553   0.421   0.995   2.744 -0.3752 -0.3464  0.2483
11021TIP3    H154554   0.407   1.081   2.783 -0.6744 -1.1280  1.9257
11021TIP3    H254555   0.359   0.938   2.788 -0.5438 -1.3340 -1.2176
11022TIP3   OH254556   2.268   5.793   2.297 -0.2526  0.2951 -0.0600
11022TIP3    H154557   2.292   5.715   2.347 -0.0672  0.2614 -0.2026
11022TIP3    H254558   2.234   5.854   2.362  0.2531  0.3586  0.1441
11023TIP3   OH254559   3.818   3.186   2.593  0.0570 -0.2676  0.1231
11023TIP3    H154560   3.765   3.261   2.565  1.1921  0.6368  0.3027
11023TIP3    H254561   3.869   3.163   2.516  1.5438  0.7904  0.7413
11024TIP3   OH254562   4.249   6.187  13.165  0.3043 -0.3690 -0.3108
11024TIP3    H154563   4.280   6.244  13.095 -0.2796 -0.9323 -1.0467
11024TIP3    H254564   4.276   6.099  13.138  3.0175 -0.3221  1.7783
11025TIP3   OH254565   0.475   1.281  13.357 -0.3195  0.4181 -0.5183
11025TIP3    H154566   0.413   1.214  13.328 -1.1635  1.3226 -0.8520
11025TIP3    H254567   0.443   1.363  13.318  0.1652  1.1791  0.6183
11026TIP3   OH254568   0.413   4.176  12.870  0.5199  0.2695  0.1590
11026TIP3    H154569   0.492   4.192  12.819  1.1145  0.5090  1.1336
11026TIP3    H254570   0.407   4.251  12.929  0.5713 -0.6440  1.3447
11027TIP3   OH254571   1.840   3.165  15.390  0.3682 -0.8099 -0.7685
11027TIP3    H154572   1.898   3.180  15.464  0.6201  1.3278 -1.3166
11027TIP3    H254573   1.894   3.117  15.327  1.2591  0.2461 -0.8562
11028TIP3   OH254574   0.638   5.139   5.829 -0.1261 -0.6606  0.1262
11028TIP3    H154575   0.660   5.185   5.748  2.0552 -0.3061  0.8562
11028TIP3    H254576   0.663   5.048   5.812  0.7373 -0.5048  0.5243
11029TIP3   OH254577   1.648   0.025  13.318  0.2739  0.4346  0.5437
11029TIP3    H154578   1.703   0.096  13.351  1.2098  0.7461 -1.5304
11029TIP3    H254579   1.573   0.069  13.280  2.1829  0.7099 -3.3461
11030TIP3   OH254580   2.434   4.365   1.026  0.5915 -0.5469 -0.0513
11030TIP3    H154581   2.528   4.359   1.010  0.7546 -1.7634  1.1264
11030TIP3    H254582   2.409   4.276   1.049 -1.0523 -0.4350 -1.2839
11031TIP3   OH254583   4.310   0.861   4.373  0.1062  0.1910 -0.1719
11031TIP3    H154584   4.403   0.871   4.395 -0.1987  1.9009  0.4569
11031TIP3    H254585   4.284   0.780   4.417  1.3239 -0.4119 -0.5096
11032TIP3   OH254586   3.397   3.811  12.751  0.3619  0.3044  0.2902
11032TIP3    H154587   3.484   3.779  12.774 -0.1300 -0.0333  1.7885
11032TIP3    H254588   3.412   3.900  12.718  1.2296  0.3938  0.8878
11033TIP3   OH254589   4.008   6.806  13.194  0.1016 -1.0395 -0.3214
11033TIP3    H154590   3.947   6.778  13.262  0.2369 -0.5738 -0.0033
11033TIP3    H254591   3.981   6.757  13.116 -0.9435 -0.5255 -0.2941
11034TIP3   OH254592   6.529   5.390   4.268  0.2633  0.2201  0.3892
11034TIP3    H154593   6.585   5.456   4.309  0.9249 -0.6067  0.8565
11034TIP3    H254594   6.460   5.440   4.225  0.3839  1.1834  1.2727
11035TIP3   OH254595   6.361   0.219   1.477  0.1439  0.1208 -0.1558
11035TIP3    H154596   6.440   0.206   1.530  0.1322 -0.0257 -0.1730
11035TIP3    H254597   6.303   0.269   1.533  0.5793  0.9817 -0.4575
11036TIP3   OH254598   0.548   2.627  12.803 -0.0101  0.3519  0.0884
11036TIP3    H154599   0.464   2.651  12.763  0.1815 -0.0927 -0.5920
11036TIP3    H254600   0.614   2.662  12.744  0.2783 -0.6581 -0.2146
11037TIP3   OH254601   1.825   2.572  12.976  0.7066 -0.2926 -0.1826
11037TIP3    H154602   1.733   2.548  12.975  0.9029 -1.0607 -0.1042
11037TIP3    H254603   1.834   2.634  12.903  0.3580 -1.0719 -0.8973
11038TIP3   OH254604   2.570   4.045   5.356 -0.5925  0.4039 -0.2273
11038TIP3    H154605   2.583   4.134   5.388  0.3114  0.4618 -0.7501
11038TIP3    H254606   2.658   4.008   5.348 -0.7963  0.2393 -2.2050
11039TIP3   OH254607   0.795   1.016  15.854  0.1286 -0.2162 -0.2723
11039TIP3    H154608   0.817   1.100  15.894 -0.0235 -0.0903 -0.4499
11039TIP3    H254609   0.702   1.004  15.871  0.4660 -1.0668  1.0531
11040TIP3   OH254610   3.851   6.709  11.245  0.1892 -0.2588  0.6845
11040TIP3    H154611   3.908   6.778  11.279 -0.4552  0.8981 -0.4803
11040TIP3    H254612   3.901   6.628  11.255  0.9585  0.3571  2.0928
11041TIP3   OH254613   1.549   4.101   2.257 -0.7174 -0.0596 -0.1161
11041TIP3    H154614   1.490   4.134   2.325  0.1947 -1.7294  1.6125
11041TIP3    H254615   1.577   4.016   2.290  0.9330 -0.2896 -1.9348
11042TIP3   OH254616   0.312   0.665   5.407  0.0993 -0.9069  0.0208
11042TIP3    H154617   0.313   0.575   5.441 -1.3650 -0.7335  0.6011
11042TIP3    H254618   0.398   0.700   5.429  0.9604 -2.3731 -0.8372
11043TIP3   OH254619   5.007   6.325   5.252  0.1261  0.6493  0.1882
11043TIP3    H154620   4.956   6.252   5.286 -0.2793  0.0847 -1.5282
11043TIP3    H254621   5.098   6.293   5.254  0.2814  1.0973  1.8364
11044TIP3   OH254622   0.542   0.476  13.863  0.2273  0.2355  0.3764
11044TIP3    H154623   0.581   0.537  13.925  1.8510  2.3832 -2.5333
11044TIP3    H254624   0.449   0.499  13.863  0.5347  1.5791  0.5609
11045TIP3   OH254625   2.870   3.180  13.381 -0.1077  0.1995  0.1635
11045TIP3    H154626   2.865   3.273  13.403  1.6575  0.4334 -0.2915
11045TIP3    H254627   2.782   3.147  13.399 -0.2116  1.4933  2.3657
11046TIP3   OH254628   5.375   1.583   5.236  0.5443 -0.3924 -0.8375
11046TIP3    H154629   5.284   1.553   5.225  1.0495 -1.5004 -2.1948
11046TIP3    H254630   5.412   1.523   5.300  0.1193  0.5804  0.3687
11047TIP3   OH254631   5.513   6.433   1.860 -0.0070  0.3807 -0.7353
11047TIP3    H154632   5.560   6.515   1.872 -0.7132  0.6478  0.3794
11047TIP3    H254633   5.549   6.374   1.926  0.9021 -0.4181 -1.9068
11048TIP3   OH254634   1.887   1.610  12.859 -0.1361 -0.4533 -0.2771
11048TIP3    H154635   1.917   1.664  12.786 -0.5358  0.0440 -0.0798
11048TIP3    H254636   1.943   1.635  12.932 -0.9540  0.4105  0.0674
11049TIP3   OH254637   5.172   3.427  15.161 -0.0110  0.2771  0.0943
11049TIP3    H154638   5.112   3.378  15.105  0.8841  0.1873 -0.8090
11049TIP3    H254639   5.234   3.467  15.101  1.1578 -0.0582  1.0275
11050TIP3   OH254640   1.372   1.831   3.004  0.3266  0.3485 -0.3963
11050TIP3    H154641   1.316   1.903   3.033  1.1523  0.4703  0.9867
11050TIP3    H254642   1.459   1.870   2.995  0.7968 -0.4802  0.4304
11051TIP3   OH254643   0.550   3.648  15.294 -0.1366 -0.2643  0.1843
11051TIP3    H154644   0.562   3.653  15.389  1.8544 -0.9303  0.0079
11051TIP3    H254645   0.631   3.682  15.257  0.3343 -2.6961 -1.2373
11052TIP3   OH254646   1.280   3.696  12.014  0.6392  0.3593  0.2250
11052TIP3    H154647   1.206   3.717  11.957  1.8444  2.8271 -0.5895
11052TIP3    H254648   1.256   3.613  12.055 -1.3501 -0.3190 -2.0522
11053TIP3   OH254649   5.936   3.151   1.703  0.4364 -0.2667  0.2074
11053TIP3    H154650   5.852   3.197   1.694  0.8307  0.3080 -0.6752
11053TIP3    H254651   5.983   3.171   1.622  0.9612 -1.5546  0.1612
11054TIP3   OH254652   1.353   0.023  11.687 -0.8290  0.0560 -0.5250
11054TIP3    H154653   1.346  -0.072  11.678  0.2248  0.0419 -1.3892
11054TIP3    H254654   1.395   0.037  11.771 -1.1900 -0.2330 -0.2966
11055TIP3   OH254655   5.411   2.976  14.136 -0.0563  0.0917  0.0359
11055TIP3    H154656   5.413   2.998  14.043 -1.6872  0.8188  0.1402
11055TIP3    H254657   5.480   2.910  14.146  1.0708  0.9709 -1.4044
11056TIP3   OH254658   6.709   1.093  16.230 -0.5458  0.3216 -0.1188
11056TIP3    H154659   6.730   1.001  16.241 -1.3776  0.1651  0.2467
11056TIP3    H254660   6.641   1.110  16.296  0.9385  1.6660  1.1493
11057TIP3   OH254661   5.333   4.491  16.095  0.1856  0.2428 -0.6571
11057TIP3    H154662   5.275   4.566  16.105  0.8680  0.7916 -0.7004
11057TIP3    H254663   5.306   4.431  16.165 -0.3641  0.5265 -0.6167
11058TIP3   OH254664   6.834   0.697   1.706 -0.6204 -0.5914  0.1022
11058TIP3    H154665   6.898   0.764   1.732 -1.7574  0.8104 -0.5660
11058TIP3    H254666   6.797   0.666   1.789  0.7355 -1.2699  0.4874
11059TIP3   OH254667   4.624   3.460  11.735 -0.6058  0.0253  0.0496
11059TIP3    H154668   4.562   3.388  11.731 -1.1020  0.4806 -1.5333
11059TIP3    H254669   4.710   3.418  11.739 -0.8940 -0.6647 -0.7042
11060TIP3   OH254670   5.930   3.943   2.893 -0.0010 -0.5257  0.0468
11060TIP3    H154671   5.935   3.848   2.898  1.3976 -0.4070  1.8560
11060TIP3    H254672   6.006   3.974   2.941 -0.8557  1.5236  0.2025
11061TIP3   OH254673   5.539   1.805  15.881  0.3722 -0.1550  0.8004
11061TIP3    H154674   5.502   1.880  15.835 -1.8479 -1.4150  0.4355
11061TIP3    H254675   5.560   1.839  15.968 -1.5839  0.6763  0.9976
11062TIP3   OH254676   3.175   0.546   4.719 -0.2161  0.0915 -0.0202
11062TIP3    H154677   3.087   0.552   4.684 -0.7722 -0.2428  1.2379
11062TIP3    H254678   3.219   0.480   4.665 -0.8731 -0.0432 -0.3929
11063TIP3   OH254679   0.189   3.870  13.909  0.1062  0.1551  0.0981
11063TIP3    H154680   0.211   3.806  13.976  1.6024  0.5397  0.0323
11063TIP3    H254681   0.221   3.953  13.944 -0.1590  0.5510 -0.5768
11064TIP3   OH254682   2.338   2.391   0.158 -0.4794  0.2050 -0.4341
11064TIP3    H154683   2.245   2.398   0.134 -0.0512  1.9837 -1.7915
11064TIP3    H254684   2.376   2.337   0.089 -0.6065 -1.0836  0.4886
11065TIP3   OH254685   6.440   5.623  12.731 -0.6269 -0.3764  0.0427
11065TIP3    H154686   6.352   5.621  12.768 -0.5361  0.0777  0.2829
11065TIP3    H254687   6.485   5.548  12.770  0.7529  2.2148  4.0343
11066TIP3   OH254688   6.286   3.806   4.550 -0.2947  0.2908  0.1131
11066TIP3    H154689   6.294   3.895   4.515 -0.1838  0.3903  0.3838
11066TIP3    H254690   6.367   3.793   4.600 -0.0610 -0.1690 -0.3794
11067TIP3   OH254691   4.747   3.504   1.028  0.2372 -0.3801  0.4958
11067TIP3    H154692   4.790   3.487   1.111  0.6884  0.9741  0.5609
11067TIP3    H254693   4.678   3.438   1.023  0.1180 -0.4012  2.0015
11068TIP3   OH254694   6.419   3.952  14.092 -0.6753  0.8264 -0.1499
11068TIP3    H154695   6.402   3.914  14.006 -1.7465  0.3114  0.2681
11068TIP3    H254696   6.350   3.915  14.148  1.0444 -0.2853  1.3606
11069TIP3   OH254697   0.100   2.094  16.289  0.2042  0.3277 -0.3320
11069TIP3    H154698   0.146   2.010  16.292 -0.3647 -0.1484 -2.5362
11069TIP3    H254699   0.146   2.144  16.220 -1.1756  0.6891 -1.0312
11070TIP3   OH254700   2.695   5.691  16.172 -0.2618  0.4752 -0.7662
11070TIP3    H154701   2.737   5.628  16.231  1.2073  1.9464 -0.1226
11070TIP3    H254702   2.688   5.646  16.088 -0.1337 -0.8452 -0.0814
11071TIP3   OH254703   5.354   1.980  11.484  0.0621  0.6634 -0.5984
11071TIP3    H154704   5.449   1.975  11.479 -0.0217 -1.4809 -1.3330
11071TIP3    H254705   5.336   1.990  11.577  1.0055 -2.2210 -0.0081
11072TIP3   OH254706   5.895   2.053   1.107  0.6496 -0.1680  0.8184
11072TIP3    H154707   5.925   2.046   1.197  0.4652 -1.7253  0.7917
11072TIP3    H254708   5.802   2.075   1.113  0.7347  0.1340  1.0009
11073TIP3   OH254709   5.824   2.443  13.269  0.0313 -0.6405  0.0797
11073TIP3    H154710   5.908   2.483  13.248 -0.3562  0.3087  0.2507
11073TIP3    H254711   5.826   2.357  13.228  0.3243  0.1177 -1.5866
11074TIP3   OH254712   3.332   2.974   2.196 -0.0827  0.0141 -0.0746
11074TIP3    H154713   3.292   2.887   2.197  1.6214 -0.8166  0.1471
11074TIP3    H254714   3.311   3.010   2.110  0.6604 -1.3546 -0.8553
11075TIP3   OH254715   0.523   4.228   5.770  0.0057 -0.5914  0.0656
11075TIP3    H154716   0.539   4.281   5.692  1.1383 -2.1461 -0.8213
11075TIP3    H254717   0.428   4.233   5.784 -0.1853 -0.1216 -1.2911
11076TIP3   OH254718   5.071   5.059   4.235 -0.2602  0.7233  0.8161
11076TIP3    H154719   5.145   5.119   4.232  0.9531 -0.7339  0.0807
11076TIP3    H254720   5.035   5.061   4.146 -0.0856  0.2299  0.7315
11077TIP3   OH254721   2.118   3.757   5.445  0.3793 -0.2854  0.4402
11077TIP3    H154722   2.146   3.847   5.461  0.9409 -0.4494  0.3756
11077TIP3    H254723   2.096   3.723   5.531  1.2023 -0.4280  0.6030
11078TIP3   OH254724   0.565   1.789   0.592 -0.1572  0.0591 -0.1646
11078TIP3    H154725   0.549   1.811   0.500 -0.3002  1.3770  0.1502
11078TIP3    H254726   0.643   1.839   0.615 -0.2218 -0.1349  0.4789
11079TIP3   OH254727   4.504   3.202   5.074  0.0196  0.3374  0.0768
11079TIP3    H154728   4.503   3.178   5.167  0.6361 -2.9979 -0.6524
11079TIP3    H254729   4.591   3.177   5.044 -0.2553  1.1412 -1.4762
11080TIP3   OH254730   5.636   3.700   6.083 -0.0220 -0.2076  0.0677
11080TIP3    H154731   5.607   3.768   6.143  0.8535  0.5485 -0.3426
11080TIP3    H254732   5.583   3.623   6.106  1.9727 -0.7578  3.5396
11081TIP3   OH254733   5.799   3.472  11.402  0.2665 -0.3087 -0.0545
11081TIP3    H154734   5.755   3.552  11.431  0.0585 -0.8540  1.1968
11081TIP3    H254735   5.853   3.446  11.476  2.2467 -0.0320 -1.3085
11082TIP3   OH254736   6.621   3.821  14.732  0.1925  0.3522 -0.1585
11082TIP3    H154737   6.594   3.804  14.641 -0.7478  0.5026  0.0783
11082TIP3    H254738   6.549   3.873  14.768  0.8509  0.8196  0.4932
11083TIP3   OH254739   2.369   0.053  14.037  0.2412  0.3337  0.0839
11083TIP3    H154740   2.433   0.120  14.062 -0.7126  0.8007  1.3917
11083TIP3    H254741   2.395  -0.025  14.086  0.2409  0.3029  0.0354
11084TIP3   OH254742   0.661   6.369  13.490  0.3004 -0.4429 -0.4401
11084TIP3    H154743   0.737   6.328  13.532 -1.1798 -2.3898  0.5057
11084TIP3    H254744   0.591   6.304  13.498 -1.6923  1.5603 -0.5781
11085TIP3   OH254745   2.902   4.914   4.702 -0.5908  0.0979 -0.2906
11085TIP3    H154746   2.854   4.909   4.784  1.2849  1.0650  0.9468
11085TIP3    H254747   2.945   4.829   4.694 -0.1581  0.2687  0.1543
11086TIP3   OH254748   3.161   3.334   1.682 -0.1329 -0.0721 -0.4063
11086TIP3    H154749   3.143   3.426   1.665  0.2929  0.6569  2.5738
11086TIP3    H254750   3.248   3.319   1.645  0.5258  1.2144  0.5540
11087TIP3   OH254751   2.615   0.597  12.718  0.4612 -0.2810 -0.0757
11087TIP3    H154752   2.543   0.654  12.744  1.9172  1.8778 -0.5488
11087TIP3    H254753   2.618   0.604  12.622  0.7631 -1.0569 -0.1368
11088TIP3   OH254754   0.781   3.552  14.958 -0.2631  0.2616  0.6182
11088TIP3    H154755   0.862   3.588  14.920  0.3643  0.3889  2.0217
11088TIP3    H254756   0.728   3.630  14.977 -0.9527  0.1585 -0.7290
11089TIP3   OH254757   1.674   2.614   2.622  0.3775  0.6423 -0.1306
11089TIP3    H154758   1.609   2.585   2.686 -0.1422  0.1715 -0.8646
11089TIP3    H254759   1.650   2.705   2.603  1.0793  1.0956  1.0021
11090TIP3   OH254760   6.465   0.007  10.998 -0.1790  0.1315 -0.2959
11090TIP3    H154761   6.527  -0.039  10.941 -0.4366 -1.1749  0.4427
11090TIP3    H254762   6.436   0.082  10.946  3.0510  1.6178 -0.1716
11091TIP3   OH254763   3.015   5.200   0.919  0.0589 -0.3226  0.1898
11091TIP3    H154764   3.081   5.156   0.866  0.7477  0.8188  0.0495
11091TIP3    H254765   2.932   5.173   0.882  0.5179  0.2498 -1.3406
11092TIP3   OH254766   1.891   0.446   4.456 -0.2088 -0.1590  0.1394
11092TIP3    H154767   1.974   0.472   4.495 -0.4613  0.6907  0.1387
11092TIP3    H254768   1.825   0.476   4.518 -0.5426 -0.2644 -0.1595
11093TIP3   OH254769   1.579   6.774  16.321 -0.1988  0.3121  0.1401
11093TIP3    H154770   1.663   6.734  16.343  0.3115  1.4491  0.2889
11093TIP3    H254771   1.523   6.754  16.397  0.2254  0.3914  0.4761
11094TIP3   OH254772   5.661   4.478  14.056 -0.8898  0.3712  0.6986
11094TIP3    H154773   5.724   4.438  13.996 -1.7524 -0.3159  0.2347
11094TIP3    H254774   5.585   4.420  14.054 -1.2049  0.7104  1.9324
11095TIP3   OH254775   0.763   2.975  11.108 -0.6526  0.3611  0.5685
11095TIP3    H154776   0.780   3.050  11.164  0.3308 -0.3986  1.3216
11095TIP3    H254777   0.734   2.906  11.168  0.3791 -0.4565  0.1682
11096TIP3   OH254778   0.307   1.773  16.911 -0.6025 -0.4463 -0.5524
11096TIP3    H154779   0.303   1.682  16.939 -0.0242 -0.0190  1.0300
11096TIP3    H254780   0.401   1.794  16.914 -0.7806  0.3408 -0.4238
11097TIP3   OH254781   4.688   4.930   1.163  0.0062 -0.4881  0.1651
11097TIP3    H154782   4.772   4.903   1.128 -0.1686 -0.0155 -0.6477
11097TIP3    H254783   4.707   5.007   1.217 -0.1128  0.7618 -1.5027
11098TIP3   OH254784   0.654   2.888   0.442  0.2673  0.0630  0.1206
11098TIP3    H154785   0.638   2.898   0.348 -0.6011 -0.0597  0.2452
11098TIP3    H254786   0.640   2.795   0.460 -1.0095  0.3219  0.6066
11099TIP3   OH254787   2.172   2.001   2.933  0.4438  0.2187  0.0589
11099TIP3    H154788   2.135   2.059   2.867 -0.7810  0.5520  1.0084
11099TIP3    H254789   2.241   1.953   2.887  0.1684  1.0292 -1.2372
11100TIP3   OH254790   1.559   4.129   3.330 -0.0116  0.0987  0.1372
11100TIP3    H154791   1.640   4.079   3.341 -1.4829 -1.9462  3.0941
11100TIP3    H254792   1.535   4.153   3.420 -2.5102  0.9230 -0.6911
11101TIP3   OH254793   2.965   2.379  14.675  0.4378  0.1198  0.5073
11101TIP3    H154794   2.872   2.400  14.681 -0.0995 -1.8235 -0.2569
11101TIP3    H254795   3.009   2.447  14.726 -1.3073  1.6080  0.1149
11102TIP3   OH254796   5.681   1.304   2.702 -1.0037  0.3632 -0.4452
11102TIP3    H154797   5.659   1.288   2.610 -0.2786 -1.1288 -0.3885
11102TIP3    H254798   5.627   1.379   2.727 -2.4089 -0.2163 -1.6276
11103TIP3   OH254799   1.157   2.772  13.076  0.3552  0.3279 -0.1052
11103TIP3    H154800   1.160   2.743  12.985 -1.0732  0.4478 -0.2063
11103TIP3    H254801   1.160   2.867  13.072  1.5013  0.3051  0.0446
11104TIP3   OH254802   3.817   4.631  13.569 -0.7479  0.7182 -0.0387
11104TIP3    H154803   3.837   4.556  13.513 -0.7323  1.7649 -1.4881
11104TIP3    H254804   3.873   4.620  13.645  1.5970  0.8529 -1.6515
11105TIP3   OH254805   6.038   2.299  15.696  0.0040  0.2503  0.2869
11105TIP3    H154806   6.001   2.376  15.651  0.5892  1.4626  1.8062
11105TIP3    H254807   6.071   2.333  15.779  1.3610 -1.4498  0.4972
11106TIP3   OH254808   0.936   2.311  16.125  0.1834 -0.0210 -0.3647
11106TIP3    H154809   1.000   2.249  16.090  0.6257  0.3113 -0.1439
11106TIP3    H254810   0.890   2.263  16.194  1.3817  0.2878  0.6765
11107TIP3   OH254811   2.553   4.910   0.940 -0.6802  0.1088  0.0556
11107TIP3    H154812   2.640   4.875   0.961 -0.9978 -0.7318  0.0392
11107TIP3    H254813   2.495   4.872   1.007 -1.1712 -0.0463 -0.4437
11108TIP3   OH254814   4.326   3.910   0.987  0.4063  0.0502  0.1353
11108TIP3    H154815   4.301   3.867   0.906 -0.1629 -0.0146  0.3444
11108TIP3    H254816   4.253   3.968   1.007  0.3030 -0.3263  0.8825
11109TIP3   OH254817   6.603   4.136   4.917  0.7976  0.7713 -0.0170
11109TIP3    H154818   6.641   4.149   5.004 -0.0024 -0.2280  0.5053
11109TIP3    H254819   6.554   4.216   4.899 -1.1674  0.0320  1.6068
11110TIP3   OH254820   3.445   5.776   2.936  0.3490 -0.3271 -0.0594
11110TIP3    H154821   3.489   5.734   3.010 -2.4593 -0.8729  1.4539
11110TIP3    H254822   3.399   5.705   2.891  2.8280 -0.1905 -3.1174
11111TIP3   OH254823   0.015   1.498   0.703 -0.5404 -0.6079 -0.4231
11111TIP3    H154824  -0.078   1.508   0.725 -0.6516 -2.9819  0.4835
11111TIP3    H254825   0.015   1.477   0.609 -0.7010  1.5296 -0.9448
11112TIP3   OH254826   2.731   5.777   4.302  0.6239  0.1130  0.3790
11112TIP3    H154827   2.820   5.781   4.336  0.1806  1.0466  1.4815
11112TIP3    H254828   2.720   5.858   4.253  0.4544 -0.1087  0.0473
11113TIP3   OH254829   3.397   2.602   2.235  0.0793  0.3304 -0.3194
11113TIP3    H154830   3.386   2.518   2.190  0.9911  0.0976 -0.1300
11113TIP3    H254831   3.318   2.651   2.214  0.5552  0.3234 -2.3741
11114TIP3   OH254832   4.506   2.928  13.542  0.3602 -0.2470 -0.8430
11114TIP3    H154833   4.484   2.872  13.468 -3.5207 -0.8651  0.5563
11114TIP3    H254834   4.485   2.875  13.619  0.9483  1.5478  0.6249
11115TIP3   OH254835   5.251   5.839   4.383 -0.4472 -0.1541  0.2615
11115TIP3    H154836   5.199   5.884   4.317 -0.2027  0.7933  0.6935
11115TIP3    H254837   5.261   5.903   4.453  1.8373 -0.0391 -0.0848
11116TIP3   OH254838   0.505   5.468   2.008 -0.2800  0.1662 -0.3023
11116TIP3    H154839   0.499   5.523   1.930  0.5374  2.0848  0.9178
11116TIP3    H254840   0.557   5.392   1.979 -0.5942  0.4798 -1.7838
11117TIP3   OH254841   3.262   5.521  13.707  0.4118 -0.0922  0.7704
11117TIP3    H154842   3.264   5.432  13.741 -0.8719  0.4655  2.4475
11117TIP3    H254843   3.309   5.516  13.624 -3.3814 -3.2627 -1.5179
11118TIP3   OH254844   3.837   1.827   2.003  0.5668 -0.1999 -0.2998
11118TIP3    H154845   3.880   1.807   2.086 -2.2978 -0.7096  1.1861
11118TIP3    H254846   3.777   1.899   2.023  0.6835  0.5171 -2.2555
11119TIP3   OH254847   0.978   1.885  11.829  0.4732 -0.2031  0.0778
11119TIP3    H154848   1.058   1.844  11.861  0.8850  0.3482 -0.2188
11119TIP3    H254849   1.005   1.974  11.805  0.2693 -0.6711 -2.0657
11120TIP3   OH254850   5.680   6.834   1.301 -0.0305 -0.0904 -0.9001
11120TIP3    H154851   5.653   6.897   1.235  1.5197 -1.9227 -3.4790
11120TIP3    H254852   5.754   6.876   1.345  0.0860  0.4613 -1.6044
11121TIP3   OH254853   6.240   1.953  16.808  0.1300 -0.3178  0.0079
11121TIP3    H154854   6.283   2.012  16.747 -1.2049  0.4221 -0.2620
11121TIP3    H254855   6.302   1.942  16.880  0.6753  0.8721 -0.2613
11122TIP3   OH254856   0.433   4.832   1.821  0.0496 -0.3719  0.3587
11122TIP3    H154857   0.521   4.814   1.855 -0.1382 -1.5877  0.2394
11122TIP3    H254858   0.374   4.809   1.892 -0.2487 -1.1461 -0.1253
11123TIP3   OH254859   3.728   2.501   3.140  0.0862 -0.1597 -0.1133
11123TIP3    H154860   3.686   2.586   3.126  1.8303  0.6624 -0.5483
11123TIP3    H254861   3.756   2.503   3.232  3.0511  1.1544 -0.9564
11124TIP3   OH254862   1.677   3.009   2.350  0.3166  0.1639  0.1237
11124TIP3    H154863   1.711   2.920   2.342 -0.2149  0.0416 -0.9168
11124TIP3    H254864   1.754   3.062   2.371  0.6378 -0.5325  0.7460
11125TIP3   OH254865   3.061   3.118   2.102 -0.0303 -0.5382  0.0667
11125TIP3    H154866   3.136   3.129   2.043  0.8799  0.0156  1.2879
11125TIP3    H254867   2.988   3.159   2.055  0.6519 -0.1796 -0.7174
11126TIP3   OH254868   4.677   2.029  13.094  0.5501 -0.2288  0.4881
11126TIP3    H154869   4.766   2.051  13.067  0.3551 -0.9242 -0.7970
11126TIP3    H254870   4.687   1.955  13.153  0.8719  0.1858  0.9580
11127TIP3   OH254871   2.870   1.856   0.993 -0.1830 -0.3854  0.5082
11127TIP3    H154872   2.886   1.778   1.046 -0.3416 -1.0446 -0.3936
11127TIP3    H254873   2.893   1.829   0.904 -0.4173  0.5464  0.1573
11128TIP3   OH254874   1.654   3.123  10.463  0.7821 -0.2767 -0.1816
11128TIP3    H154875   1.560   3.112  10.450  0.6660 -0.9422  1.0065
11128TIP3    H254876   1.694   3.056  10.408  0.5859  0.2135 -0.9311
11129TIP3   OH254877   0.432   1.600   0.156  0.3628 -0.4468  0.5827
11129TIP3    H154878   0.378   1.608   0.234 -0.3511  0.8297 -0.0096
11129TIP3    H254879   0.516   1.567   0.188 -0.3328 -1.1779  1.6958
11130TIP3   OH254880   6.720   5.704   2.449  0.7321 -0.5078  0.5303
11130TIP3    H154881   6.699   5.616   2.480 -0.5625  0.1106  1.4814
11130TIP3    H254882   6.742   5.753   2.528 -1.3624  0.7600  0.4104
11131TIP3   OH254883   1.093   6.182   5.469 -0.1027 -0.2540  0.0782
11131TIP3    H154884   1.107   6.193   5.563 -0.6003 -0.2137  0.1493
11131TIP3    H254885   1.069   6.269   5.438  0.0163 -0.2766 -0.0788
11132TIP3   OH254886   3.785   1.259  11.480 -0.4557  0.2544  0.0381
11132TIP3    H154887   3.712   1.205  11.511  0.3886 -0.0837  1.5577
11132TIP3    H254888   3.863   1.215  11.514  0.4345  0.9274 -1.0558
11133TIP3   OH254889   4.929   2.431  11.851 -0.0580  0.2306  0.6684
11133TIP3    H154890   4.944   2.428  11.756  1.3719  0.6847  0.8623
11133TIP3    H254891   4.871   2.506  11.864  1.4598  1.4971  0.3391
11134TIP3   OH254892   6.148   5.438  12.790  0.0350  0.0543  0.2648
11134TIP3    H154893   6.056   5.464  12.792 -0.9225 -3.0085  0.5191
11134TIP3    H254894   6.167   5.424  12.697  0.0169 -0.0395  0.2751
11135TIP3   OH254895   0.436   6.827   3.465 -0.3854 -0.4748  0.4933
11135TIP3    H154896   0.416   6.918   3.443 -0.9799 -0.7535 -0.1678
11135TIP3    H254897   0.429   6.823   3.560 -1.0958  0.0056  0.4709
11136TIP3   OH254898   4.851   2.507   1.851  0.4357  0.3569 -0.0934
11136TIP3    H154899   4.915   2.556   1.800  1.4421 -1.0303 -0.2224
11136TIP3    H254900   4.881   2.515   1.942 -0.5691  1.6532  0.1652
11137TIP3   OH254901   2.177   6.482   2.007  0.1963 -0.2507  0.1523
11137TIP3    H154902   2.120   6.414   1.969 -2.2371  1.0766  1.1547
11137TIP3    H254903   2.206   6.446   2.090 -0.1285 -0.5199  0.1517
11138TIP3   OH254904   4.962   1.876   6.088 -0.9405 -0.1560  0.0035
11138TIP3    H154905   5.037   1.904   6.139 -0.8646  2.3177 -1.3463
11138TIP3    H254906   4.927   1.801   6.136  1.1533 -0.0929  1.7500
11139TIP3   OH254907   3.795   2.422   1.811 -0.3200  1.1269  0.7001
11139TIP3    H154908   3.834   2.340   1.841 -0.1575  1.3701  1.1683
11139TIP3    H254909   3.807   2.421   1.716 -2.4651 -0.4924  0.3686
11140TIP3   OH254910   1.858   4.010  13.344  0.4987  0.2661  0.2237
11140TIP3    H154911   1.943   4.017  13.386  1.1738 -0.2838 -0.9879
11140TIP3    H254912   1.837   3.917  13.345  0.9071  0.1230 -1.2955
11141TIP3   OH254913   6.003   0.086   3.509  0.0720  0.1279  0.1648
11141TIP3    H154914   5.957   0.115   3.430 -1.2766 -0.2220  0.7968
11141TIP3    H254915   5.936   0.083   3.576  0.8068 -1.4307  0.8779
11142TIP3   OH254916   3.530   2.496   3.653 -0.0530  0.2281  0.0430
11142TIP3    H154917   3.612   2.457   3.683 -0.3647  0.3806  1.1593
11142TIP3    H254918   3.551   2.532   3.567  0.6961 -0.8569 -0.2550
11143TIP3   OH254919   2.740   5.837  16.559 -0.1345  0.5866  0.4777
11143TIP3    H154920   2.720   5.786  16.637 -1.5353 -0.3645 -0.4582
11143TIP3    H254921   2.670   5.815  16.497  2.6719 -1.3870 -2.3247
11144TIP3   OH254922   2.464   2.360   2.231 -0.0203 -0.8530 -0.2405
11144TIP3    H154923   2.369   2.354   2.230 -0.0761 -0.2464  0.5248
11144TIP3    H254924   2.486   2.390   2.319  0.8560 -0.6176 -0.5239
11145TIP3   OH254925   1.196   3.587  11.230  0.6038  0.0402  0.0257
11145TIP3    H154926   1.205   3.674  11.270 -0.7769 -0.1294  0.7799
11145TIP3    H254927   1.232   3.597  11.143  1.9109  0.9489  0.6396
11146TIP3   OH254928   4.070   0.963   3.332 -0.0101 -0.0678  0.5473
11146TIP3    H154929   4.123   0.999   3.261 -0.5042 -1.8313 -0.7886
11146TIP3    H254930   4.133   0.945   3.402  1.0583 -1.2338 -0.6468
11147TIP3   OH254931   1.589   1.790   4.493 -0.4800  0.0098 -0.1206
11147TIP3    H154932   1.496   1.769   4.486 -0.6893  0.5401  0.8177
11147TIP3    H254933   1.634   1.706   4.481 -0.9260  0.0969 -2.8447
11148TIP3   OH254934   2.770   0.862   5.383 -0.5837 -0.4330 -1.1250
11148TIP3    H154935   2.757   0.773   5.414  0.3888  0.3317  1.7706
11148TIP3    H254936   2.728   0.917   5.449  1.8171  1.3297 -0.9336
11149TIP3   OH254937   0.266   1.892  16.275  0.3809 -0.0792  0.2570
11149TIP3    H154938   0.283   1.841  16.354 -1.5138 -0.3108  0.5506
11149TIP3    H254939   0.258   1.827  16.205 -1.5005 -0.2042  0.5377
11150TIP3   OH254940   5.340   3.423   5.996  0.3813  0.4412  0.0319
11150TIP3    H154941   5.374   3.462   6.077 -0.0222  2.0039 -0.5129
11150TIP3    H254942   5.255   3.466   5.984 -0.0565 -0.5895 -0.6488
11151TIP3   OH254943   0.362   3.020   0.032 -0.2992  0.3216  0.4961
11151TIP3    H154944   0.298   2.950   0.016  0.3849 -0.0133 -0.9724
11151TIP3    H254945   0.337   3.056   0.117  0.5154 -3.0480  2.3678
11152TIP3   OH254946   6.329   1.997  15.487  0.6818  0.3036 -0.0637
11152TIP3    H154947   6.420   1.981  15.462  0.6754 -1.0648  0.6772
11152TIP3    H254948   6.308   2.082  15.449  2.6325  1.1823  0.6869
11153TIP3   OH254949   0.791   4.613  12.784  0.4634 -0.3395 -0.1797
11153TIP3    H154950   0.856   4.682  12.795  1.7472 -1.2261 -1.8091
11153TIP3    H254951   0.748   4.632  12.701  2.6782 -2.7957 -2.0905
11154TIP3   OH254952   5.662   0.034  13.207  0.2784  0.0979 -0.2718
11154TIP3    H154953   5.626   0.120  13.183 -1.2209 -0.5526 -0.4693
11154TIP3    H254954   5.757   0.047  13.206  0.0929  1.6979 -0.4907
11155TIP3   OH254955   3.447   4.454   2.799 -0.4955  0.5562 -0.3711
11155TIP3    H154956   3.503   4.506   2.856  0.1605 -2.3491  1.8641
11155TIP3    H254957   3.361   4.496   2.806  0.1785  1.8546  0.5783
11156TIP3   OH254958   6.344   2.682  11.119  0.4204  0.3076 -0.0038
11156TIP3    H154959   6.308   2.593  11.116  1.5479 -0.1729  0.2142
11156TIP3    H254960   6.427   2.675  11.072  0.1012  1.4600 -0.7707
11157TIP3   OH254961   3.352   3.851  13.260 -0.5270 -0.7148  0.5150
11157TIP3    H154962   3.422   3.895  13.308 -1.0850  1.2526 -0.3402
11157TIP3    H254963   3.297   3.923  13.227 -0.8375 -1.9927 -1.9988
11158TIP3   OH254964   1.019   5.707  15.670  0.1568  0.3881 -0.2438
11158TIP3    H154965   0.957   5.738  15.736 -0.8985  0.6471 -1.3205
11158TIP3    H254966   1.046   5.620  15.701 -0.9632  0.1545  0.1067
11159TIP3   OH254967   2.136   2.809  10.157 -0.4478 -0.9046 -0.3552
11159TIP3    H154968   2.097   2.773  10.237  0.6276 -0.3058  0.4681
11159TIP3    H254969   2.197   2.876  10.189 -0.0727 -0.5912 -1.6949
11160TIP3   OH254970   2.468   2.424  13.354 -0.5312 -0.0954  0.0722
11160TIP3    H154971   2.418   2.366  13.412 -1.0497  0.3535  0.0893
11160TIP3    H254972   2.420   2.507  13.357 -0.4948 -0.0283 -0.8967
11161TIP3   OH254973   5.194   2.757   4.842  0.0272  0.0890  0.1785
11161TIP3    H154974   5.277   2.731   4.801  0.0014  0.8909 -0.4105
11161TIP3    H254975   5.219   2.820   4.910 -0.0050 -0.5665  0.8032
11162TIP3   OH254976   0.686   6.218  13.891  0.1192  0.2726 -0.2624
11162TIP3    H154977   0.705   6.143  13.835  0.9620  0.4111 -0.1846
11162TIP3    H254978   0.752   6.284  13.866  1.7850 -0.3445  2.1580
11163TIP3   OH254979   5.189   4.385  13.943  0.4810  0.3589  0.0780
11163TIP3    H154980   5.105   4.431  13.946 -0.2751 -0.7529 -1.8931
11163TIP3    H254981   5.236   4.426  13.870  1.7569  1.0525  1.2353
11164TIP3   OH254982   0.947   2.418   3.126 -0.4990 -0.2774 -0.2979
11164TIP3    H154983   0.949   2.510   3.152 -0.5187 -0.3660  0.0255
11164TIP3    H254984   0.871   2.411   3.069 -1.4519 -0.4107  0.9368
11165TIP3   OH254985   4.775   0.745   2.945  0.2011  0.0643  0.5836
11165TIP3    H154986   4.826   0.826   2.950  2.9383 -1.3615 -1.7332
11165TIP3    H254987   4.725   0.753   2.864  1.1182 -0.8533 -0.0940
11166TIP3   OH254988   4.821   5.506   6.526  0.0880  0.5117 -0.1823
11166TIP3    H154989   4.786   5.549   6.448  0.8072  2.5229  0.5340
11166TIP3    H254990   4.911   5.536   6.532  0.6876 -1.2481  0.3149
11167TIP3   OH254991   5.539   5.573   0.846  0.1538  0.6080  0.0948
11167TIP3    H154992   5.615   5.629   0.830 -0.8316  1.7198 -0.7967
11167TIP3    H254993   5.529   5.522   0.766  0.0404  0.3564  0.2666
11168TIP3   OH254994   6.513   4.864  11.903 -0.0139  0.1547  0.0060
11168TIP3    H154995   6.538   4.829  11.989 -1.0668  1.8400  1.0730
11168TIP3    H254996   6.581   4.928  11.883  0.0649 -0.0163 -0.2772
11169TIP3   OH254997   0.545   2.201  10.853 -0.0441 -0.3567 -0.1021
11169TIP3    H154998   0.494   2.220  10.775  0.5656 -0.6311 -0.5827
11169TIP3    H254999   0.635   2.226  10.829  0.0109  0.3394  0.8002
11170TIP3   OH255000   0.242   1.958   5.979  0.5945 -0.1394  0.7409
11170TIP3    H155001   0.287   2.042   5.989  2.3632 -0.9778  0.2923
11170TIP3    H255002   0.225   1.930   6.069  0.5603  0.4056  0.9119
11171TIP3   OH255003   6.675   3.473  15.187 -0.0952  0.3903 -0.0702
11171TIP3    H155004   6.619   3.523  15.247  0.1906 -1.3277  1.7469
11171TIP3    H255005   6.761   3.513  15.196 -0.2230  0.6271  0.1111
11172TIP3   OH255006   6.475   4.037   0.012 -0.0029  0.2264 -0.4830
11172TIP3    H155007   6.478   3.944  -0.009  0.6125 -0.1537  1.1730
11172TIP3    H255008   6.382   4.056   0.023 -0.0559 -0.6075  0.7804
11173TIP3   OH255009   0.735   4.514   2.428 -0.0508 -0.2883  0.1667
11173TIP3    H155010   0.674   4.458   2.476 -1.4843  1.2849  0.2559
11173TIP3    H255011   0.680   4.576   2.381  1.4592  1.8833  1.0804
11174TIP3   OH255012   4.946   1.263  13.188 -0.1608  0.3068 -0.3200
11174TIP3    H155013   4.925   1.233  13.276  0.6547 -1.0022 -0.5365
11174TIP3    H255014   4.884   1.334  13.171 -1.3015 -0.3964  0.7469
11175TIP3   OH255015   4.361   1.600  11.661  0.2481 -0.1466 -0.0670
11175TIP3    H155016   4.271   1.567  11.662  0.9458 -2.1932 -0.9225
11175TIP3    H255017   4.359   1.672  11.598 -0.8779  0.1669  0.2919
11176TIP3   OH255018   0.823   1.830   1.625 -0.5594 -0.2288  0.5272
11176TIP3    H155019   0.821   1.918   1.664  1.1518  0.3986 -0.7102
11176TIP3    H255020   0.796   1.844   1.535 -2.3786 -1.3521  0.8458
11177TIP3   OH255021   6.529   2.136   0.728 -0.1097  0.1791 -0.4429
11177TIP3    H155022   6.573   2.212   0.766 -2.4810  1.2847  0.2345
11177TIP3    H255023   6.469   2.106   0.795  0.2341 -1.8866 -0.9825
11178TIP3   OH255024   1.609   2.319   2.626 -0.1792 -0.5701  0.0965
11178TIP3    H155025   1.644   2.276   2.548  0.4026 -1.4433  0.8204
11178TIP3    H255026   1.661   2.398   2.636  0.8794 -1.3009  0.5352
11179TIP3   OH255027   1.910   5.378   1.611 -0.2480  0.9112  0.0886
11179TIP3    H155028   1.902   5.405   1.520  0.7577  0.1706 -0.2381
11179TIP3    H255029   1.985   5.318   1.612 -1.4334 -0.6508  1.0335
11180TIP3   OH255030   1.619   0.625   3.462  0.0710 -0.0812  0.2331
11180TIP3    H155031   1.572   0.700   3.499 -0.5217  0.2754 -1.1674
11180TIP3    H255032   1.583   0.549   3.507  1.2220  0.4927  2.2286
11181TIP3   OH255033   2.660   1.464  15.298 -0.0841 -0.3413  0.2783
11181TIP3    H155034   2.632   1.465  15.207 -2.0824 -0.0793  0.8511
11181TIP3    H255035   2.653   1.555  15.326 -1.0657 -0.6684  1.1350
11182TIP3   OH255036   3.124   5.132  12.684 -0.3028  0.4181  0.6408
11182TIP3    H155037   3.088   5.155  12.598  1.0564 -0.6477 -0.2407
11182TIP3    H255038   3.048   5.100  12.734 -0.6154 -2.0443 -1.2521
11183TIP3   OH255039   0.215   2.653  12.458  0.2550 -0.6062  0.3876
11183TIP3    H155040   0.157   2.643  12.383  0.3719 -0.5405  0.2876
11183TIP3    H255041   0.304   2.647  12.421  0.3094 -1.3937  0.6343
11184TIP3   OH255042   5.528   6.377  17.163 -0.2326  0.0810 -0.0211
11184TIP3    H155043   5.606   6.398  17.215 -0.9514 -0.1838  1.2022
11184TIP3    H255044   5.513   6.284  17.179 -1.0780  0.2365  0.1349
11185TIP3   OH255045   3.104   0.337  15.530 -0.0785 -0.1690 -0.2270
11185TIP3    H155046   3.187   0.374  15.559 -0.0550 -0.2054 -0.2488
11185TIP3    H255047   3.092   0.259  15.584  1.1196 -1.6057 -1.9129
11186TIP3   OH255048   1.089   2.157   4.877  0.1448 -0.0581 -0.0596
11186TIP3    H155049   1.081   2.242   4.833  0.4084 -0.3118 -0.6044
11186TIP3    H255050   1.123   2.098   4.809  1.9579 -0.1342  0.8434
11187TIP3   OH255051   0.851   0.643   5.081  0.8187  0.2146  0.1983
11187TIP3    H155052   0.803   0.561   5.077  2.8443 -1.0018 -0.8142
11187TIP3    H255053   0.823   0.691   5.002  1.8653 -0.8754 -0.8776
11188TIP3   OH255054   1.054   3.182   6.133 -0.4210  0.2152  0.0149
11188TIP3    H155055   1.046   3.096   6.175 -0.0106  1.7623  3.7049
11188TIP3    H255056   0.965   3.202   6.105 -0.4131 -1.6129 -1.5054
11189TIP3   OH255057   3.113   0.799  14.940  0.1835 -0.1535  0.2510
11189TIP3    H155058   3.099   0.720  14.889 -0.4479 -0.7699  1.3322
11189TIP3    H255059   3.149   0.862  14.878  0.8160 -1.3166 -0.6022
11190TIP3   OH255060   4.995   6.217   4.647 -0.0043  0.2809 -0.1492
11190TIP3    H155061   4.999   6.283   4.578 -0.0449 -0.8071 -1.2326
11190TIP3    H255062   5.041   6.257   4.721  1.5233  0.8683 -1.3523
11191TIP3   OH255063   2.065   2.653   3.096 -0.2014 -0.4331  0.0296
11191TIP3    H155064   1.994   2.618   3.042 -0.6320  0.4655  0.0007
11191TIP3    H255065   2.036   2.639   3.186  0.5569 -2.0147  0.0678
11192TIP3   OH255066   5.147   3.925  14.740 -0.0813  0.7661 -0.2266
11192TIP3    H155067   5.228   3.897  14.699 -1.8023 -4.1268 -0.9888
11192TIP3    H255068   5.089   3.948  14.667 -0.5104  0.5814  0.0486
11193TIP3   OH255069   6.782   2.236   5.378 -0.4777  0.4327  0.7552
11193TIP3    H155070   6.876   2.246   5.364 -0.2015 -0.2898  1.9229
11193TIP3    H255071   6.741   2.301   5.320  0.6907  0.1548 -0.4327
11194TIP3   OH255072   3.996   2.361   2.158  0.0157 -0.3369  0.4625
11194TIP3    H155073   4.084   2.334   2.185  1.2903  0.8835 -2.1006
11194TIP3    H255074   3.985   2.448   2.196  1.1870  0.7406 -1.5034
11195TIP3   OH255075   4.747   0.854   5.137 -0.3894  0.3948  0.2754
11195TIP3    H155076   4.745   0.940   5.096  2.5275  0.4356  0.0166
11195TIP3    H255077   4.726   0.793   5.065  1.9089  0.6593 -0.7008
11196TIP3   OH255078   0.764   1.960  13.030 -1.1540  0.0197  0.7571
11196TIP3    H155079   0.811   1.998  13.104 -1.1579  2.1474 -0.2562
11196TIP3    H255080   0.740   1.872  13.059 -0.1159  0.3585  2.8072
11197TIP3   OH255081   1.445   1.947   3.802 -0.0541 -0.3897  0.5061
11197TIP3    H155082   1.372   1.932   3.862  0.2111 -1.7305  0.5180
11197TIP3    H255083   1.438   1.877   3.738  1.5622 -0.8958  0.8376
11198TIP3   OH255084   2.646   3.710   2.527 -0.1112  0.6917 -0.5567
11198TIP3    H155085   2.616   3.792   2.566  0.0283 -0.3358  1.8796
11198TIP3    H255086   2.697   3.737   2.450 -1.0838  2.7917 -0.5179
11199TIP3   OH255087   0.851   2.541   5.334  0.2232  0.3374  0.3797
11199TIP3    H155088   0.939   2.580   5.333  0.8376 -0.9945  0.0636
11199TIP3    H255089   0.848   2.491   5.415 -1.0097  1.9323  1.3941
11200TIP3   OH255090   2.604   5.770   2.747  0.5725  0.3868 -0.3941
11200TIP3    H155091   2.690   5.739   2.719  1.1283  1.8503 -0.3425
11200TIP3    H255092   2.565   5.693   2.790  2.2530 -0.0141  0.5081
11201TIP3   OH255093   3.028   5.168  11.254 -0.4469 -0.4522  0.1429
11201TIP3    H155094   2.977   5.211  11.185  0.1465  0.2040  0.1082
11201TIP3    H255095   2.964   5.116  11.302 -0.5936 -2.6044 -2.1682
11202TIP3   OH255096   3.797   0.683  16.532 -0.1361  0.1126 -0.0894
11202TIP3    H155097   3.799   0.588  16.526  2.1734  0.1387 -0.7255
11202TIP3    H255098   3.868   0.705  16.593 -1.9837  1.3915  1.7433
11203TIP3   OH255099   5.877   5.355   5.604 -0.2444 -0.3575  0.2529
11203TIP3    H155100   5.918   5.270   5.622 -2.7352 -1.1612  2.9304
11203TIP3    H255101   5.814   5.336   5.535 -0.5866 -0.6293  0.6362
11204TIP3   OH255102   5.624   0.615  11.922 -0.4568  0.2552  0.0958
11204TIP3    H155103   5.620   0.538  11.866 -0.1182 -0.1185  0.5808
11204TIP3    H255104   5.542   0.614  11.971 -1.0877  0.9863 -0.9004
11205TIP3   OH255105   1.162   5.657  15.415  0.0494  0.2973 -0.4441
11205TIP3    H155106   1.116   5.684  15.494  0.7676  1.5236 -0.4240
11205TIP3    H255107   1.130   5.716  15.347  0.2111 -0.0598 -0.8341
11206TIP3   OH255108   0.418   3.109   5.473 -0.1874  0.4641  0.2046
11206TIP3    H155109   0.416   3.013   5.473  1.5279  0.3372 -1.8870
11206TIP3    H255110   0.443   3.132   5.562  1.6360 -1.1814  0.1991
11207TIP3   OH255111   4.366   1.115  15.272  0.4021  0.4892  0.1394
11207TIP3    H155112   4.324   1.088  15.190  1.1482 -0.0371 -0.0799
11207TIP3    H255113   4.457   1.085  15.264  0.5709  0.7293  1.0182
11208TIP3   OH255114   1.558   6.094  11.762  0.3031 -0.3403  0.8597
11208TIP3    H155115   1.565   6.181  11.800  0.1694 -0.3744  0.9628
11208TIP3    H255116   1.476   6.059  11.796  0.4452 -0.5764  0.9630
11209TIP3   OH255117   0.049   6.269  17.197 -0.0656 -0.7124  0.2395
11209TIP3    H155118   0.089   6.311  17.273 -1.1548  0.8958 -0.0171
11209TIP3    H255119   0.058   6.333  17.127 -0.2599 -1.6308 -0.6516
11210TIP3   OH255120   2.723   5.891  15.157  0.1733 -0.0117 -0.1150
11210TIP3    H155121   2.813   5.859  15.167 -0.3234 -1.4453 -0.0194
11210TIP3    H255122   2.672   5.813  15.135 -1.2455  0.5789  0.9104
11211TIP3   OH255123   0.352   5.044   3.430  0.6144 -0.4867 -0.4339
11211TIP3    H155124   0.391   5.131   3.429  0.8932 -0.6119 -1.1543
11211TIP3    H255125   0.279   5.049   3.367 -0.5858 -0.2451  0.9215
11212TIP3   OH255126   0.589   5.379   0.677  0.1774 -0.0416  0.7445
11212TIP3    H155127   0.624   5.296   0.645  1.9848  1.1779 -0.5923
11212TIP3    H255128   0.511   5.394   0.624 -1.9234 -2.1834  2.9327
11213TIP3   OH255129   4.006   5.199   3.936  0.4900 -0.1152  0.0359
11213TIP3    H155130   3.980   5.290   3.946  0.2806 -0.2957  1.3562
11213TIP3    H255131   4.090   5.203   3.890 -0.4953  0.6124 -1.8046
11214TIP3   OH255132   5.169   3.914   3.331  0.0636 -0.0799  0.0117
11214TIP3    H155133   5.094   3.940   3.278 -0.4296 -0.1334  0.6749
11214TIP3    H255134   5.227   3.991   3.330  1.0024 -0.7135 -2.1816
11215TIP3   OH255135   4.762   3.182  16.256 -0.2452  0.1313  0.2397
11215TIP3    H155136   4.731   3.225  16.176  1.7300 -0.9107 -1.1730
11215TIP3    H255137   4.800   3.099  16.226 -0.2943 -0.7385  2.3907
11216TIP3   OH255138   2.860   3.302  10.613  0.1015  0.2190  0.0099
11216TIP3    H155139   2.802   3.226  10.619 -0.2897  0.4897 -0.2582
11216TIP3    H255140   2.888   3.318  10.703  0.4006 -0.4013  0.0323
11217TIP3   OH255141   4.495   4.589  13.134  0.2151  0.0456  0.5130
11217TIP3    H155142   4.542   4.670  13.155  1.4532 -0.5020 -0.0516
11217TIP3    H255143   4.447   4.568  13.214  2.8895 -0.6785  2.0739
11218TIP3   OH255144   5.732   6.367   1.483  0.0580  0.2644 -0.1890
11218TIP3    H155145   5.761   6.443   1.534  1.5514 -0.5769  0.2885
11218TIP3    H255146   5.653   6.397   1.438 -1.2973  1.0916  2.5341
11219TIP3   OH255147   3.645   3.557  16.758  0.5453 -0.0066  0.0222
11219TIP3    H155148   3.737   3.578  16.740  0.9036  0.6950  2.3319
11219TIP3    H255149   3.648   3.474  16.805  0.0529  0.2224  0.4747
11220TIP3   OH255150   3.174   1.230   5.939 -0.2707  0.6102 -0.7103
11220TIP3    H155151   3.107   1.292   5.966  0.4650  0.3350  2.1684
11220TIP3    H255152   3.254   1.282   5.931  0.0604  0.3132  0.3746
11221TIP3   OH255153   2.308   3.407  13.347 -0.7420  0.3399  0.1184
11221TIP3    H155154   2.393   3.417  13.304  0.2189  1.2691  2.0786
11221TIP3    H255155   2.320   3.334  13.408 -1.1658  0.7886  0.7599
11222TIP3   OH255156   1.121   1.021  12.715 -0.0083  0.3404  0.3348
11222TIP3    H155157   1.179   1.043  12.788  2.2960  1.3907 -1.6345
11222TIP3    H255158   1.090   1.106  12.683 -0.1514 -0.0208 -0.5196
11223TIP3   OH255159   5.668   3.111   3.021 -0.4893  0.4176 -0.2805
11223TIP3    H155160   5.607   3.174   2.981 -1.7280  0.2721  1.2900
11223TIP3    H255161   5.731   3.165   3.069  1.2526  0.6169 -2.5976
11224TIP3   OH255162   6.348   4.740   2.503 -0.2463 -0.4359  0.2174
11224TIP3    H155163   6.289   4.672   2.536 -0.2170 -0.3347  0.4851
11224TIP3    H255164   6.304   4.775   2.426  0.0232 -1.1698 -0.2763
11225TIP3   OH255165   1.492   5.222   0.693 -0.0173  0.0298  0.8894
11225TIP3    H155166   1.522   5.147   0.744 -0.6163 -0.9021 -0.1120
11225TIP3    H255167   1.426   5.264   0.748 -0.1509 -0.5517  1.1750
11226TIP3   OH255168   0.232   5.648   5.922 -0.8899 -0.2098  0.3263
11226TIP3    H155169   0.191   5.729   5.891  0.8939  0.6268  0.0359
11226TIP3    H255170   0.210   5.644   6.015  0.8841  1.8740  0.9091
11227TIP3   OH255171   3.851   1.663  10.545  0.6162 -0.5624 -0.1272
11227TIP3    H155172   3.922   1.641  10.605  0.9399 -1.0833 -0.6931
11227TIP3    H255173   3.887   1.649  10.458 -0.8718 -3.1192 -0.4338
11228TIP3   OH255174   6.684   4.335  10.342  0.2245 -0.0922 -0.2303
11228TIP3    H155175   6.676   4.349  10.436  0.9271 -0.5841 -0.0887
11228TIP3    H255176   6.762   4.281  10.332  0.3898  0.2896 -1.1284
11229TIP3   OH255177   1.281   3.214  15.679 -0.0460 -0.3827  0.0328
11229TIP3    H155178   1.186   3.215  15.685 -0.0241 -0.6981  0.5766
11229TIP3    H255179   1.301   3.135  15.629 -0.0760 -0.2653 -0.1623
11230TIP3   OH255180   5.960   4.299  16.598 -0.1356 -0.4571  0.0176
11230TIP3    H155181   6.037   4.263  16.555 -0.0043 -0.3053  0.1247
11230TIP3    H255182   5.962   4.261  16.686 -0.0225 -0.2249  0.1162
11231TIP3   OH255183   3.633   2.705   4.722  0.2688 -0.2646  0.1138
11231TIP3    H155184   3.547   2.663   4.712 -0.3299  0.6965  1.0552
11231TIP3    H255185   3.615   2.788   4.766  1.4341  0.9807 -1.5799
11232TIP3   OH255186   4.002   3.390  14.801  0.3284  0.1196  0.3332
11232TIP3    H155187   3.968   3.347  14.722  0.3621 -0.6766  0.7331
11232TIP3    H255188   3.943   3.464  14.815  0.0296 -0.0139 -0.1690
11233TIP3   OH255189   1.318   2.509   3.215  0.1512 -0.5985  0.0880
11233TIP3    H155190   1.301   2.595   3.176 -0.6116 -0.0123  1.6240
11233TIP3    H255191   1.343   2.528   3.305 -0.1691 -2.0054  0.4947
11234TIP3   OH255192   1.516   1.538   2.286 -0.3587  0.7610 -0.3318
11234TIP3    H155193   1.468   1.523   2.205  0.1078  1.3078 -0.7151
11234TIP3    H255194   1.587   1.474   2.286 -1.3685 -0.4081  0.4899
11235TIP3   OH255195   3.927   6.159   4.191  0.8504  0.1522  0.5339
11235TIP3    H155196   3.884   6.229   4.141 -2.3904 -0.2645  2.4329
11235TIP3    H255197   3.963   6.100   4.124 -2.0043  0.3718 -1.3823
11236TIP3   OH255198   2.314   4.726   6.258  0.5483  0.3667 -0.1442
11236TIP3    H155199   2.388   4.683   6.216 -0.5853 -1.1527 -0.6764
11236TIP3    H255200   2.255   4.749   6.186 -0.5486 -0.5709  0.4130
11237TIP3   OH255201   2.478   3.588  10.083  0.5616  0.1999  0.1601
11237TIP3    H155202   2.458   3.497  10.063  0.8609  0.3014 -0.6345
11237TIP3    H255203   2.399   3.623  10.123  0.8680 -0.7527  1.6553
11238TIP3   OH255204   4.425   2.951  15.898  0.9410 -0.2988 -0.0003
11238TIP3    H155205   4.343   2.975  15.855  1.0921 -1.6131 -1.0831
11238TIP3    H255206   4.404   2.871  15.947  2.0842 -2.1335 -2.2889
11239TIP3   OH255207   4.047   1.238  13.017 -0.3274 -0.3903  0.2455
11239TIP3    H155208   4.050   1.327  12.982  0.1764 -0.2968  0.5247
11239TIP3    H255209   3.987   1.192  12.959 -0.8440  0.2127  0.2841
11240TIP3   OH255210   2.989   4.997  14.622  0.3262  0.0484  0.2311
11240TIP3    H155211   2.973   5.032  14.710 -1.4924 -0.1861  0.0312
11240TIP3    H255212   2.952   5.063  14.563  1.1090 -0.0213 -0.3501
11241TIP3   OH255213   4.601   3.565  15.303 -0.2231  0.3263 -0.3069
11241TIP3    H155214   4.629   3.552  15.394 -1.0583  0.3772 -0.0285
11241TIP3    H255215   4.669   3.621  15.265 -0.1009  0.7028  0.4320
11242TIP3   OH255216   5.929   2.369   2.501 -0.0368  0.2889  0.6671
11242TIP3    H155217   5.914   2.276   2.484  0.3994  0.3148  0.1182
11242TIP3    H255218   5.841   2.406   2.514 -0.2404 -0.1101  0.4371
11243TIP3   OH255219   4.846   1.084   6.523 -0.4043  0.2541  0.2918
11243TIP3    H155220   4.924   1.137   6.543 -1.1832  2.0804 -1.1888
11243TIP3    H255221   4.881   0.999   6.499  1.0792  0.7359  0.6257
11244TIP3   OH255222   0.387   0.615   6.079  0.0807 -0.2874  0.3992
11244TIP3    H155223   0.390   0.686   6.143 -1.0083  0.4236 -0.2894
11244TIP3    H255224   0.319   0.643   6.016  2.0263 -0.2871 -1.8414
11245TIP3   OH255225   6.041   3.722   1.793  0.0158 -0.0632  0.3247
11245TIP3    H155226   6.030   3.629   1.772 -0.6066  0.3424 -1.2714
11245TIP3    H255227   6.017   3.768   1.712  2.1605  1.4138  0.4469
11246TIP3   OH255228   5.807   5.071   1.067  0.6369  0.2403  0.6683
11246TIP3    H155229   5.864   5.021   1.125  0.9921 -0.3314 -0.1486
11246TIP3    H255230   5.724   5.077   1.114 -0.5049 -3.8638 -0.4250
11247TIP3   OH255231   6.332   0.822   1.117  0.3358 -0.0747  0.4790
11247TIP3    H155232   6.238   0.820   1.134 -0.1852 -0.9636 -2.1076
11247TIP3    H255233   6.349   0.742   1.067  2.1380  0.8925 -0.5669
11248TIP3   OH255234   4.905   6.189  16.850  0.1559  0.4817  0.1521
11248TIP3    H155235   4.923   6.204  16.758 -1.0024 -0.0318 -0.1677
11248TIP3    H255236   4.851   6.263  16.877  0.9659  0.9369  0.5865
11249TIP3   OH255237   4.204   3.315  16.187  0.1716 -0.5432  0.3776
11249TIP3    H155238   4.236   3.226  16.170  0.7601 -0.3593  0.4948
11249TIP3    H255239   4.230   3.333  16.278 -1.8678 -1.0612  1.1169
11250TIP3   OH255240   3.921   3.980  12.189 -0.0044  0.1809  0.4794
11250TIP3    H155241   3.833   3.945  12.174 -0.5263  1.2316  1.0367
11250TIP3    H255242   3.952   4.005  12.101  0.4928 -1.8532  0.0169
11251TIP3   OH255243   2.883   3.896   5.820 -0.3478 -0.4052  0.0078
11251TIP3    H155244   2.927   3.940   5.747 -0.7411  0.8036  0.4758
11251TIP3    H255245   2.806   3.856   5.781 -1.1488  1.1570 -0.0884
11252TIP3   OH255246   4.441   3.116  13.067 -0.2280  0.1693 -0.0859
11252TIP3    H155247   4.515   3.094  13.010  0.8225  0.4639  1.1043
11252TIP3    H255248   4.467   3.198  13.108 -1.6797  0.7966 -0.3841
11253TIP3   OH255249   3.824   4.186   1.935  0.5456 -0.4062  0.6252
11253TIP3    H155250   3.874   4.202   2.014  1.6137  0.8428 -0.2663
11253TIP3    H255251   3.768   4.263   1.925  0.7849 -0.3148 -0.0949
11254TIP3   OH255252   3.757   2.011  14.447 -0.4098 -0.1041 -0.0783
11254TIP3    H155253   3.703   1.932  14.444 -1.2852  0.4837 -0.3276
11254TIP3    H255254   3.832   1.988  14.501 -1.1348 -0.8087  0.6384
11255TIP3   OH255255   0.595   0.644  12.700 -0.2042  0.0387  0.2516
11255TIP3    H155256   0.518   0.688  12.665  0.1530  0.2342 -0.2907
11255TIP3    H255257   0.559   0.584  12.766 -0.5059  2.9008  2.9045
11256TIP3   OH255258   5.967   2.698   1.488 -0.2008 -0.1908 -0.1743
11256TIP3    H155259   5.929   2.635   1.549  1.1469 -0.5575  0.3281
11256TIP3    H255260   5.894   2.754   1.463 -1.4151 -1.8597 -0.5470
11257TIP3   OH255261   1.717   0.307  14.801  0.6389 -0.4753  0.5041
11257TIP3    H155262   1.638   0.291  14.749  1.5581 -0.8194 -0.8469
11257TIP3    H255263   1.695   0.277  14.889 -1.2077  0.7604  0.5151
11258TIP3   OH255264   5.676   5.789  11.396 -0.1458  0.0619  0.4552
11258TIP3    H155265   5.711   5.876  11.415  1.9802 -0.4957 -0.6167
11258TIP3    H255266   5.721   5.731  11.458 -1.0854 -0.3834  0.7420
11259TIP3   OH255267   6.467   4.320  11.479  0.4724  0.3438  0.1849
11259TIP3    H155268   6.408   4.385  11.518 -0.1736  1.2393 -2.1089
11259TIP3    H255269   6.541   4.371  11.446  1.1251 -0.4040  0.4757
11260TIP3   OH255270   6.643   0.133  15.108 -0.0289 -0.0807 -0.0496
11260TIP3    H155271   6.682   0.202  15.055  0.8003 -1.6249 -1.5347
11260TIP3    H255272   6.590   0.082  15.047 -0.1673 -1.0999  0.8703
11261TIP3   OH255273   6.375   5.957  17.075  0.0892  0.4104 -0.4342
11261TIP3    H155274   6.355   5.997  17.160 -0.4574  0.1103 -0.4167
11261TIP3    H255275   6.450   6.007  17.042  0.1751  0.6602  0.1319
11262TIP3   OH255276   5.054   4.274  15.738 -0.5538  0.1766 -0.1615
11262TIP3    H155277   5.080   4.231  15.819 -0.5664  0.8783  0.2196
11262TIP3    H255278   5.130   4.266  15.681  0.1349  1.2575  0.5575
11263TIP3   OH255279   6.527   4.717   4.087 -0.1154  0.5160  0.1848
11263TIP3    H155280   6.551   4.738   3.997  3.3481  0.0849  0.8663
11263TIP3    H255281   6.434   4.694   4.082 -0.4786  2.1407 -2.9353
11264TIP3   OH255282   3.137   0.012  11.877 -0.0448 -0.1993 -0.1862
11264TIP3    H155283   3.192  -0.061  11.850  0.3209 -0.5475  1.4236
11264TIP3    H255284   3.083  -0.022  11.948 -2.2501  0.1932 -1.5709
11265TIP3   OH255285   6.056   5.045  13.340  0.0672  0.0292  0.0907
11265TIP3    H155286   6.117   5.113  13.313 -1.0462  1.3362  0.7571
11265TIP3    H255287   6.040   5.063  13.433  0.8897 -2.0601  0.6999
11266TIP3   OH255288   1.009   6.335  16.652 -0.3779 -0.6072 -0.2815
11266TIP3    H155289   0.927   6.295  16.624 -0.5191 -0.1873 -0.4819
11266TIP3    H255290   1.013   6.318  16.746 -0.9719 -0.1559 -0.1642
11267TIP3   OH255291   2.732   0.219   2.713  0.2149  0.4943  0.0532
11267TIP3    H155292   2.818   0.220   2.672  0.4369 -0.7170  0.4424
11267TIP3    H255293   2.744   0.167   2.792 -1.0804 -0.4725 -0.3540
11268TIP3   OH255294   3.663   4.492   3.853  0.4051  0.1506  0.2997
11268TIP3    H155295   3.617   4.496   3.937  0.0243 -3.5069  0.4173
11268TIP3    H255296   3.749   4.529   3.871 -0.1741  0.8038  1.9004
11269TIP3   OH255297   6.148   0.504  12.838  0.6250 -0.4832  0.2606
11269TIP3    H155298   6.130   0.545  12.753  0.9907  1.8660  1.2263
11269TIP3    H255299   6.062   0.476  12.869  0.3529 -0.4992 -0.4888
11270TIP3   OH255300   0.548   5.005  14.126 -0.8104 -0.0288 -0.0530
11270TIP3    H155301   0.573   5.032  14.038  0.0728 -1.0816 -0.1506
11270TIP3    H255302   0.472   4.948  14.113 -1.1350  0.4063 -0.0663
11271TIP3   OH255303   3.550   0.213  11.838  0.1799 -0.1168  0.9076
11271TIP3    H155304   3.533   0.118  11.838 -0.4383 -0.0356 -0.3840
11271TIP3    H255305   3.464   0.253  11.841  0.3029  0.3569 -0.7188
11272TIP3   OH255306   3.163   2.187   3.553 -0.4564  0.3288  0.7117
11272TIP3    H155307   3.234   2.218   3.609  2.0777 -2.2756 -0.7832
11272TIP3    H255308   3.130   2.266   3.510  1.9279  1.6035  1.0726
11273TIP3   OH255309   3.893   5.461   3.949  0.0923  0.3412 -0.3398
11273TIP3    H155310   3.851   5.471   4.034  1.2678  1.5408  0.1183
11273TIP3    H255311   3.819   5.451   3.888 -0.8771  1.9136  0.5033
11274TIP3   OH255312   6.600   4.008   1.649 -0.9246  0.1260 -0.0759
11274TIP3    H155313   6.647   4.065   1.709  2.8010 -2.1371 -0.5093
11274TIP3    H255314   6.654   4.007   1.569 -0.4360 -4.1523  0.0820
11275TIP3   OH255315   5.269   1.212   1.923  0.0514  0.7490 -0.3295
11275TIP3    H155316   5.175   1.200   1.915 -0.2035  0.5200  2.3420
11275TIP3    H255317   5.303   1.124   1.941  0.2956  1.2841  2.1228
11276TIP3   OH255318   4.164   3.250   0.186 -0.0818  0.5477 -0.2062
11276TIP3    H155319   4.202   3.197   0.255  0.3587  0.2648 -0.6631
11276TIP3    H255320   4.092   3.197   0.151  0.8030 -0.0780 -1.1416
11277TIP3   OH255321   4.555   6.237   0.448  0.3296 -0.0571 -0.0545
11277TIP3    H155322   4.567   6.235   0.543 -1.5334  0.0498  0.2213
11277TIP3    H255323   4.538   6.329   0.428  0.1554 -0.1650 -0.4077
11278TIP3   OH255324   4.252   1.613  13.554  0.0219  0.9120 -0.3666
11278TIP3    H155325   4.266   1.592  13.462  2.7550  2.4986 -0.4453
11278TIP3    H255326   4.322   1.567  13.600  1.5508  3.6247  0.2722
11279TIP3   OH255327   3.133   1.268  11.244  0.1585 -0.1702 -0.1281
11279TIP3    H155328   3.038   1.271  11.255 -0.0864 -1.6163 -1.4902
11279TIP3    H255329   3.166   1.341  11.297 -1.7220  0.5454  0.1203
11280TIP3   OH255330   4.327   0.129   4.794 -0.2639 -0.0652 -0.1600
11280TIP3    H155331   4.416   0.161   4.811 -0.2522 -0.6388  0.9704
11280TIP3    H255332   4.279   0.148   4.875 -0.6040 -1.6369  0.0401
11281TIP3   OH255333   3.184   2.231  11.218  0.4188 -0.0370 -0.5560
11281TIP3    H155334   3.276   2.228  11.192  0.0425 -2.6181 -1.9912
11281TIP3    H255335   3.174   2.159  11.281 -0.6198  0.1490 -0.4878
11282TIP3   OH255336   6.262   3.262  15.477 -0.9492  0.5643 -0.4700
11282TIP3    H155337   6.269   3.270  15.572 -1.6917 -0.4145 -0.3194
11282TIP3    H255338   6.186   3.315  15.454  0.1838  2.1577 -0.7532
11283TIP3   OH255339   1.871   2.092  12.981 -0.0450  0.1199  0.1349
11283TIP3    H155340   1.851   2.184  12.968 -2.8110 -0.6762 -2.2677
11283TIP3    H255341   1.842   2.073  13.070  0.6110  1.5293  0.6680
11284TIP3   OH255342   6.659   4.777   2.376  0.4062  0.2322  0.2073
11284TIP3    H155343   6.672   4.824   2.293 -0.0334  0.7402  0.4163
11284TIP3    H255344   6.569   4.743   2.370  0.2406  0.5834  0.6220
11285TIP3   OH255345   1.449   5.990  11.505  0.3241 -1.0867  0.0266
11285TIP3    H155346   1.369   6.018  11.462  1.1169  0.9385 -0.2167
11285TIP3    H255347   1.450   5.895  11.493 -2.0464 -1.1806  0.1080
11286TIP3   OH255348   1.130   0.606   1.956  0.0507 -0.2923  0.0134
11286TIP3    H155349   1.110   0.544   1.887  1.5652 -0.8915  0.0764
11286TIP3    H255350   1.162   0.553   2.029  2.5998  0.5561 -0.3694
11287TIP3   OH255351   1.475   2.868   2.557 -0.2857  0.5580  0.5259
11287TIP3    H155352   1.392   2.847   2.516  0.4582 -0.0059 -0.7701
11287TIP3    H255353   1.508   2.943   2.509 -0.6978  1.7331  2.0045
11288TIP3   OH255354   4.362   3.487  13.103  0.7686  0.6148 -0.5308
11288TIP3    H155355   4.374   3.480  13.198 -0.3035 -0.4739 -0.4594
11288TIP3    H255356   4.301   3.560  13.092 -1.9456 -1.4591 -0.1065
11289TIP3   OH255357   3.231   0.787  13.222 -0.5913 -0.2049 -0.5480
11289TIP3    H155358   3.229   0.881  13.241  0.7190 -0.5767  1.9651
11289TIP3    H255359   3.200   0.746  13.303  0.7990 -1.9581 -0.8266
11290TIP3   OH255360   5.913   1.806  14.197 -0.4223  0.0845 -0.4230
11290TIP3    H155361   5.908   1.856  14.116 -1.5795  1.0237  0.1990
11290TIP3    H255362   5.883   1.719  14.173  0.2244  0.0657 -1.2118
11291TIP3   OH255363   5.711   4.866   5.253  0.6146 -0.3396 -0.2868
11291TIP3    H155364   5.791   4.862   5.305  1.0443 -1.1987 -0.9922
11291TIP3    H255365   5.723   4.800   5.185 -0.1115  0.4803 -1.2386
11292TIP3   OH255366   4.922   3.857  16.152  0.2053  0.4104  0.0447
11292TIP3    H155367   4.875   3.873  16.234 -1.2911 -0.1452 -0.6854
11292TIP3    H255368   5.011   3.889  16.170 -0.6066  2.1435  1.2174
11293TIP3   OH255369   2.902   4.423   0.709  0.0644  0.3172 -0.4504
11293TIP3    H155370   2.949   4.352   0.665 -0.8298 -0.8081  0.3592
11293TIP3    H255371   2.823   4.435   0.657 -0.0086  0.4109 -0.3171
11294TIP3   OH255372   6.424   0.152  13.285 -0.1245 -0.0465  0.2383
11294TIP3    H155373   6.494   0.195  13.235 -0.2586  0.3458  0.3858
11294TIP3    H255374   6.392   0.083  13.226  0.6408 -0.4845  0.3195
11295TIP3   OH255375   0.453   5.396  16.663 -0.2287 -0.0672 -0.5743
11295TIP3    H155376   0.534   5.412  16.614 -0.0873 -0.2000 -0.3877
11295TIP3    H255377   0.464   5.445  16.744 -1.4420  2.0523 -1.6296
11296TIP3   OH255378   5.884   1.052   6.755  0.7953 -0.6823  0.4023
11296TIP3    H155379   5.822   0.985   6.727 -0.3843  0.6151 -0.2005
11296TIP3    H255380   5.943   1.063   6.680  0.4985 -0.4790  0.1998
11297TIP3   OH255381   5.792   2.802  11.166  0.6377 -0.3170 -0.4899
11297TIP3    H155382   5.799   2.789  11.072  2.0356 -1.1505 -0.3124
11297TIP3    H255383   5.882   2.820  11.194  0.6138 -2.0849  0.9359
11298TIP3   OH255384   3.058   0.084  10.978 -0.4547 -0.2144  0.1391
11298TIP3    H155385   3.095   0.010  10.931  0.2786  0.3315 -0.1502
11298TIP3    H255386   2.977   0.105  10.931 -0.8328 -1.0247  0.4155
11299TIP3   OH255387   2.848   2.470   4.925 -0.0394  0.1181 -0.4157
11299TIP3    H155388   2.899   2.417   4.864 -1.9633 -0.5998 -1.4845
11299TIP3    H255389   2.861   2.560   4.895 -0.7011 -0.2013 -1.7214
11300TIP3   OH255390   2.290   6.620  13.570 -0.1503  0.5160  1.1399
11300TIP3    H155391   2.340   6.561  13.514 -1.3876 -0.2926  0.8428
11300TIP3    H255392   2.356   6.679  13.608  0.8532  0.2917 -0.1844
11301TIP3   OH255393   0.886   2.531   2.469  0.5538  0.0001  0.4019
11301TIP3    H155394   0.947   2.523   2.396 -1.0085  1.2033 -1.1186
11301TIP3    H255395   0.890   2.623   2.494 -0.3366  0.0111  0.5429
11302TIP3   OH255396   3.796   3.063  16.153  0.5033  0.2939 -0.3544
11302TIP3    H155397   3.757   3.147  16.130 -0.1943  0.0589 -0.0467
11302TIP3    H255398   3.752   3.036  16.233 -0.9760 -1.4372 -1.6464
11303TIP3   OH255399   1.751   3.351   2.334  0.1622 -0.5919  0.4390
11303TIP3    H155400   1.808   3.295   2.282  2.0436  0.4428  1.3147
11303TIP3    H255401   1.785   3.439   2.322 -1.9898  0.2445  0.0630
11304TIP3   OH255402   3.509   1.837  16.882  0.4634 -0.7091  0.0896
11304TIP3    H155403   3.419   1.807  16.869  0.6565 -1.1683 -0.2024
11304TIP3    H255404   3.561   1.785  16.820  0.7306  0.6183 -0.8552
11305TIP3   OH255405   3.221   2.609  16.061 -0.3118 -0.8251 -0.4193
11305TIP3    H155406   3.188   2.559  15.986  0.4351 -2.0392  0.0343
11305TIP3    H255407   3.208   2.551  16.136  2.7650 -1.3967 -0.2093
11306TIP3   OH255408   1.157   2.686  13.346  0.2633  0.4687  0.3763
11306TIP3    H155409   1.152   2.703  13.252  0.2603  2.0004  0.6237
11306TIP3    H255410   1.210   2.758  13.380  1.4281 -0.8177  1.3784
11307TIP3   OH255411   1.337   1.204   3.548  0.5325 -0.8239  0.3595
11307TIP3    H155412   1.244   1.182   3.545 -0.0137  1.3306 -2.5961
11307TIP3    H255413   1.344   1.272   3.615  0.1264 -1.5056  1.1008
11308TIP3   OH255414   1.843   4.291  11.398 -0.4181 -0.5379 -0.2168
11308TIP3    H155415   1.872   4.382  11.403  0.1702 -0.7406  0.2224
11308TIP3    H255416   1.865   4.263  11.309  0.5208 -0.6147  0.0371
11309TIP3   OH255417   3.906   3.653   3.169  0.5347 -0.3080 -0.4742
11309TIP3    H155418   3.919   3.738   3.128 -1.3703 -0.5983 -1.8197
11309TIP3    H255419   3.983   3.640   3.224  0.9915  2.1488 -0.4442
11310TIP3   OH255420   1.926   3.464  16.402  0.1486  0.6233  0.6744
11310TIP3    H155421   1.961   3.378  16.425 -1.4981 -0.4711 -0.6656
11310TIP3    H255422   1.873   3.490  16.478  0.9527  0.6510  1.2344
11311TIP3   OH255423   5.796   0.979  13.913 -0.0957  0.5614 -0.3221
11311TIP3    H155424   5.853   0.965  13.837 -0.1404  1.2285 -0.4885
11311TIP3    H255425   5.707   0.971  13.877 -0.1153  0.0962 -0.1779
11312TIP3   OH255426   1.112   5.198   2.397 -0.0520 -0.9435  0.1277
11312TIP3    H155427   1.117   5.193   2.301  0.7300 -1.7931  0.1947
11312TIP3    H255428   1.152   5.116   2.427  0.6687 -0.2281  1.1976
11313TIP3   OH255429   3.611   1.635   5.932 -0.1335  0.5220  0.0221
11313TIP3    H155430   3.632   1.661   5.842  1.1815 -1.7235 -0.3904
11313TIP3    H255431   3.516   1.640   5.937 -0.2243  0.7281 -1.4704
11314TIP3   OH255432   4.735   3.664   5.930 -0.0207 -0.2896  0.4486
11314TIP3    H155433   4.779   3.586   5.895  2.0994 -0.0608  2.3199
11314TIP3    H255434   4.761   3.735   5.871  0.5687 -0.5182  0.4210
11315TIP3   OH255435   0.236   6.619  16.621  0.5005 -0.4746 -0.3877
11315TIP3    H155436   0.201   6.622  16.532  0.5984 -0.5163 -0.4273
11315TIP3    H255437   0.281   6.535  16.627 -0.4835 -0.9956  0.0617
11316TIP3   OH255438   6.519   6.266  14.622  0.4866 -0.1106 -0.5416
11316TIP3    H155439   6.524   6.188  14.567  1.4994  0.1239 -0.7945
11316TIP3    H255440   6.596   6.260  14.679 -1.0910 -0.9363  1.6780
11317TIP3   OH255441   3.121   6.215   4.057 -0.2347 -0.1796 -0.7427
11317TIP3    H155442   3.182   6.200   4.128  0.6957  0.0124 -1.4864
11317TIP3    H255443   3.052   6.150   4.070  0.4700 -0.8490 -0.2803
11318TIP3   OH255444   3.901   6.567  11.942  0.4481  0.0451  0.1623
11318TIP3    H155445   3.957   6.619  11.884 -1.1881  0.9028 -0.7056
11318TIP3    H255446   3.883   6.487  11.894 -0.0989  0.3306 -0.1238
11319TIP3   OH255447   2.244   6.763   1.392  0.2805  0.1058 -0.7016
11319TIP3    H155448   2.193   6.843   1.402  0.5628  0.2700 -0.5863
11319TIP3    H255449   2.299   6.758   1.470 -0.4725 -0.7363 -0.2020
11320TIP3   OH255450   4.315   1.990   2.078 -0.1127 -0.1779 -0.6653
11320TIP3    H155451   4.287   2.047   2.007 -1.4765 -1.2200 -1.0132
11320TIP3    H255452   4.257   1.914   2.072  0.2734 -0.6610  1.0613
11321TIP3   OH255453   4.834   2.432   6.695  0.3143  0.0590 -0.2350
11321TIP3    H155454   4.788   2.349   6.706 -1.9997  1.4112  1.1165
11321TIP3    H255455   4.859   2.433   6.603  1.1715 -2.4529 -0.1114
11322TIP3   OH255456   5.989   2.939   2.160  0.3401  0.3717 -0.2629
11322TIP3    H155457   5.925   2.961   2.092 -0.4672  0.4547  0.4906
11322TIP3    H255458   6.027   3.023   2.185  0.5644  0.3530 -0.5355
11323TIP3   OH255459   4.489   2.314  15.731  0.4223  0.4865 -0.0251
11323TIP3    H155460   4.552   2.253  15.772  0.7014  0.5424 -0.3661
11323TIP3    H255461   4.403   2.278  15.753  0.5905 -0.1884 -0.4649
11324TIP3   OH255462   4.342   2.572   3.739 -0.7660  0.6007  0.3734
11324TIP3    H155463   4.339   2.641   3.672  1.6275  0.0950 -0.3454
11324TIP3    H255464   4.413   2.600   3.797 -0.4579 -0.7350  0.6551
11325TIP3   OH255465   4.102   2.558   0.734  0.4009 -0.2272  0.0735
11325TIP3    H155466   4.035   2.617   0.768  1.2749  0.4176  0.7207
11325TIP3    H255467   4.180   2.577   0.786  0.6614 -2.1166  0.4524
11326TIP3   OH255468   6.574   0.093  13.768 -0.5057 -0.0021  0.7565
11326TIP3    H155469   6.639   0.155  13.803  1.2549 -1.7660  0.7599
11326TIP3    H255470   6.571   0.113  13.675  0.5116 -0.2863  0.6491
11327TIP3   OH255471   5.280   4.080   5.760 -0.2978  0.1790  0.1233
11327TIP3    H155472   5.271   4.050   5.851 -0.7894  2.7140  1.0068
11327TIP3    H255473   5.373   4.066   5.740 -0.7244 -2.9783 -0.0441
11328TIP3   OH255474   6.669   6.546   5.060 -0.0492  0.0002 -0.1279
11328TIP3    H155475   6.645   6.493   5.136  0.3943 -1.5727 -1.0393
11328TIP3    H255476   6.614   6.624   5.067  0.7957  0.4617  2.4070
11329TIP3   OH255477   2.768   4.212  14.842 -0.5577 -0.5056 -0.6951
11329TIP3    H155478   2.744   4.304  14.838  0.6308 -0.0881  0.9011
11329TIP3    H255479   2.786   4.188  14.751 -1.7082  0.5868 -1.2345
11330TIP3   OH255480   4.762   4.278   1.154 -0.4610  0.9339 -0.1695
11330TIP3    H155481   4.685   4.310   1.107 -1.0885 -1.3364 -0.8062
11330TIP3    H255482   4.814   4.233   1.088  1.0237  1.6998  0.4283
11331TIP3   OH255483   4.155   3.649  13.011  0.4944 -0.5499 -0.7697
11331TIP3    H155484   4.178   3.742  13.009  0.1788 -0.4029  1.0237
11331TIP3    H255485   4.064   3.647  13.041  0.7490 -1.4513  0.0088
11332TIP3   OH255486   4.271   1.253   4.261 -0.5781  0.1403  0.3934
11332TIP3    H155487   4.366   1.256   4.277 -0.5642 -0.8993  0.5551
11332TIP3    H255488   4.233   1.298   4.337 -0.1453  2.4045 -0.6577
11333TIP3   OH255489   1.313   5.488  11.988 -0.0306 -0.3733  0.3601
11333TIP3    H155490   1.262   5.435  12.049 -0.8346  0.5924  0.5514
11333TIP3    H255491   1.294   5.451  11.901 -2.2228  0.8336  0.2657
11334TIP3   OH255492   4.127   0.090   2.482 -0.4685 -0.0681 -0.0040
11334TIP3    H155493   4.097   0.123   2.566  0.7497 -0.6178  0.6684
11334TIP3    H255494   4.077   0.009   2.469 -0.1383 -0.3633  0.5399
11335TIP3   OH255495   3.406   4.457  14.908 -0.0117  0.2078 -0.2947
11335TIP3    H155496   3.330   4.515  14.894  0.6095  0.8129 -1.2688
11335TIP3    H255497   3.473   4.515  14.945  0.6396  0.1445 -1.3405
11336TIP3   OH255498   6.220   0.647   1.623 -0.2245 -0.3381 -0.1998
11336TIP3    H155499   6.282   0.575   1.634 -0.3470 -0.2943  0.8799
11336TIP3    H255500   6.242   0.708   1.693 -1.6927 -0.4798  0.4205
11337TIP3   OH255501   3.097   3.408  11.768  0.1892 -0.2241 -0.8013
11337TIP3    H155502   3.189   3.431  11.776  0.0415  0.2722 -0.4643
11337TIP3    H255503   3.089   3.323  11.811  0.3353  0.1308 -0.0503
11338TIP3   OH255504   0.419   5.112  16.616 -0.1749  0.3963 -0.6576
11338TIP3    H155505   0.394   5.201  16.639 -1.8273  0.0720 -1.1253
11338TIP3    H255506   0.514   5.117  16.603 -0.0465  1.8015  0.5223
11339TIP3   OH255507   5.945   0.324  14.509 -0.2659  0.5112  0.3285
11339TIP3    H155508   5.960   0.235  14.541  2.1229  0.8364  0.3455
11339TIP3    H255509   6.021   0.343  14.454 -1.6979  1.8584 -1.2982
11340TIP3   OH255510   4.529   5.752  16.367  0.4660  0.2466 -0.5875
11340TIP3    H155511   4.547   5.679  16.426  0.1862  0.3244 -0.4048
11340TIP3    H255512   4.519   5.828  16.424 -1.3235  0.0582 -0.5898
11341TIP3   OH255513   5.856   0.015   2.382 -0.3975 -0.3744  0.3836
11341TIP3    H155514   5.829  -0.029   2.301  1.6996 -0.2295 -0.4617
11341TIP3    H255515   5.814   0.101   2.377 -0.4784 -0.4544 -0.4305
11342TIP3   OH255516   3.518   3.280   2.938  0.2788 -0.4541 -0.2390
11342TIP3    H155517   3.606   3.282   2.977 -0.2229  0.2301  0.8989
11342TIP3    H255518   3.534   3.270   2.844  1.5895 -0.1204 -0.0731
11343TIP3   OH255519   4.837   4.342   6.104  0.2504 -0.6553  0.1293
11343TIP3    H155520   4.900   4.272   6.087  2.3404  0.7449  1.5482
11343TIP3    H255521   4.811   4.373   6.017 -0.0829 -2.5826 -0.5074
11344TIP3   OH255522   0.952   3.598  12.161 -0.8650 -0.2238 -0.4285
11344TIP3    H155523   1.031   3.546  12.177 -1.7110 -1.0634  1.2166
11344TIP3    H255524   0.926   3.574  12.072  0.1833 -0.6716 -0.6289
11345TIP3   OH255525   2.177   4.006   4.118  0.1714 -0.2624 -0.9641
11345TIP3    H155526   2.129   3.924   4.115  0.1816 -0.3516  0.4392
11345TIP3    H255527   2.266   3.981   4.141 -0.2510  0.2305  1.4918
11346TIP3   OH255528   2.903   5.936   4.575 -0.3287  0.4376 -0.3569
11346TIP3    H155529   2.814   5.907   4.592  0.5721 -2.0503  0.6329
11346TIP3    H255530   2.922   5.905   4.486 -0.1190 -0.0211 -0.1581
11347TIP3   OH255531   2.334   5.646  16.495 -0.1952  0.1071 -0.2106
11347TIP3    H155532   2.416   5.634  16.542 -0.2129 -0.6191 -0.3623
11347TIP3    H255533   2.358   5.649  16.403 -0.4570 -1.4698 -0.3615
11348TIP3   OH255534   2.133   4.155  14.299 -0.4685 -0.1829 -0.2433
11348TIP3    H155535   2.048   4.192  14.322 -1.6718 -1.6694 -1.9944
11348TIP3    H255536   2.132   4.149  14.204  2.0613  0.7043 -0.4262
11349TIP3   OH255537   4.868   5.020  10.695  0.1813 -0.3216 -0.2385
11349TIP3    H155538   4.958   5.051  10.686  0.5091 -1.1847 -0.0790
11349TIP3    H255539   4.828   5.080  10.758  0.4521  0.4411 -0.7771
11350TIP3   OH255540   4.005   1.650   5.625  0.3756 -0.2257 -0.2902
11350TIP3    H155541   3.934   1.648   5.560  0.1318 -2.7383 -0.0290
11350TIP3    H255542   4.085   1.650   5.572  0.1734 -0.7632 -0.6066
11351TIP3   OH255543   5.797   1.895  15.509 -0.6474 -0.0567 -0.1191
11351TIP3    H155544   5.856   1.888  15.433 -0.7481 -0.7590 -0.1358
11351TIP3    H255545   5.836   1.964  15.563 -0.7776  0.7201 -0.9875
11352TIP3   OH255546   5.887   3.202  16.575 -0.4331  0.6124  0.3337
11352TIP3    H155547   5.920   3.119  16.542 -0.7204  0.9907 -0.9780
11352TIP3    H255548   5.803   3.181  16.615  0.3962 -0.0237  1.8011
11353TIP3   OH255549   0.206   1.059  11.294 -0.2380 -0.3167  0.5063
11353TIP3    H155550   0.172   1.007  11.366 -1.5253 -0.5722 -0.2614
11353TIP3    H255551   0.261   1.125  11.336 -1.5313 -0.0099  1.7880
11354TIP3   OH255552   2.706   0.820   5.102  0.0829 -0.4140 -0.1404
11354TIP3    H155553   2.765   0.802   5.175  0.0734  0.1177  0.0013
11354TIP3    H255554   2.644   0.884   5.136  0.1322 -0.0926 -0.6429
11355TIP3   OH255555   6.460   6.604   1.206  0.3799  0.5052 -0.7056
11355TIP3    H155556   6.394   6.657   1.251  0.0348 -0.4316 -0.0727
11355TIP3    H255557   6.466   6.524   1.258  0.8922 -0.0835 -1.6396
11356TIP3   OH255558   2.055   4.999  12.829  0.2314 -0.0013 -0.4893
11356TIP3    H155559   1.960   5.001  12.840  0.1305  0.8414 -1.3614
11356TIP3    H255560   2.086   4.946  12.903 -0.8736  0.0299  0.0304
11357TIP3   OH255561   6.248   5.436   3.351 -0.0510  0.3965 -0.3344
11357TIP3    H155562   6.274   5.352   3.390  1.7425  1.0053 -0.1219
11357TIP3    H255563   6.285   5.435   3.263 -3.3131 -0.5860 -1.8377
11358TIP3   OH255564   2.170   0.514   6.092  0.7479 -0.0305 -0.0372
11358TIP3    H155565   2.206   0.600   6.113  1.2185 -0.6883  2.0864
11358TIP3    H255566   2.192   0.460   6.167  0.9093 -2.1664 -1.5362
11359TIP3   OH255567   1.334   5.368   0.886  0.2444  0.2491 -0.4486
11359TIP3    H155568   1.406   5.310   0.913  0.6273  0.2895 -1.3198
11359TIP3    H255569   1.340   5.443   0.944 -1.1849 -1.2054  1.7070
11360TIP3   OH255570   6.507   1.758   1.494 -0.1175 -0.6011 -0.1042
11360TIP3    H155571   6.513   1.745   1.588 -0.3340 -1.1321 -0.1617
11360TIP3    H255572   6.561   1.688   1.456  0.6078  0.0785 -0.3543
11361TIP3   OH255573   1.957   1.650   6.012 -0.2597 -0.5351 -0.3251
11361TIP3    H155574   1.996   1.721   5.961 -1.0254 -0.1058 -0.3159
11361TIP3    H255575   2.032   1.604   6.049  0.2310  0.7228  0.2962
11362TIP3   OH255576   4.292   3.172  14.311 -0.3809 -0.0104 -0.2228
11362TIP3    H155577   4.267   3.080  14.297  0.5205 -0.0713 -1.6671
11362TIP3    H255578   4.350   3.192  14.237  0.0846  1.4859  0.5189
11363TIP3   OH255579   3.202   4.551  12.257 -0.3772  0.2420  0.0709
11363TIP3    H155580   3.284   4.592  12.285  0.2692 -0.2533 -1.0136
11363TIP3    H255581   3.158   4.619  12.206 -1.2708  0.9396  1.7061
11364TIP3   OH255582   5.632   3.582  14.446  0.1263  0.1591 -0.1482
11364TIP3    H155583   5.547   3.580  14.491 -0.3498  0.0051 -1.0354
11364TIP3    H255584   5.689   3.526  14.500 -0.8404 -1.2349 -0.5092
11365TIP3   OH255585   4.394   2.128   4.504  0.3168 -0.0554 -0.0863
11365TIP3    H155586   4.349   2.071   4.566  1.4336 -1.0446 -0.1526
11365TIP3    H255587   4.326   2.187   4.471 -0.5138 -0.2487  1.2375
11366TIP3   OH255588   5.410   6.297   4.180 -0.2299  0.6333 -0.4166
11366TIP3    H155589   5.349   6.235   4.219 -0.4137  0.9040 -0.2737
11366TIP3    H255590   5.364   6.381   4.182 -0.0281  0.7529 -0.7130
11367TIP3   OH255591   1.218   3.638   0.085 -0.0840  0.0455 -0.1014
11367TIP3    H155592   1.224   3.556   0.133  2.0152  0.3690  0.2699
11367TIP3    H255593   1.212   3.705   0.154  1.8566  0.4302 -0.2471
11368TIP3   OH255594   6.590   0.882   0.462 -0.2231 -0.0440 -0.2220
11368TIP3    H155595   6.508   0.844   0.429 -0.0914 -0.9532  0.4859
11368TIP3    H255596   6.568   0.974   0.480 -0.3368  0.4841 -2.6947
11369TIP3   OH255597   0.785   4.492  12.382 -0.6114  0.3155 -0.0480
11369TIP3    H155598   0.802   4.451  12.297 -1.4750  2.0170 -1.0889
11369TIP3    H255599   0.840   4.443  12.443 -0.3800 -1.3149 -1.4747
11370TIP3   OH255600   0.982   0.000  11.623  0.8883  0.2375  0.1738
11370TIP3    H155601   1.029  -0.026  11.702 -0.3016  1.7781  1.4464
11370TIP3    H255602   1.003   0.093  11.612 -0.1542  0.4114 -0.4555
11371TIP3   OH255603   1.290   6.055   0.003 -0.2476 -0.1473 -0.3543
11371TIP3    H155604   1.281   6.022  -0.086 -0.6958  0.2926 -0.4800
11371TIP3    H255605   1.201   6.077   0.030 -0.0779  0.0426  0.0776
11372TIP3   OH255606   1.462   3.591   1.015 -0.3490 -0.7926 -0.1307
11372TIP3    H155607   1.382   3.640   1.032  0.6176  0.8473 -0.1111
11372TIP3    H255608   1.533   3.654   1.031  1.1791 -3.0926  3.5315
11373TIP3   OH255609   5.028   3.228   0.683 -0.0900  0.3018 -0.1329
11373TIP3    H155610   5.089   3.299   0.703 -0.9127  1.9088 -2.8344
11373TIP3    H255611   4.957   3.271   0.635 -2.8625 -1.6757  1.9510
11374TIP3   OH255612   3.042   5.737  15.760  0.1090 -0.2718  0.5406
11374TIP3    H155613   2.947   5.734  15.771 -0.0851  2.6034  0.5488
11374TIP3    H255614   3.055   5.771  15.672  1.0686  0.7981  1.0673
11375TIP3   OH255615   3.154   5.455  14.059  0.2178 -0.5090  0.0851
11375TIP3    H155616   3.110   5.523  14.008  0.4731 -0.4375 -0.0387
11375TIP3    H255617   3.225   5.424  14.002 -0.3839 -1.4349 -0.1916
11376TIP3   OH255618   3.153   5.012  15.187  0.0667  0.2389 -0.9523
11376TIP3    H155619   3.226   4.956  15.159  1.0674  0.5903  0.8293
11376TIP3    H255620   3.176   5.099  15.153  0.5563  0.3792 -0.2672
11377TIP3   OH255621   6.326   0.886  11.350  0.1727  0.1473 -0.4434
11377TIP3    H155622   6.302   0.812  11.405  0.2618  1.0043  0.7795
11377TIP3    H255623   6.418   0.871  11.328 -0.2706 -0.9637 -1.6311
11378TIP3   OH255624   0.267   0.302  14.975 -0.2320 -0.0826 -0.5169
11378TIP3    H155625   0.201   0.321  14.907 -0.4210  1.0904 -0.0366
11378TIP3    H255626   0.322   0.381  14.977  0.4233 -0.5468 -0.0482
11379TIP3   OH255627   5.010   0.852   1.102 -0.2603 -0.3546  0.3743
11379TIP3    H155628   5.001   0.897   1.017 -1.1496 -3.6460 -1.4497
11379TIP3    H255629   5.101   0.865   1.126  0.4048 -0.4650 -1.8450
11380TIP3   OH255630   0.596   1.049   3.099  0.1477  0.3919  0.1208
11380TIP3    H155631   0.644   1.079   3.021  1.7029 -0.5006  0.6816
11380TIP3    H255632   0.602   0.953   3.095  0.2606  0.3368  1.3281
11381TIP3   OH255633   1.352   3.669   4.559 -0.2474  0.2567 -0.5225
11381TIP3    H155634   1.318   3.593   4.605  0.4567  0.3846  0.2225
11381TIP3    H255635   1.322   3.658   4.468 -2.0384  0.2264  0.0280
11382TIP3   OH255636   6.754   0.829   2.482  0.1064  0.0451  0.2434
11382TIP3    H155637   6.717   0.903   2.433 -0.4889 -1.0225 -0.9902
11382TIP3    H255638   6.695   0.817   2.556  0.0614  0.6421  0.3108
11383TIP3   OH255639   3.999   1.088  16.574  0.0946 -0.0697  0.2010
11383TIP3    H155640   4.006   1.058  16.483  1.8727  1.6395 -0.3182
11383TIP3    H255641   3.963   1.177  16.567  2.6807  1.1501  0.8142
11384TIP3   OH255642   0.360   2.702   6.491  0.0060 -0.3587 -0.2925
11384TIP3    H155643   0.430   2.766   6.482  0.1359 -0.2015  1.4961
11384TIP3    H255644   0.287   2.739   6.441  0.6911  0.2336 -0.8788
11385TIP3   OH255645   4.594   5.060   1.866  0.8121 -0.0258  0.4074
11385TIP3    H155646   4.546   5.056   1.949  0.4588 -3.7172  0.1818
11385TIP3    H255647   4.677   5.018   1.885  1.3252  0.4150 -0.7923
11386TIP3   OH255648   4.936   6.009   3.845  0.0202 -0.5418  0.2118
11386TIP3    H155649   4.887   5.946   3.897 -0.0181 -0.4857  0.2443
11386TIP3    H255650   4.887   6.090   3.853 -0.1630 -0.6128 -0.1766
11387TIP3   OH255651   2.850   1.642  16.711  0.0282 -0.9044  0.0346
11387TIP3    H155652   2.810   1.622  16.626  1.2772  0.1318 -0.8483
11387TIP3    H255653   2.922   1.579  16.719 -1.4667 -2.5559  1.4717
11388TIP3   OH255654   5.819   4.471   5.930 -0.6967 -0.5105  0.0488
11388TIP3    H155655   5.749   4.419   5.970  0.4068 -0.2200  2.5588
11388TIP3    H255656   5.863   4.513   6.004  0.5749  1.3102 -1.6395
11389TIP3   OH255657   6.509   6.279   4.354 -0.5234  0.1602 -0.0609
11389TIP3    H155658   6.538   6.235   4.274 -1.4631  0.8091 -0.7701
11389TIP3    H255659   6.420   6.247   4.368 -1.4803  2.2666 -0.9514
11390TIP3   OH255660   0.967   2.942   5.242 -0.0241 -0.1566 -0.0609
11390TIP3    H155661   0.936   2.870   5.297 -0.0955 -0.4220 -0.4458
11390TIP3    H255662   1.043   2.976   5.288 -0.1235 -0.3333  0.2386
11391TIP3   OH255663   0.365   6.313  17.096  0.1685  0.3042  0.4005
11391TIP3    H155664   0.400   6.402  17.104  1.6998 -0.3153  0.7994
11391TIP3    H255665   0.354   6.301  17.001  1.5985  0.3157  0.2168
11392TIP3   OH255666   5.564   6.223  16.268 -0.1233  0.4195 -0.0876
11392TIP3    H155667   5.525   6.306  16.295 -0.3355  0.0460  0.7623
11392TIP3    H255668   5.496   6.158  16.285  0.4142 -0.0663  0.2039
11393TIP3   OH255669   0.079   4.311   4.601 -0.3395  0.2125  0.6207
11393TIP3    H155670   0.147   4.252   4.570  0.3943  1.1044  0.4600
11393TIP3    H255671   0.002   4.256   4.613  0.7017 -1.0368  1.8905
11394TIP3   OH255672   0.114   6.061  12.115  0.6279  0.4099 -0.5681
11394TIP3    H155673   0.098   6.015  12.197  2.8310 -0.5879 -0.6040
11394TIP3    H255674   0.094   6.152  12.133 -0.5510 -0.0515  0.5514
11395TIP3   OH255675   3.466   4.486  15.253  0.3987 -0.3072 -0.3463
11395TIP3    H155676   3.472   4.543  15.177 -3.0904  0.5007 -0.1739
11395TIP3    H255677   3.443   4.400  15.218  1.1955 -0.5559 -0.2978
11396TIP3   OH255678   4.506   0.104   6.160  0.1650  0.2550  0.3735
11396TIP3    H155679   4.549   0.189   6.166  0.7971  0.1609 -1.7929
11396TIP3    H255680   4.442   0.104   6.230 -0.9749  3.1792 -0.5234
11397TIP3   OH255681   3.353   3.026  11.515  0.3239  0.2814 -0.1823
11397TIP3    H155682   3.409   2.966  11.563  0.0390  2.5177  3.2705
11397TIP3    H255683   3.410   3.099  11.491 -0.4389  1.2876  0.9234
11398TIP3   OH255684   5.337   6.609   0.845  0.4370 -0.2551  0.4562
11398TIP3    H155685   5.288   6.527   0.856 -0.4089  0.2222  0.3416
11398TIP3    H255686   5.327   6.653   0.929  0.0338  0.1831  0.1799
11399TIP3   OH255687   6.747   5.258  17.107 -0.3843  0.2879  0.4362
11399TIP3    H155688   6.790   5.253  17.193 -3.2173  1.0949  2.0481
11399TIP3    H255689   6.775   5.342  17.071  1.9442 -0.6682 -0.1802
11400TIP3   OH255690   0.124   2.252   0.307  0.4103 -0.0805  0.5115
11400TIP3    H155691   0.139   2.336   0.351 -0.3174 -0.4691  1.5483
11400TIP3    H255692   0.188   2.192   0.346  0.4338 -0.1928  0.3053
11401TIP3   OH255693   6.058   5.144   5.610  0.3168  0.0106 -0.0298
11401TIP3    H155694   6.054   5.075   5.676 -0.6011  0.7861  0.7662
11401TIP3    H255695   6.151   5.165   5.603  0.5573 -0.9824  0.0604
11402TIP3   OH255696   1.664   3.505   4.545 -0.5159  0.3698 -0.0602
11402TIP3    H155697   1.603   3.436   4.523  1.0748 -2.1006  2.5495
11402TIP3    H255698   1.737   3.495   4.484 -0.7301  0.4096 -0.3218
11403TIP3   OH255699   4.450   0.341   4.338  0.3018 -0.6953  0.1494
11403TIP3    H155700   4.526   0.290   4.366 -0.0399 -0.8211  0.8541
11403TIP3    H255701   4.457   0.343   4.242  3.2178  2.3935  0.2410
11404TIP3   OH255702   5.778   3.901  11.229  0.6541  0.3357 -0.2022
11404TIP3    H155703   5.796   3.976  11.172 -0.4929  1.8361  1.3083
11404TIP3    H255704   5.690   3.872  11.204 -0.2204  1.5463  1.2700
11405TIP3   OH255705   3.471   6.779  11.937  0.3134 -0.4011  0.4976
11405TIP3    H155706   3.403   6.807  11.998  0.0946 -0.8656  0.4738
11405TIP3    H255707   3.426   6.720  11.876  0.4107  0.4498 -0.4255
11406TIP3   OH255708   2.134   1.256  16.316  0.5383 -0.4865  0.3982
11406TIP3    H155709   2.225   1.258  16.347  0.3378 -1.3557  1.0790
11406TIP3    H255710   2.130   1.179  16.259  0.2465 -0.3873  0.2832
11407TIP3   OH255711   5.469   3.387   3.257 -0.1885 -0.0454 -0.1010
11407TIP3    H155712   5.397   3.324   3.250  1.6256 -2.3082  0.2878
11407TIP3    H255713   5.495   3.404   3.166 -0.4106 -0.2071 -0.1957
11408TIP3   OH255714   2.864   5.847  13.790 -0.2356  0.2364 -0.3781
11408TIP3    H155715   2.873   5.860  13.885  0.2474  0.6773 -0.4789
11408TIP3    H255716   2.853   5.935  13.755  1.8673  0.2992 -0.9603
11409TIP3   OH255717   5.420   5.534  11.566 -0.9552  0.1917 -0.0758
11409TIP3    H155718   5.342   5.514  11.618 -2.1885  0.5835 -1.7090
11409TIP3    H255719   5.429   5.629  11.572 -1.1700  0.2525 -0.6440
11410TIP3   OH255720   6.072   0.483  13.326  0.7883  0.4369 -0.0350
11410TIP3    H155721   6.001   0.443  13.377  2.5040 -2.4924  0.2725
11410TIP3    H255722   6.080   0.427  13.249  2.0370  1.3843 -0.6344
11411TIP3   OH255723   0.800   0.998  14.561 -0.1388 -0.3587  0.2675
11411TIP3    H155724   0.827   1.087  14.582 -1.4364  0.2665 -0.6011
11411TIP3    H255725   0.880   0.946  14.568  1.2744  1.3627 -2.0244
11412TIP3   OH255726   3.343   6.386   4.362 -0.3900 -0.3425  0.0223
11412TIP3    H155727   3.411   6.429   4.414  0.5570 -0.0029 -1.4545
11412TIP3    H255728   3.331   6.443   4.286 -1.5970 -0.9302 -0.2551
11413TIP3   OH255729   5.426   5.498  16.460  0.4777 -0.3281 -0.2128
11413TIP3    H155730   5.365   5.505  16.534  0.5494  3.9274 -0.3150
11413TIP3    H255731   5.512   5.512  16.499  0.5204  1.9091 -0.9943
11414TIP3   OH255732   0.426   3.317   3.802  0.1050 -0.0811 -0.7601
11414TIP3    H155733   0.350   3.322   3.745 -0.3105  0.1806 -0.1892
11414TIP3    H255734   0.394   3.277   3.883  0.3255  1.0060 -0.1174
11415TIP3   OH255735   1.482   1.948  10.834 -0.0981  0.3897 -0.0255
11415TIP3    H155736   1.545   2.020  10.846  0.0169  0.3945 -0.6530
11415TIP3    H255737   1.537   1.870  10.825 -0.1934  0.3430 -0.2056
11416TIP3   OH255738   5.846   3.182  12.993  0.5560 -0.5169  0.2338
11416TIP3    H155739   5.794   3.111  13.030  0.7856 -0.3064  0.9645
11416TIP3    H255740   5.930   3.176  13.038  0.5624  0.2514  0.3269
11417TIP3   OH255741   3.921   4.082   3.829  0.5002  0.2790  0.1004
11417TIP3    H155742   3.833   4.120   3.826  0.0433 -0.7106  0.5505
11417TIP3    H255743   3.929   4.034   3.747  0.8296  0.8020 -0.1773
11418TIP3   OH255744   0.863   3.165  16.639 -0.1264 -0.4113  0.2399
11418TIP3    H155745   0.955   3.142  16.652 -0.0472  0.3697  1.2408
11418TIP3    H255746   0.838   3.209  16.721 -0.8755  1.0158 -0.7200
11419TIP3   OH255747   2.590   5.834  12.773  0.6574 -0.4581 -0.5872
11419TIP3    H155748   2.576   5.745  12.805  0.7479 -0.0268  0.7271
11419TIP3    H255749   2.555   5.890  12.843  1.4291  0.5442 -0.9782
11420TIP3   OH255750   0.479   2.735   1.567  0.2637 -0.2431  0.0201
11420TIP3    H155751   0.403   2.786   1.539  0.0869 -1.4395 -1.8945
11420TIP3    H255752   0.552   2.770   1.515  0.3681 -1.1351 -0.4601
11421TIP3   OH255753   4.608   0.834  10.652 -0.3972  0.0552 -0.2511
11421TIP3    H155754   4.663   0.792  10.718  1.1285  2.0610 -0.1458
11421TIP3    H255755   4.524   0.847  10.696  0.9264  2.4038  1.8681
11422TIP3   OH255756   6.059   5.503   4.016  0.2394 -0.0785 -0.5422
11422TIP3    H155757   6.016   5.418   4.028  0.0181  0.1358  0.2264
11422TIP3    H255758   6.047   5.548   4.099 -0.2666  0.9911 -1.1652
11423TIP3   OH255759   6.170   2.474  12.593  0.9772  0.3030  0.5026
11423TIP3    H155760   6.089   2.520  12.615  0.3905 -0.0715 -0.7555
11423TIP3    H255761   6.204   2.443  12.677 -0.8476 -0.5959  0.9737
11424TIP3   OH255762   4.295   4.903   0.885 -0.0435 -0.2849  0.2602
11424TIP3    H155763   4.250   4.894   0.969 -1.1573  1.1010 -0.1438
11424TIP3    H255764   4.363   4.969   0.900  0.7822 -1.1580  0.4433
11425TIP3   OH255765   1.591   6.167   5.182 -0.3570  0.2716 -0.4472
11425TIP3    H155766   1.606   6.204   5.270  0.3012  0.8858 -0.8044
11425TIP3    H255767   1.499   6.186   5.164 -0.4554  0.2905  0.0416
11426TIP3   OH255768   6.528   5.094   3.847  0.3703 -0.8993  0.6741
11426TIP3    H155769   6.442   5.137   3.846  1.1129  0.8396 -2.2540
11426TIP3    H255770   6.582   5.151   3.902  0.8085  0.9691 -1.5118
11427TIP3   OH255771   4.271   2.121   0.687 -1.0580  0.4635  0.2948
11427TIP3    H155772   4.278   2.038   0.639  1.3981  1.0081 -0.4186
11427TIP3    H255773   4.230   2.181   0.625  0.0227  0.5637 -0.3513
11428TIP3   OH255774   4.034   2.215   0.966 -0.0689 -0.3046 -0.4579
11428TIP3    H155775   4.040   2.124   0.936  1.7921 -0.2653 -0.3096
11428TIP3    H255776   4.110   2.258   0.927 -0.8967  1.1914 -0.4821
11429TIP3   OH255777   0.564   4.474  12.881  0.1390  0.0849  0.1557
11429TIP3    H155778   0.582   4.464  12.974  1.5531 -0.2823 -0.1402
11429TIP3    H255779   0.629   4.538  12.851  1.0866 -1.3413 -0.9645
11430TIP3   OH255780   1.852   1.269  13.155 -0.1480  0.4705  0.1218
11430TIP3    H155781   1.803   1.226  13.225 -0.1018  2.5974  1.5351
11430TIP3    H255782   1.941   1.276  13.190  0.0722  0.8122 -0.4991
11431TIP3   OH255783   0.733   3.704  15.623  0.3314 -0.2276  0.3857
11431TIP3    H155784   0.750   3.675  15.713 -0.1276 -1.7943 -0.0021
11431TIP3    H255785   0.637   3.713  15.619  0.4503  1.3180  0.4592
11432TIP3   OH255786   0.193   2.346   2.884 -0.0144  0.1418 -0.1899
11432TIP3    H155787   0.172   2.412   2.817  0.4657 -1.7068 -2.2717
11432TIP3    H255788   0.266   2.385   2.933  0.1274  1.2595 -1.2199
11433TIP3   OH255789   4.570   3.853  16.657  0.3813 -0.2846 -0.0858
11433TIP3    H155790   4.486   3.831  16.696 -0.4894  0.0033 -1.7112
11433TIP3    H255791   4.578   3.948  16.668  0.3808 -0.2799 -0.1236
11434TIP3   OH255792   1.784   2.872  16.547  0.3201 -0.3205 -0.0435
11434TIP3    H155793   1.752   2.904  16.463  1.8346 -0.7681 -0.8246
11434TIP3    H255794   1.777   2.947  16.606  1.9909  0.9130 -1.3385
11435TIP3   OH255795   4.924   4.617  16.615 -0.0551  0.4042 -0.2862
11435TIP3    H155796   4.886   4.625  16.528  1.8109  0.5312 -1.1303
11435TIP3    H255797   4.908   4.525  16.639 -0.8338  0.4433 -0.6252
11436TIP3   OH255798   0.271   1.138  13.621  0.2183  0.2345 -0.4431
11436TIP3    H155799   0.215   1.205  13.660  1.4418  1.1489 -0.1853
11436TIP3    H255800   0.355   1.147  13.667  1.5518  0.9642 -2.8249
11437TIP3   OH255801   1.787   2.651   5.386 -1.0741  0.3809 -0.1046
11437TIP3    H155802   1.818   2.596   5.314 -0.0763 -0.1910  0.7326
11437TIP3    H255803   1.857   2.714   5.400 -0.3512 -0.7005  1.5720
11438TIP3   OH255804   1.150   1.855   6.299 -0.9544  0.0604  0.2299
11438TIP3    H155805   1.178   1.897   6.380 -0.1191  0.7655 -0.3945
11438TIP3    H255806   1.232   1.834   6.254 -1.3389 -2.2183  0.4708
11439TIP3   OH255807   0.884   6.132  14.086  1.1284 -0.0479 -0.3397
11439TIP3    H155808   0.838   6.178  14.156  2.5004 -1.2628  1.4412
11439TIP3    H255809   0.931   6.201  14.039  1.4829  0.6045  0.9492
11440TIP3   OH255810   1.690   2.888   4.178  0.1693 -0.1564  0.1439
11440TIP3    H155811   1.609   2.855   4.139 -0.0320  0.6694 -0.1586
11440TIP3    H255812   1.669   2.900   4.271 -0.0676  0.0988  0.0573
11441TIP3   OH255813   1.350   1.983  12.436  0.0233  0.1370 -0.1256
11441TIP3    H155814   1.299   2.062  12.453 -0.8562 -0.1614 -1.2416
11441TIP3    H255815   1.332   1.962  12.344  1.4404 -0.5121 -0.2840
11442TIP3   OH255816   1.232   6.108   0.725  0.3208  0.0486 -0.3642
11442TIP3    H155817   1.153   6.160   0.706  0.2879 -0.1146 -0.6711
11442TIP3    H255818   1.203   6.017   0.716  0.5486 -0.0105 -0.4906
11443TIP3   OH255819   0.874   6.053   5.742  0.2073 -0.3072 -0.1920
11443TIP3    H155820   0.963   6.088   5.739 -0.1095  0.4713 -1.5414
11443TIP3    H255821   0.873   5.994   5.817  2.2148 -1.2973 -0.8832
11444TIP3   OH255822   5.103   5.040  14.534 -0.5073 -0.0853 -0.0585
11444TIP3    H155823   5.117   4.957  14.579 -0.1843 -0.5313 -0.9683
11444TIP3    H255824   5.050   5.091  14.595  1.0629 -0.1482  1.4193
11445TIP3   OH255825   3.620   5.138   0.938 -0.0934 -0.4486 -0.9444
11445TIP3    H155826   3.686   5.206   0.952 -1.4178  0.5395  1.0001
11445TIP3    H255827   3.537   5.182   0.954 -1.2081 -1.8707 -2.4773
11446TIP3   OH255828   1.473   6.827  14.586 -0.6295 -0.5347 -0.3905
11446TIP3    H155829   1.467   6.912  14.544  3.3813 -0.5898 -1.5103
11446TIP3    H255830   1.404   6.775  14.545  0.2838  0.6883 -3.8007
11447TIP3   OH255831   6.810   0.493  11.387  0.5087 -0.2837 -0.8722
11447TIP3    H155832   6.894   0.453  11.407 -0.1323 -1.3066 -0.0881
11447TIP3    H255833   6.809   0.501  11.292  1.6835  0.2170 -0.8610
11448TIP3   OH255834   0.220   1.736  15.252 -0.2974  0.5664  0.1100
11448TIP3    H155835   0.153   1.707  15.191 -0.2630 -0.2758  0.4617
11448TIP3    H255836   0.224   1.831  15.240 -2.1649  0.7547  0.6930
11449TIP3   OH255837   2.474   2.210  14.370  0.4901 -0.1681  0.4953
11449TIP3    H155838   2.518   2.127  14.355 -0.0529 -0.6725  1.5939
11449TIP3    H255839   2.427   2.198  14.452  0.9986  1.4866  1.0645
11450TIP3   OH255840   5.163   5.762   0.926  0.0047  0.3098 -0.2706
11450TIP3    H155841   5.186   5.838   0.873 -0.0249 -0.5713 -1.6054
11450TIP3    H255842   5.128   5.799   1.007  1.0801  1.6972 -0.3914
11451TIP3   OH255843   3.607   4.970  13.827 -0.3316  0.1023  0.1732
11451TIP3    H155844   3.702   4.979  13.826 -0.0229 -2.1080  1.3182
11451TIP3    H255845   3.591   4.897  13.888 -2.7646  0.4629  0.0693
11452TIP3   OH255846   0.083   0.801  12.980 -1.0479 -0.2903  0.1595
11452TIP3    H155847   0.090   0.895  12.998 -1.7068  0.1223 -1.5561
11452TIP3    H255848  -0.003   0.791  12.940 -0.0670 -1.2116 -1.8588
11453TIP3   OH255849   4.495   0.335  14.497 -0.3848 -0.1587  0.3954
11453TIP3    H155850   4.578   0.359  14.538 -0.2672  0.5524 -0.2441
11453TIP3    H255851   4.429   0.361  14.560 -0.2185  1.1445  0.0535
11454TIP3   OH255852   5.406   4.535  15.094 -0.4641 -0.0032  0.1865
11454TIP3    H155853   5.493   4.545  15.054 -0.2070  0.0927  0.7717
11454TIP3    H255854   5.347   4.577  15.032 -0.5188 -2.6323 -1.7549
11455TIP3   OH255855   2.950   0.477  17.017  0.2983  0.1023  0.0319
11455TIP3    H155856   2.983   0.422  17.088 -1.8520  0.1669  1.1593
11455TIP3    H255857   3.003   0.452  16.941  1.5780 -1.1370  1.2669
11456TIP3   OH255858   1.985   1.474  10.742  0.4558  0.1150 -0.4652
11456TIP3    H155859   2.057   1.486  10.680  0.8402  0.2736  0.0074
11456TIP3    H255860   1.906   1.486  10.689  0.7810  0.3733 -0.9007
11457TIP3   OH255861   6.161   3.630  16.282 -0.3257 -0.1972  0.2311
11457TIP3    H155862   6.189   3.545  16.315 -2.1181 -0.2073  1.9080
11457TIP3    H255863   6.159   3.687  16.359 -1.5630  0.6632 -0.3986
11458TIP3   OH255864   2.639   2.574  15.253  0.5461  0.2420  0.3328
11458TIP3    H155865   2.669   2.542  15.339  0.4491 -1.1910 -0.1348
11458TIP3    H255866   2.679   2.514  15.190 -0.6230  0.3235 -0.5212
11459TIP3   OH255867   1.021   1.868   2.867  0.1677 -0.8218 -0.2783
11459TIP3    H155868   1.031   1.957   2.834  1.2193 -1.3218 -1.4229
11459TIP3    H255869   1.092   1.857   2.930 -1.3414 -0.1423  1.6439
11460TIP3   OH255870   5.543   2.853   2.191  0.1446 -0.0163  0.1208
11460TIP3    H155871   5.534   2.940   2.154  1.8537  0.8062  1.5368
11460TIP3    H255872   5.573   2.867   2.280  3.8588 -2.0695 -0.6108
11461TIP3   OH255873   3.389   4.742  14.237  0.1450  0.3543 -0.1756
11461TIP3    H155874   3.453   4.762  14.169  0.0697 -1.1586 -0.7348
11461TIP3    H255875   3.442   4.722  14.315  0.3178  0.1519 -0.3433
11462TIP3   OH255876   6.037   2.520   5.896 -0.3665  0.2776 -0.1818
11462TIP3    H155877   6.106   2.455   5.913  0.5581  1.1181 -0.6423
11462TIP3    H255878   6.033   2.572   5.976  2.1001  2.5156 -1.3839
11463TIP3   OH255879   0.504   0.407   2.249  0.0372  0.2981 -0.5470
11463TIP3    H155880   0.569   0.348   2.286  0.7078  0.4002 -1.5282
11463TIP3    H255881   0.468   0.453   2.324  0.9444  0.0805  0.0330
11464TIP3   OH255882   4.082   5.582  16.752  0.8364 -0.2883 -0.3150
11464TIP3    H155883   4.106   5.502  16.705  2.2937 -0.4782  0.6482
11464TIP3    H255884   4.099   5.653  16.690 -0.4274 -0.6933 -1.1631
11465TIP3   OH255885   5.966   2.793   3.365  0.5034 -1.1008 -0.3773
11465TIP3    H155886   5.873   2.772   3.366  0.9041 -3.0868  0.6330
11465TIP3    H255887   5.989   2.808   3.457  0.8621  1.2130 -0.7722
11466TIP3   OH255888   6.074   6.490  14.220 -0.2041  0.0919  0.1121
11466TIP3    H155889   6.129   6.568  14.211 -2.6744  1.9684 -0.1388
11466TIP3    H255890   6.049   6.468  14.130  0.7405 -1.2239  0.1588
11467TIP3   OH255891   3.614   2.206  11.945  0.3738  0.1979  0.1652
11467TIP3    H155892   3.520   2.194  11.929  0.5941 -3.7229  0.8662
11467TIP3    H255893   3.618   2.259  12.025 -1.2634  0.1710  0.3020
11468TIP3   OH255894   4.144   6.414   2.539  0.1286 -0.5788  0.0874
11468TIP3    H155895   4.197   6.449   2.467  0.4178 -1.8498 -0.3390
11468TIP3    H255896   4.113   6.329   2.507 -0.8871 -0.5468  0.9382
11469TIP3   OH255897   6.564   0.392   5.576 -0.6565  0.0841  0.3193
11469TIP3    H155898   6.509   0.362   5.649 -0.9954  0.6517  0.3041
11469TIP3    H255899   6.634   0.442   5.618  0.0311 -0.8950  0.3608
11470TIP3   OH255900   0.341   3.735   3.093  0.2787 -0.1221  0.1436
11470TIP3    H155901   0.250   3.715   3.114 -0.3398  0.1723 -2.0091
11470TIP3    H255902   0.390   3.659   3.126 -1.0180 -1.3042 -0.5406
11471TIP3   OH255903   1.764   0.282   4.283  0.5156 -0.5783  0.4194
11471TIP3    H155904   1.805   0.301   4.199 -1.6824  0.1967 -0.5503
11471TIP3    H255905   1.807   0.341   4.345 -1.2277  2.6409 -1.1781
11472TIP3   OH255906   0.684   6.058  14.349  0.4952  0.8357  0.3469
11472TIP3    H155907   0.751   5.996  14.319  1.5453  1.9747  0.2777
11472TIP3    H255908   0.716   6.090  14.433 -0.9455 -0.0455  1.2770
11473TIP3   OH255909   5.763   1.845  15.210 -0.5915 -0.2020 -0.1547
11473TIP3    H155910   5.694   1.888  15.158 -0.0295  1.5009  0.4623
11473TIP3    H255911   5.845   1.876  15.171 -0.1274  1.7251  2.1082
11474TIP3   OH255912   4.811   1.595  15.267 -0.1898  0.5100  0.0926
11474TIP3    H155913   4.770   1.570  15.185 -0.5385  0.9243  0.1371
11474TIP3    H255914   4.803   1.517  15.323  1.0801 -0.1834 -0.6334
11475TIP3   OH255915   0.054   0.433  13.862  0.4385 -0.1742  0.3280
11475TIP3    H155916  -0.002   0.505  13.835  0.2007  0.7718  3.1013
11475TIP3    H255917   0.140   0.472  13.876  0.6227 -0.6756  0.6503
11476TIP3   OH255918   4.880   2.675   5.525  0.6312  0.2739 -0.1334
11476TIP3    H155919   4.837   2.591   5.543 -0.3644  0.7994 -0.0081
11476TIP3    H255920   4.827   2.740   5.571 -0.7058  1.4102 -3.0168
11477TIP3   OH255921   0.038   1.057   5.848 -0.0686 -0.1254 -0.0975
11477TIP3    H155922   0.105   1.081   5.784 -0.2145 -1.4030 -0.7768
11477TIP3    H255923  -0.002   1.140   5.874  1.4137  0.6008 -0.0684
11478TIP3   OH255924   2.079   4.945  15.264 -0.2669  0.6816 -0.0322
11478TIP3    H155925   2.142   4.874  15.279 -1.0863  0.1289  0.9339
11478TIP3    H255926   1.995   4.909  15.292 -1.1177  1.2470 -1.7061
11479TIP3   OH255927   4.720   1.235   6.040 -0.3531 -0.2216  0.3167
11479TIP3    H155928   4.755   1.220   6.128  0.5777  2.7093  0.5531
11479TIP3    H255929   4.625   1.236   6.051 -0.2446 -0.0111  1.2810
11480TIP3   OH255930   4.222   2.229  12.174  0.5298  0.4047  0.0136
11480TIP3    H155931   4.186   2.142  12.159 -0.4310  0.7618  0.1529
11480TIP3    H255932   4.316   2.219  12.161  0.2670 -0.2927 -1.6177
11481TIP3   OH255933   6.723   1.451   5.225 -0.0437 -0.3755 -0.0137
11481TIP3    H155934   6.667   1.528   5.237  0.8383  0.1314  0.9679
11481TIP3    H255935   6.741   1.449   5.131  1.4112  1.7227  0.1344
11482TIP3   OH255936   3.945   0.338   2.665 -0.2482  0.0763  0.5993
11482TIP3    H155937   3.910   0.276   2.728  0.4444 -0.3036  0.6186
11482TIP3    H255938   4.024   0.373   2.707  0.2973 -0.2805 -0.0991
11483TIP3   OH255939   1.579   5.167  13.814  0.3455  0.3409  0.2956
11483TIP3    H155940   1.528   5.167  13.733 -2.2019 -0.2823  1.7815
11483TIP3    H255941   1.594   5.074  13.832 -0.5799  0.3860  1.3725
11484TIP3   OH255942   1.508   3.069   5.817 -0.2379  0.3097  0.0704
11484TIP3    H155943   1.575   3.119   5.864 -1.0766  0.8916  0.6874
11484TIP3    H255944   1.471   3.133   5.755  0.5054 -0.3076 -1.0432
11485TIP3   OH255945   1.951   1.494  17.029 -0.3659  0.1151 -0.1047
11485TIP3    H155946   1.870   1.456  16.998 -0.3032 -0.9309  0.9490
11485TIP3    H255947   2.001   1.420  17.065  0.2782  0.9936  0.8825
11486TIP3   OH255948   4.818   5.910  16.006  0.1624 -0.2673 -0.6194
11486TIP3    H155949   4.816   5.908  15.910  1.3914 -0.2319 -0.6641
11486TIP3    H255950   4.793   6.000  16.028 -1.0236 -0.5236 -0.8557
11487TIP3   OH255951   6.141   4.577   2.605  0.0008 -0.3117 -0.0114
11487TIP3    H155952   6.059   4.556   2.559 -1.0664  0.4088  1.4815
11487TIP3    H255953   6.172   4.492   2.638 -0.7449 -0.4535  0.3454
11488TIP3   OH255954   1.586   1.242   5.290 -0.0968  0.1250  0.3864
11488TIP3    H155955   1.560   1.334   5.280  0.4796  0.1499 -1.2193
11488TIP3    H255956   1.524   1.194   5.235  1.3729 -0.1017 -1.1822
11489TIP3   OH255957   4.822   2.834  15.682  0.3461 -0.1787 -0.4254
11489TIP3    H155958   4.784   2.787  15.757 -0.1102  1.6594  0.5367
11489TIP3    H255959   4.914   2.844  15.704  0.3170 -0.0851 -0.3444
11490TIP3   OH255960   3.022   6.060   2.928  0.5742  0.3228 -0.0510
11490TIP3    H155961   3.114   6.035   2.922 -0.1919 -2.6321 -1.3882
11490TIP3    H255962   3.013   6.132   2.865  2.0547  1.0643  0.5368
11491TIP3   OH255963   5.656   3.067  10.804 -0.6108 -0.0240 -0.1254
11491TIP3    H155964   5.723   3.134  10.787 -0.1192 -0.2756  0.7808
11491TIP3    H255965   5.618   3.050  10.718  1.0912 -0.5169 -0.8240
11492TIP3   OH255966   1.637   4.418   3.024 -0.4711 -0.4534  0.0790
11492TIP3    H155967   1.665   4.372   2.944  0.8775 -1.6523  1.1842
11492TIP3    H255968   1.673   4.507   3.014 -1.3582 -0.2082 -1.1678
11493TIP3   OH255969   5.658   1.743   4.692  0.4974  0.3687  0.4188
11493TIP3    H155970   5.747   1.716   4.673 -0.2396 -0.0688 -2.9819
11493TIP3    H255971   5.635   1.803   4.622 -2.0380  0.0600  0.8819
11494TIP3   OH255972   3.477   1.886   1.630  0.2550 -0.9496 -0.2787
11494TIP3    H155973   3.415   1.833   1.680  1.4504 -1.5156  0.6536
11494TIP3    H255974   3.438   1.974   1.629 -0.5235 -1.2754  0.3571
11495TIP3   OH255975   3.812   5.295   1.730  0.3238  0.4183  0.6316
11495TIP3    H155976   3.871   5.240   1.781 -0.6251 -0.2451  1.0467
11495TIP3    H255977   3.869   5.344   1.671  1.4576  1.1733  2.2815
11496TIP3   OH255978   2.851   0.148   5.492  0.4992 -0.4196 -0.1997
11496TIP3    H155979   2.923   0.088   5.469  0.0128 -1.1627  0.1749
11496TIP3    H255980   2.809   0.107   5.567  1.3640  1.3820  1.3520
11497TIP3   OH255981   4.707   0.235  16.113  0.4417 -0.5182  0.3656
11497TIP3    H155982   4.725   0.329  16.105  0.6853 -0.5700  0.2807
11497TIP3    H255983   4.745   0.210  16.197 -0.3314 -0.3816  0.7646
11498TIP3   OH255984   0.258   3.679  11.798 -0.3443  0.4154 -0.4121
11498TIP3    H155985   0.262   3.599  11.849  1.2326  1.6451  1.5444
11498TIP3    H255986   0.187   3.730  11.838 -0.6465  0.4443 -0.9716
11499TIP3   OH255987   5.482   0.010   4.824  0.5497  0.3482  0.1191
11499TIP3    H155988   5.431  -0.052   4.876 -0.9224 -0.2581 -1.9156
11499TIP3    H255989   5.417   0.071   4.789  1.5290  0.9997 -0.6219
11500TIP3   OH255990   0.017   4.203  13.061 -0.4995 -0.0746  0.2272
11500TIP3    H155991  -0.052   4.251  13.014  0.2780  0.8089 -0.0420
11500TIP3    H255992   0.082   4.270  13.082  0.7438 -1.0479 -0.3818
11501TIP3   OH255993   0.190   2.497  12.854 -0.3686  0.2284 -0.1643
11501TIP3    H155994   0.113   2.445  12.833 -0.3637  0.1327  0.0539
11501TIP3    H255995   0.260   2.459  12.800 -0.2492 -0.3172  0.3621
11502TIP3   OH255996   4.228   2.898  13.064 -0.3237  0.0800  0.1905
11502TIP3    H155997   4.297   2.962  13.050  0.6950 -1.2079 -0.9820
11502TIP3    H255998   4.264   2.816  13.030 -2.2622 -0.7172 -0.0860
11503TIP3   OH255999   1.512   6.594  16.945 -0.1186 -0.7168 -0.3121
11503TIP3    H156000   1.557   6.655  16.886 -0.2378 -1.1267 -0.8270
11503TIP3    H256001   1.557   6.605  17.029  0.2697 -0.3751 -0.5600
11504TIP3   OH256002   1.131   0.792  16.869 -0.2440  0.4456  0.0710
11504TIP3    H156003   1.114   0.770  16.961  1.2630 -0.0568  0.2488
11504TIP3    H256004   1.182   0.872  16.871 -0.0548  0.3408 -0.3232
11505TIP3   OH256005   4.741   4.447  16.109  0.4810  0.4672 -0.0695
11505TIP3    H156006   4.645   4.445  16.102  0.3498 -0.5104  1.4686
11505TIP3    H256007   4.765   4.358  16.136  1.8691  0.6082 -0.7482
11506TIP3   OH256008   5.856   1.250  14.272  0.1813  0.6891 -0.0794
11506TIP3    H156009   5.914   1.252  14.195  1.6748 -1.2754  0.9097
11506TIP3    H256010   5.913   1.277  14.344 -0.8911  1.3323  0.5470
11507TIP3   OH256011   1.636   0.746  13.604  0.7498  0.1161  0.1289
11507TIP3    H156012   1.695   0.687  13.556 -2.4378 -1.9459 -1.6172
11507TIP3    H256013   1.623   0.820  13.545 -0.2077 -0.6011 -0.6002
11508TIP3   OH256014   3.377   0.246  14.012 -0.1551  0.4842 -0.2050
11508TIP3    H156015   3.349   0.290  14.092 -0.4471 -0.1087  0.0221
11508TIP3    H256016   3.472   0.244  14.017  0.0487  3.1249 -1.2923
11509TIP3   OH256017   0.856   0.737  13.307  0.4419 -0.5250 -0.4743
11509TIP3    H156018   0.803   0.794  13.363  2.0169 -0.9846  1.6293
11509TIP3    H256019   0.851   0.776  13.220 -1.1581  0.9158  0.2138
11510TIP3   OH256020   0.641   2.985  12.640 -0.0875  0.6016  0.1042
11510TIP3    H156021   0.604   3.024  12.720 -0.7367  0.1221  0.0423
11510TIP3    H256022   0.723   2.945  12.669  0.0247  1.0278  0.3919
11511TIP3   OH256023   1.734   4.836   4.875  0.3238  0.1249 -0.1364
11511TIP3    H156024   1.659   4.828   4.933  0.7556  0.6612  0.5178
11511TIP3    H256025   1.785   4.757   4.890  0.0559 -0.0852 -0.3355
11512TIP3   OH256026   6.651   4.838  11.291 -0.2717  0.3495 -0.3832
11512TIP3    H156027   6.601   4.801  11.217  0.2394 -1.6217  0.1824
11512TIP3    H256028   6.718   4.772  11.309 -0.2532  0.8772  1.7031
11513TIP3   OH256029   4.754   5.399   1.885  0.6001  0.0588 -0.3391
11513TIP3    H156030   4.783   5.484   1.854 -0.5935  0.3880 -0.6034
11513TIP3    H256031   4.752   5.344   1.806 -0.9059  0.4580 -0.6057
11514TIP3   OH256032   4.289   1.184   5.105 -0.5999  0.0102  0.5299
11514TIP3    H156033   4.266   1.195   5.197 -0.0691  1.8581  0.4874
11514TIP3    H256034   4.215   1.224   5.057 -0.6226 -0.4512  0.1739
11515TIP3   OH256035   4.777   0.462   5.099 -0.4862 -0.1642 -0.0524
11515TIP3    H156036   4.795   0.387   5.042 -0.8383  0.0247 -0.4188
11515TIP3    H256037   4.689   0.445   5.133 -0.8259  0.3896 -0.6335
11516TIP3   OH256038   2.634   5.535   0.709 -0.0031  0.1482  0.5486
11516TIP3    H156039   2.554   5.586   0.722  0.4940  0.7018  1.6436
11516TIP3    H256040   2.694   5.569   0.775  0.5248 -1.5143  0.9695
11517TIP3   OH256041   3.423   5.143   5.856  0.0618 -0.4045 -0.6051
11517TIP3    H156042   3.445   5.120   5.765  0.8449 -2.7995  0.1259
11517TIP3    H256043   3.503   5.123   5.905 -0.2594  1.1360  0.6016
11518TIP3   OH256044   1.992   4.057  14.850 -0.5191 -0.0916  0.1219
11518TIP3    H156045   2.041   4.086  14.927  1.7338  3.0313 -2.2087
11518TIP3    H256046   1.911   4.108  14.853 -0.8526 -0.6566  0.8699
11519TIP3   OH256047   0.475   0.468   1.076  0.3708 -0.2770 -0.6587
11519TIP3    H156048   0.483   0.388   1.025 -0.2531 -0.2377 -0.8194
11519TIP3    H256049   0.440   0.439   1.161  0.3760 -0.2038 -0.6312
11520TIP3   OH256050   2.542   0.082  14.647 -0.0211 -0.2289 -0.7884
11520TIP3    H156051   2.492   0.142  14.593 -0.1321  0.8432  0.4677
11520TIP3    H256052   2.478   0.045  14.708  0.0954 -1.4573 -1.3702
11521TIP3   OH256053   0.756   4.611   0.107 -0.0182  0.1626 -0.8920
11521TIP3    H156054   0.718   4.580   0.189  0.8713 -0.6966 -0.7878
11521TIP3    H256055   0.849   4.594   0.115 -0.0720 -1.3043 -2.6421
11522TIP3   OH256056   5.749   6.035   0.762 -0.3379 -0.4378 -0.8561
11522TIP3    H156057   5.760   6.044   0.856 -0.0921  0.0637 -0.9314
11522TIP3    H256058   5.705   6.116   0.735  0.2742 -0.2389 -1.2793
11523TIP3   OH256059   6.544   2.045   5.087 -0.0230  0.1390  0.0887
11523TIP3    H156060   6.636   2.016   5.086 -0.0061  0.1316  0.8551
11523TIP3    H256061   6.507   2.001   5.164 -1.2508 -1.6015 -1.4027
11524TIP3   OH256062   2.391   1.734   3.626  0.1187 -0.7963  0.0344
11524TIP3    H156063   2.366   1.751   3.536 -1.3493 -1.1633  0.3523
11524TIP3    H256064   2.403   1.639   3.631  0.1397 -0.7850  0.2355
11525TIP3   OH256065   0.110   4.225  12.501 -0.2232 -0.3337 -0.1870
11525TIP3    H156066   0.199   4.190  12.508 -0.1028 -0.1122 -0.5980
11525TIP3    H256067   0.057   4.149  12.477 -0.5171 -0.9468  2.1228
11526TIP3   OH256068   0.982   3.738  16.833 -0.1644 -0.0104  0.3896
11526TIP3    H156069   0.992   3.697  16.746 -0.9067  0.2217  0.1834
11526TIP3    H256070   1.037   3.685  16.890  0.3365 -0.1708 -0.2218
11527TIP3   OH256071   5.832   3.963   1.007  0.2428 -0.4597  0.3978
11527TIP3    H156072   5.821   3.965   0.912 -1.8594 -2.6986  0.4968
11527TIP3    H256073   5.915   3.917   1.019  0.6471  0.0464 -0.3349
11528TIP3   OH256074   0.075   1.793  11.881 -0.1536  0.1240  0.1506
11528TIP3    H156075   0.164   1.823  11.862  0.0940 -0.2578  0.6807
11528TIP3    H256076   0.062   1.718  11.824 -0.2272  0.3350 -0.1088
11529TIP3   OH256077   2.848   4.832  11.650  0.4664  0.3612 -0.5618
11529TIP3    H156078   2.852   4.925  11.670 -0.2959 -0.1223  2.1852
11529TIP3    H256079   2.759   4.818  11.617  0.6412  0.5986 -1.1557
11530TIP3   OH256080   6.165   4.867  16.965  0.5226 -0.2009  0.1347
11530TIP3    H156081   6.185   4.884  17.057 -0.0148  1.0802  0.0267
11530TIP3    H256082   6.247   4.887  16.918  0.9404 -1.2964  0.3554
11531TIP3   OH256083   4.552   0.471   5.281 -0.1631 -0.3117 -0.2873
11531TIP3    H156084   4.590   0.551   5.318  0.1283 -0.1952 -0.8294
11531TIP3    H256085   4.593   0.400   5.331 -1.9271 -0.1002  1.6195
11532TIP3   OH256086   2.619   4.294  11.946  0.0808 -0.1720  0.3711
11532TIP3    H156087   2.606   4.278  12.040  0.2338  0.1149  0.4402
11532TIP3    H256088   2.635   4.388  11.939  0.8967 -0.3202  0.1475
11533TIP3   OH256089   2.045   0.339   2.450  0.0125 -0.5684  0.8804
11533TIP3    H156090   2.063   0.430   2.425  0.1082 -1.0010 -0.7333
11533TIP3    H256091   2.052   0.290   2.368 -1.1191 -1.8801  1.5325
11534TIP3   OH256092   6.077   5.492   6.219  0.7189  0.5935 -0.1965
11534TIP3    H156093   6.161   5.511   6.259  1.6428 -1.3053 -1.0861
11534TIP3    H256094   6.048   5.411   6.260 -0.2831  0.7710 -0.5090
11535TIP3   OH256095   6.588   5.639  11.268  0.2620  0.0105 -0.5673
11535TIP3    H156096   6.571   5.724  11.226  2.0618  0.4221 -0.5541
11535TIP3    H256097   6.658   5.658  11.330 -0.4571 -1.1722  0.6408
11536TIP3   OH256098   3.754   6.643  14.373 -0.0688  0.7329 -0.5628
11536TIP3    H156099   3.821   6.582  14.344 -0.6511  0.4539 -1.3325
11536TIP3    H256100   3.773   6.724  14.326  1.4792  1.5990  1.4015
11537TIP3   OH256101   3.950   3.510  16.514  0.3423 -0.1596  0.3888
11537TIP3    H156102   3.863   3.470  16.515 -0.4606  1.4647 -0.6212
11537TIP3    H256103   3.938   3.596  16.554  1.4001  0.2440 -0.1210
11538TIP3   OH256104   2.021   2.201   4.862 -0.1977  0.3404  0.6005
11538TIP3    H156105   2.036   2.107   4.849 -2.3493 -0.1130  0.9213
11538TIP3    H256106   2.067   2.222   4.943 -0.4881 -0.6819  1.0523
11539TIP3   OH256107   6.686   4.119   2.530 -0.7117 -0.1720 -0.1083
11539TIP3    H156108   6.708   4.089   2.618 -1.2236  1.1665  0.5056
11539TIP3    H256109   6.723   4.052   2.472 -0.5506 -1.1861  1.1183
11540TIP3   OH256110   2.371   4.613   0.902  0.0521 -0.1786 -0.1578
11540TIP3    H156111   2.355   4.530   0.948  1.4812 -0.4615 -0.1142
11540TIP3    H256112   2.364   4.680   0.970  1.7679 -0.5617  0.4594
11541TIP3   OH256113   1.632   0.420   1.117 -0.2499  0.3650  0.1762
11541TIP3    H156114   1.660   0.339   1.074 -0.2178 -0.7435  2.1834
11541TIP3    H256115   1.552   0.397   1.163 -0.2429  1.4897  0.7889
11542TIP3   OH256116   3.420   1.374   1.266  0.1298 -0.2695 -0.6296
11542TIP3    H156117   3.514   1.373   1.245 -0.2675  0.5999 -2.7076
11542TIP3    H256118   3.411   1.443   1.332  0.7317  0.9722 -1.8012
11543TIP3   OH256119   1.858   5.013  12.085  0.4823  0.3755  0.2150
11543TIP3    H156120   1.939   4.999  12.036 -0.4966  0.6443 -1.5540
11543TIP3    H256121   1.828   4.924  12.106  0.3637  0.2097 -0.6279
11544TIP3   OH256122   5.623   2.008  10.919 -0.0513 -0.0144  0.2346
11544TIP3    H156123   5.547   2.065  10.929  0.9039  1.1508  1.0923
11544TIP3    H256124   5.693   2.066  10.890  1.0378 -0.6773  1.4288
11545TIP3   OH256125   0.794   5.412   5.186  0.3686  0.4193  0.0419
11545TIP3    H156126   0.780   5.499   5.225  2.0054  0.2460  1.1094
11545TIP3    H256127   0.875   5.421   5.136 -1.1594  0.3530 -2.6250
11546TIP3   OH256128   2.571   5.707  13.336 -0.4766 -0.1399 -0.5087
11546TIP3    H156129   2.577   5.613  13.348  0.8232 -0.2020 -1.4768
11546TIP3    H256130   2.583   5.743  13.424 -1.3072 -0.8744 -0.0877
11547TIP3   OH256131   2.602   5.827  10.724  0.0021  0.0292  0.1312
11547TIP3    H156132   2.685   5.815  10.679  2.4066  1.4837  3.6866
11547TIP3    H256133   2.611   5.911  10.769 -3.3315  0.1370  0.8778
11548TIP3   OH256134   5.286   3.323   1.850 -0.4694 -0.7498  0.0482
11548TIP3    H156135   5.292   3.235   1.813  0.6085 -0.7598  0.2116
11548TIP3    H256136   5.377   3.352   1.857 -0.7664  0.0353  0.8113
11549TIP3   OH256137   3.626   1.976  11.479  0.0388 -0.0963  0.3321
11549TIP3    H156138   3.532   1.964  11.467  0.2076  0.2568 -1.7635
11549TIP3    H256139   3.660   1.888  11.491 -0.6856 -0.1198  2.6913
11550TIP3   OH256140   6.135   4.042   4.387 -0.2129 -0.6268 -0.1352
11550TIP3    H156141   6.099   3.955   4.399 -1.4664 -0.5736 -2.9358
11550TIP3    H256142   6.191   4.036   4.310  1.2929  0.6315  0.7798
11551TIP3   OH256143   1.384   0.599   1.806 -1.0870 -0.0479  0.5223
11551TIP3    H156144   1.305   0.627   1.852 -1.7637  0.5544 -0.9167
11551TIP3    H256145   1.362   0.513   1.770 -1.2868  0.3254 -0.2780
11552TIP3   OH256146   1.821   0.014  13.944  0.9790 -0.5505  0.4638
11552TIP3    H156147   1.893  -0.018  13.999  0.5778 -2.8613 -0.2294
11552TIP3    H256148   1.746  -0.039  13.971  0.1625  0.0328 -0.6020
11553TIP3   OH256149   0.410   0.527  12.980  0.3261  0.0626 -0.6171
11553TIP3    H156150   0.460   0.609  12.982  0.2927  0.0788  0.3597
11553TIP3    H256151   0.319   0.554  12.975  0.3684  0.0590 -1.3855
11554TIP3   OH256152   5.096   1.326   4.603  0.0193  0.2142 -0.0958
11554TIP3    H156153   5.180   1.308   4.645  0.4069  1.4405 -0.3086
11554TIP3    H256154   5.119   1.378   4.526 -0.9235  0.3934 -0.2644
11555TIP3   OH256155   5.078   2.650  14.516  0.8111 -0.3130  0.0048
11555TIP3    H156156   5.010   2.680  14.577  1.3479 -0.4020  0.6568
11555TIP3    H256157   5.149   2.619  14.573  1.3247 -0.3846 -0.6688
11556TIP3   OH256158   1.740   4.296   4.934  0.0804  0.0425 -0.3680
11556TIP3    H156159   1.686   4.293   4.855  2.5153 -0.1139 -2.1673
11556TIP3    H256160   1.748   4.205   4.962 -0.8664  0.1084  0.1348
11557TIP3   OH256161   4.068   2.810  13.568 -0.2944  0.4846  0.5334
11557TIP3    H156162   4.087   2.835  13.478 -2.8123  0.4842 -0.0807
11557TIP3    H256163   4.048   2.716  13.563  1.5672 -0.0094  1.4980
11558TIP3   OH256164   1.729   3.124   2.879 -0.1624 -0.3823 -0.7245
11558TIP3    H156165   1.659   3.060   2.898 -1.6604  1.6035  0.8636
11558TIP3    H256166   1.696   3.173   2.804 -0.1115  0.0756 -0.4463
11559TIP3   OH256167   5.935   4.802  13.649  0.0284  0.1253  0.2500
11559TIP3    H156168   5.865   4.746  13.615  0.1929  0.0408  0.0499
11559TIP3    H256169   5.899   4.890  13.644  0.3148  0.1906 -0.8127
11560TIP3   OH256170   3.734   3.012  11.834 -0.8568  0.2759  0.0637
11560TIP3    H156171   3.658   2.968  11.797 -2.0130  2.1501  0.0591
11560TIP3    H256172   3.730   2.992  11.927 -1.9185  1.0926  0.2158
11561TIP3   OH256173   3.174   3.887   0.852 -0.0445  0.0262  0.1487
11561TIP3    H156174   3.189   3.813   0.911  0.1358 -0.6067 -0.6756
11561TIP3    H256175   3.130   3.953   0.907  0.6122 -0.3257  1.1254
11562TIP3   OH256176   3.547   0.877   2.720 -0.1252  0.0512  0.1363
11562TIP3    H156177   3.542   0.790   2.679 -0.8069 -0.4553  1.2289
11562TIP3    H256178   3.641   0.895   2.726  0.0285 -0.6292 -0.0589
11563TIP3   OH256179   2.433   2.805   3.148  0.4158  0.0478 -0.4164
11563TIP3    H156180   2.486   2.774   3.222 -1.2336 -2.2878 -0.1079
11563TIP3    H256181   2.358   2.848   3.189 -0.0312 -0.4184 -0.7351
11564TIP3   OH256182   0.899   2.808  14.561  0.0839 -0.5716  0.7780
11564TIP3    H156183   0.943   2.769  14.485  1.7451 -0.5556  1.6955
11564TIP3    H256184   0.815   2.763  14.565  0.3009 -1.1508 -0.5884
11565TIP3   OH256185   2.474   1.051  16.278 -0.4464  0.0970  0.0406
11565TIP3    H156186   2.477   0.966  16.235  0.6214  0.1619 -0.0340
11565TIP3    H256187   2.408   1.100  16.230  1.3033  0.4650 -2.1383
11566TIP3   OH256188   0.040   6.542  12.919  0.4236  0.1207 -0.1877
11566TIP3    H156189  -0.021   6.481  12.960  1.8762 -1.0809  0.2777
11566TIP3    H256190   0.090   6.578  12.992  0.9357  0.3405 -0.6458
11567TIP3   OH256191   1.248   3.671   2.840 -0.0777  0.4688  0.0191
11567TIP3    H156192   1.316   3.739   2.839 -0.8375  1.3425  1.9210
11567TIP3    H256193   1.204   3.683   2.924 -0.6094 -2.0554  0.1816
11568TIP3   OH256194   6.335   4.864  16.420  0.2776 -0.0063 -0.2500
11568TIP3    H156195   6.410   4.804  16.415 -0.4969 -1.0924  0.6727
11568TIP3    H256196   6.281   4.829  16.490  0.6516  2.8275  1.5951
11569TIP3   OH256197   5.685   6.100   3.459  0.3893  0.2749  0.1579
11569TIP3    H156198   5.603   6.079   3.503 -0.1041  0.2488 -0.7537
11569TIP3    H256199   5.694   6.195   3.469 -1.4302  0.8473 -2.4527
11570TIP3   OH256200   2.916   1.314  15.557 -0.5167 -0.0679  0.2985
11570TIP3    H156201   2.996   1.326  15.609 -0.5941 -0.2664  0.4647
11570TIP3    H256202   2.877   1.234  15.592 -1.2312  0.4983  0.8058
11571TIP3   OH256203   0.445   1.734  11.505 -0.4774 -0.0089  0.0116
11571TIP3    H156204   0.508   1.746  11.434  0.2430  0.5248  0.7199
11571TIP3    H256205   0.380   1.803  11.492 -0.6831 -0.2819 -0.4596
11572TIP3   OH256206   5.961   4.537   6.590 -0.0927  0.3562  0.1913
11572TIP3    H156207   5.957   4.578   6.676 -1.4470 -0.3319  0.4812
11572TIP3    H256208   5.873   4.501   6.576  0.5855 -1.0203 -0.7444
11573TIP3   OH256209   2.061   6.212  15.662  0.2391  0.0457 -0.3478
11573TIP3    H156210   1.976   6.169  15.670 -0.3525  0.9496 -1.5703
11573TIP3    H256211   2.048   6.298  15.703  0.5463  0.2138 -0.6003
11574TIP3   OH256212   1.197   6.479   4.025  0.6421  0.2451 -0.0802
11574TIP3    H156213   1.118   6.424   4.025 -0.3542  1.6064 -0.4868
11574TIP3    H256214   1.269   6.417   4.019 -0.4209 -1.0243 -0.3870
11575TIP3   OH256215   1.152   3.788  13.960 -0.1730  0.1320  0.1894
11575TIP3    H156216   1.227   3.760  13.907  0.5599  0.3512  1.0853
11575TIP3    H256217   1.124   3.870  13.920 -0.8078 -0.6121 -0.9710
11576TIP3   OH256218   1.478   4.640  13.451  0.3838 -0.1097  0.3326
11576TIP3    H156219   1.568   4.609  13.453  0.1820 -0.7365 -0.0826
11576TIP3    H256220   1.432   4.576  13.398 -0.0748  0.8340 -0.4256
11577TIP3   OH256221   4.690   3.433   5.167  0.1129  0.3083  0.0676
11577TIP3    H156222   4.695   3.408   5.075 -1.2002  0.7611 -0.1531
11577TIP3    H256223   4.597   3.450   5.182 -0.2463 -2.6102  2.2436
11578TIP3   OH256224   1.626   4.459  16.178 -0.2178  0.0237 -0.0496
11578TIP3    H156225   1.620   4.414  16.262  1.1858 -0.1043  0.0175
11578TIP3    H256226   1.667   4.543  16.199 -0.1968  0.1449 -0.5510
11579TIP3   OH256227   1.565   6.055   2.040 -0.2963  0.3908 -0.1276
11579TIP3    H156228   1.644   6.096   2.004 -0.1386  0.9847  0.8632
11579TIP3    H256229   1.597   5.999   2.110 -0.7736  0.8044  0.4248
11580TIP3   OH256230   4.645   2.143  12.827 -0.7988  0.7627 -0.5892
11580TIP3    H156231   4.595   2.224  12.825 -1.3882  0.4981  1.0525
11580TIP3    H256232   4.614   2.098  12.906  0.4241 -0.4695 -0.7602
11581TIP3   OH256233   5.340   0.191   3.736  0.1633  0.1119  0.0100
11581TIP3    H156234   5.390   0.250   3.793  0.1851 -0.7923  0.9800
11581TIP3    H256235   5.341   0.107   3.783 -0.0734 -0.5965 -1.2051
11582TIP3   OH256236   0.787   3.696   5.486 -0.4709  0.1562  0.2717
11582TIP3    H156237   0.733   3.773   5.507  0.4551  0.5504  1.2916
11582TIP3    H256238   0.727   3.622   5.496 -0.6781  0.5203  2.1676
11583TIP3   OH256239   6.662   2.810   6.231 -0.1320 -0.1452 -0.1338
11583TIP3    H156240   6.583   2.756   6.223 -0.5151  0.2915  0.5623
11583TIP3    H256241   6.650   2.857   6.314  0.4114  0.6478 -0.4950
11584TIP3   OH256242   1.968   5.455   6.106  0.0335  0.1365  0.5185
11584TIP3    H156243   2.056   5.466   6.069 -0.8179 -1.4808 -2.2640
11584TIP3    H256244   1.973   5.373   6.155 -0.5043 -1.5552 -2.0440
11585TIP3   OH256245   6.299   2.329  16.368  0.3345  0.0881 -0.3203
11585TIP3    H156246   6.249   2.311  16.289 -0.3258  0.7518 -0.0684
11585TIP3    H256247   6.345   2.248  16.386  1.0312  0.1312 -1.7549
11586TIP3   OH256248   1.310   2.410  11.358 -0.2096  0.3962 -0.5480
11586TIP3    H156249   1.385   2.357  11.383 -1.7451 -1.6580  0.0348
11586TIP3    H256250   1.297   2.391  11.265 -0.8442 -0.4274 -0.3066
11587TIP3   OH256251   1.828   0.783   4.494  0.5970  0.3692 -0.2058
11587TIP3    H156252   1.776   0.845   4.442 -3.0555  0.0563  2.6611
11587TIP3    H256253   1.803   0.697   4.460 -2.1353  0.1365  1.9779
11588TIP3   OH256254   4.386   3.378  11.455 -0.3685  0.6672 -0.5098
11588TIP3    H156255   4.395   3.368  11.360  1.1343  0.4160 -0.3669
11588TIP3    H256256   4.462   3.332  11.491 -2.1475 -1.3135  0.9606
11589TIP3   OH256257   3.747   4.126  13.335  0.3839  0.2417 -0.4043
11589TIP3    H156258   3.794   4.042  13.341  0.1938  0.1348 -0.4001
11589TIP3    H256259   3.695   4.118  13.256 -1.3581 -0.5463  0.7419
11590TIP3   OH256260   0.345   1.696   5.448  0.2447  0.4657 -0.4407
11590TIP3    H156261   0.314   1.772   5.399  0.9283  1.0185 -0.0194
11590TIP3    H256262   0.271   1.673   5.505 -0.2036  0.4040 -1.0385
11591TIP3   OH256263   0.799   0.434  17.016 -0.0519 -0.0556 -0.0194
11591TIP3    H156264   0.880   0.460  16.973  1.1966  0.8688  2.6750
11591TIP3    H256265   0.762   0.516  17.049 -1.9568 -0.5020 -0.8637
11592TIP3   OH256266   0.605   4.423  13.142  0.8594 -0.1972 -0.2950
11592TIP3    H156267   0.620   4.385  13.229  0.7476 -1.9238 -0.9891
11592TIP3    H256268   0.527   4.378  13.110  1.0944  0.1840 -1.4253
11593TIP3   OH256269   4.155   0.585   4.212 -0.3213 -0.0357  0.2400
11593TIP3    H156270   4.186   0.553   4.127  0.6024  1.4001  0.0151
11593TIP3    H256271   4.156   0.680   4.204 -0.6039  0.1158  1.7362
11594TIP3   OH256272   6.366   1.070  10.434 -0.6397 -0.4861  0.5354
11594TIP3    H156273   6.387   1.025  10.515  1.3975 -1.0220 -0.2486
11594TIP3    H256274   6.376   1.004  10.365 -0.6087  0.3791 -0.3212
11595TIP3   OH256275   3.462   5.965  12.132 -0.7272  0.4389 -0.3835
11595TIP3    H156276   3.457   6.031  12.063 -0.9351  0.4705 -0.3403
11595TIP3    H256277   3.382   5.978  12.184  0.4368  1.8127  1.1480
11596TIP3   OH256278   1.590   0.201   5.385  0.3883 -0.8486 -0.7891
11596TIP3    H156279   1.616   0.128   5.441 -2.5781 -3.4046 -2.4174
11596TIP3    H256280   1.669   0.223   5.335  1.5619 -2.3909  0.3114
11597TIP3   OH256281   2.317   2.878   4.524  0.0849 -0.5484  0.2426
11597TIP3    H156282   2.267   2.797   4.524 -0.0127 -0.4894  0.4424
11597TIP3    H256283   2.323   2.902   4.617 -0.7887  0.2309  0.1063
11598TIP3   OH256284   0.475   6.208   2.041  0.1982 -0.2500  0.1072
11598TIP3    H156285   0.496   6.119   2.068 -2.0297 -1.4784 -1.7849
11598TIP3    H256286   0.469   6.257   2.122  0.0041 -2.2017  1.3461
11599TIP3   OH256287   0.971   6.636   4.994 -0.2942 -0.4354 -0.6483
11599TIP3    H156288   0.988   6.554   4.947 -0.2364 -0.8132  0.0242
11599TIP3    H256289   1.053   6.656   5.039 -0.4143 -0.1843 -0.5376
11600TIP3   OH256290   6.154   0.345   0.421  0.8161 -0.1379  0.4025
11600TIP3    H156291   6.210   0.283   0.373 -0.4696 -1.4957  0.5987
11600TIP3    H256292   6.181   0.336   0.512 -0.7198 -1.9659  0.7281
11601TIP3   OH256293   3.267   2.201  11.847  0.9537 -0.7630 -0.4698
11601TIP3    H156294   3.236   2.280  11.804  0.3640 -0.3973  0.5903
11601TIP3    H256295   3.246   2.130  11.786  0.5573 -0.2163 -0.9740
11602TIP3   OH256296   3.594   6.615   4.237 -0.3242  0.2866  0.1960
11602TIP3    H156297   3.601   6.620   4.333 -1.2655 -0.1372  0.3043
11602TIP3    H256298   3.600   6.706   4.208  0.0314  0.4140  0.6560
11603TIP3   OH256299   1.226   0.814  14.338 -0.4402  0.7480 -0.9509
11603TIP3    H156300   1.185   0.728  14.336  1.8458 -0.5009  0.9196
11603TIP3    H256301   1.261   0.825  14.249  0.8572 -1.1796 -0.7561
11604TIP3   OH256302   1.453   6.205  15.653 -0.5672  0.2892 -0.4258
11604TIP3    H156303   1.535   6.169  15.618 -1.3060  0.3521 -2.3345
11604TIP3    H256304   1.473   6.296  15.674 -0.3238  0.5325 -1.6306
11605TIP3   OH256305   5.556   1.486  15.640  0.2349 -0.4991 -0.3982
11605TIP3    H156306   5.637   1.535  15.655 -0.6769  1.0294 -0.2632
11605TIP3    H256307   5.511   1.535  15.571 -2.1800  0.7622  1.8967
11606TIP3   OH256308   6.818   4.004  14.697 -0.0861 -0.1008 -0.4935
11606TIP3    H156309   6.871   4.012  14.776 -0.1101 -0.0210 -0.4863
11606TIP3    H256310   6.745   3.947  14.723  0.9858 -1.7739 -1.0047
11607TIP3   OH256311   5.790   1.567  14.994  0.1115  0.1929  0.2225
11607TIP3    H156312   5.697   1.549  14.979  0.3095 -2.8668  1.8078
11607TIP3    H256313   5.835   1.524  14.921  0.3353  1.9290 -0.7095
11608TIP3   OH256314   1.844   5.980  15.257 -0.1010 -0.1744 -0.4622
11608TIP3    H156315   1.899   5.983  15.178  0.9268  0.8020  0.2671
11608TIP3    H256316   1.864   6.061  15.304 -0.0856 -1.1151  1.2155
11609TIP3   OH256317   2.634   3.986   3.904  0.3127  0.4465  0.3303
11609TIP3    H156318   2.590   3.955   3.825  2.5118 -0.3729 -0.6614
11609TIP3    H256319   2.679   3.909   3.938 -0.4282  0.8380  2.3022
11610TIP3   OH256320   0.885   3.630  11.438  0.3782 -0.1102  0.1132
11610TIP3    H156321   0.932   3.548  11.423  1.8396  0.8125 -0.5418
11610TIP3    H256322   0.874   3.668  11.351  0.4947  0.8086  0.4863
11611TIP3   OH256323   4.546   1.391  11.676  0.1919 -0.0534  0.2094
11611TIP3    H156324   4.532   1.331  11.749  0.7557 -0.2322  0.1694
11611TIP3    H256325   4.492   1.467  11.698  0.1300 -0.2257  0.6683
11612TIP3   OH256326   6.516   4.574   3.563  0.1520 -0.3853  0.1133
11612TIP3    H156327   6.556   4.516   3.498  0.4912 -0.3695  0.3082
11612TIP3    H256328   6.502   4.656   3.516 -0.8990 -0.8101 -0.3443
11613TIP3   OH256329   3.545   0.791   3.713  0.2476 -0.0542  0.0622
11613TIP3    H156330   3.509   0.876   3.690  1.1395  0.5336  0.7959
11613TIP3    H256331   3.558   0.794   3.808  3.3741  0.2593 -0.2786
11614TIP3   OH256332   4.246   6.712   2.871 -0.2948  0.4429 -0.4104
11614TIP3    H156333   4.311   6.654   2.911 -0.9543  0.6080  0.9559
11614TIP3    H256334   4.175   6.654   2.843  0.0862  0.3489 -1.2287
11615TIP3   OH256335   1.312   1.068  14.374 -0.0669  0.3856  0.4942
11615TIP3    H156336   1.228   1.100  14.408 -0.5814  1.2148 -1.4297
11615TIP3    H256337   1.294   0.978  14.348 -0.7515  0.9154 -1.0119
11616TIP3   OH256338   0.761   3.816   5.196 -0.0859 -0.5318 -0.0958
11616TIP3    H156339   0.775   3.773   5.280 -0.2475 -0.9997 -0.3055
11616TIP3    H256340   0.689   3.876   5.211  0.5015  0.0774  0.3432
11617TIP3   OH256341   4.024   1.464  10.646 -0.1093  0.1683 -0.9597
11617TIP3    H156342   3.967   1.393  10.674  1.0876 -0.4953 -0.1173
11617TIP3    H256343   4.059   1.436  10.561  0.1291 -0.1195 -0.7678
11618TIP3   OH256344   1.932   0.109   2.676  0.7147 -0.4023 -0.0996
11618TIP3    H156345   2.000   0.135   2.613  0.2369  0.8693 -0.1105
11618TIP3    H256346   1.951   0.161   2.754 -0.8044  0.7427 -0.4349
11619TIP3   OH256347   2.257   3.517  15.113  0.7591 -0.1834  0.1170
11619TIP3    H156348   2.251   3.443  15.174  2.7882 -0.3627  0.1632
11619TIP3    H256349   2.167   3.531  15.084 -0.3773  0.0666  3.3237
11620TIP3   OH256350   6.183   2.138   4.114 -0.2310 -0.0569  0.8327
11620TIP3    H156351   6.258   2.084   4.138 -0.6084 -0.1497  1.8542
11620TIP3    H256352   6.108   2.095   4.155 -0.4956  1.4019  1.9681
11621TIP3   OH256353   4.184   0.562  16.571 -0.3412 -0.1383 -0.4514
11621TIP3    H156354   4.259   0.544  16.629 -0.9294  0.0762  0.3991
11621TIP3    H256355   4.109   0.526  16.618 -0.9462  0.7829 -0.6871
11622TIP3   OH256356   6.655   1.956  16.859 -0.0232  0.0088 -0.4723
11622TIP3    H156357   6.703   1.942  16.940  0.9994  0.0227 -1.0646
11622TIP3    H256358   6.720   1.991  16.798 -0.6801 -0.3808 -1.4183
11623TIP3   OH256359   1.002   1.093  17.024 -0.2912  0.0349  0.3610
11623TIP3    H156360   1.062   1.166  17.006  1.2141 -1.3593 -0.6386
11623TIP3    H256361   1.053   1.035  17.080 -0.3730 -1.5444 -1.1165
11624TIP3   OH256362   5.093   6.662  12.039  0.3195  0.2147  0.4150
11624TIP3    H156363   5.048   6.743  12.017 -0.5392 -0.1444  0.8013
11624TIP3    H256364   5.091   6.659  12.134  0.1692 -0.3524  0.3957
11625TIP3   OH256365   5.104   3.894   2.580  0.3473 -1.0147 -0.1612
11625TIP3    H156366   5.167   3.901   2.652  1.9920  0.3513 -1.6305
11625TIP3    H256367   5.048   3.821   2.604  0.3026 -0.1152  2.8713
11626TIP3   OH256368   2.695   6.630  14.020 -0.5194 -0.6475 -0.0927
11626TIP3    H156369   2.647   6.603  13.941 -1.2168  0.0846  0.0725
11626TIP3    H256370   2.712   6.723  14.007  3.0828 -1.2905 -1.3091
11627TIP3   OH256371   5.636   4.832   1.343 -0.0132  0.3969  0.4639
11627TIP3    H156372   5.624   4.926   1.354 -1.1796  0.6310 -2.1199
11627TIP3    H256373   5.551   4.794   1.363  0.2525 -0.0406  0.7827
11628TIP3   OH256374   1.823   0.508  13.828 -0.4476  0.4582 -0.2158
11628TIP3    H156375   1.818   0.530  13.735 -0.3732 -1.8722 -0.8303
11628TIP3    H256376   1.748   0.554  13.867 -0.6231  1.2821 -1.4538
11629TIP3   OH256377   1.582   6.036   1.642  0.1919 -0.0759 -0.0388
11629TIP3    H156378   1.556   6.106   1.702  0.3474  1.1982 -1.3722
11629TIP3    H256379   1.563   6.072   1.555  1.9956 -0.9538 -0.8521
11630TIP3   OH256380   6.670   5.733   4.638  1.0092  0.2524 -0.5047
11630TIP3    H156381   6.670   5.668   4.709  1.1387 -0.9284 -1.5316
11630TIP3    H256382   6.644   5.815   4.679 -2.1038 -1.0361  0.3329
11631TIP3   OH256383   0.555   0.406   3.823  0.5283  0.6859  0.1531
11631TIP3    H156384   0.561   0.494   3.786  2.5031  0.8547  0.7347
11631TIP3    H256385   0.615   0.353   3.770  0.1671 -0.0595  0.4703
11632TIP3   OH256386   2.517   5.569   2.927 -0.0001 -0.4558 -0.5605
11632TIP3    H156387   2.599   5.590   2.971 -0.1421 -0.6950 -0.1851
11632TIP3    H256388   2.497   5.479   2.953 -1.5970  0.3529  1.2569
11633TIP3   OH256389   6.372   3.230  13.330  0.0318 -0.4969 -0.0038
11633TIP3    H156390   6.359   3.152  13.384  0.6871  0.7161  2.0293
11633TIP3    H256391   6.305   3.291  13.360  0.4868  0.2538 -0.4781
11634TIP3   OH256392   5.278   1.053  11.906  0.6359 -0.2461 -0.8459
11634TIP3    H156393   5.269   1.092  11.819  0.3739 -0.2641 -0.8269
11634TIP3    H256394   5.289   0.960  11.890 -0.8279 -0.4443 -0.8054
11635TIP3   OH256395   3.512   6.610   2.854 -0.2915  0.1628  0.3167
11635TIP3    H156396   3.439   6.661   2.889  0.2185  0.2925  1.2178
11635TIP3    H256397   3.474   6.560   2.782 -0.9322  1.3580 -0.1899
11636TIP3   OH256398   5.297   3.013   3.501 -0.2359 -0.1596 -0.0677
11636TIP3    H156399   5.251   2.932   3.520  0.4691 -0.7481 -0.8006
11636TIP3    H256400   5.330   3.043   3.585 -1.9622  0.2952  0.4761
11637TIP3   OH256401   3.778   4.835   3.362  0.7329  0.0023 -0.1164
11637TIP3    H156402   3.740   4.762   3.411  1.2705 -0.6869 -0.6975
11637TIP3    H256403   3.863   4.851   3.404  1.0251 -0.3342 -0.5637
11638TIP3   OH256404   1.912   6.433   5.183  0.4917  0.0362  0.2451
11638TIP3    H156405   1.932   6.340   5.185 -0.0420 -0.1867 -2.2218
11638TIP3    H256406   1.907   6.458   5.276  1.7783 -2.0983  0.9688
11639TIP3   OH256407   1.702   4.667  16.369 -0.3886  0.3017 -0.7138
11639TIP3    H156408   1.745   4.751  16.381 -0.0024  0.1155 -0.7603
11639TIP3    H256409   1.705   4.626  16.455 -0.3454  0.2330 -0.7472
11640TIP3   OH256410   4.879   4.665  12.410  0.0850 -0.5860  0.4875
11640TIP3    H156411   4.811   4.602  12.385  1.0368 -0.9869 -1.2297
11640TIP3    H256412   4.852   4.695  12.497 -1.3473 -2.0252  0.6006
11641TIP3   OH256413   3.404   0.658   6.404  0.2641  0.6538  0.0830
11641TIP3    H156414   3.425   0.660   6.311  4.3273 -0.3504  0.7780
11641TIP3    H256415   3.422   0.568   6.432 -2.2789  0.5289  1.6481
11642TIP3   OH256416   3.184   2.750   2.151  0.8165 -0.4363 -0.4060
11642TIP3    H156417   3.096   2.789   2.158 -0.0846 -2.5561  0.8488
11642TIP3    H256418   3.193   2.729   2.058  0.6278  1.0969 -0.8067
11643TIP3   OH256419   4.671   6.324  16.440  0.0555 -0.1300 -0.5812
11643TIP3    H156420   4.616   6.248  16.459  0.3635 -0.2450 -0.1182
11643TIP3    H256421   4.660   6.382  16.516  1.7860 -0.8807  0.3298
11644TIP3   OH256422   5.419   6.624   2.895 -0.2892  0.4318 -0.6589
11644TIP3    H156423   5.415   6.627   2.990 -1.8215  0.7268 -0.6999
11644TIP3    H256424   5.362   6.551   2.871  1.1704 -0.5271 -1.3212
11645TIP3   OH256425   5.529   2.813  14.736 -0.4018  0.3650 -0.5061
11645TIP3    H156426   5.538   2.717  14.738 -3.7674 -0.0607  1.0811
11645TIP3    H256427   5.435   2.828  14.721 -0.3242  3.3842  1.2355
11646TIP3   OH256428   5.362   5.408   4.580  0.3886 -0.0316  0.1745
11646TIP3    H156429   5.421   5.461   4.527 -0.5240  0.4512 -0.3751
11646TIP3    H256430   5.420   5.357   4.637  1.3818 -0.4147 -1.1410
11647TIP3   OH256431   5.937   6.547   2.744 -0.0675  0.0657 -0.0933
11647TIP3    H156432   5.888   6.476   2.784 -0.3330  1.3391  1.9949
11647TIP3    H256433   5.871   6.597   2.696 -0.0533 -0.5218 -0.7361
11648TIP3   OH256434   2.296   3.666  13.768 -0.2363 -0.4146 -0.6391
11648TIP3    H156435   2.309   3.645  13.675  0.4399 -2.3417 -0.1558
11648TIP3    H256436   2.380   3.644  13.809 -0.7388 -0.2126  0.5308
11649TIP3   OH256437   0.381   4.224   1.296 -0.5960  0.3064  0.2557
11649TIP3    H156438   0.312   4.287   1.316 -0.3117  0.9503 -0.7117
11649TIP3    H256439   0.367   4.201   1.204 -0.0573 -0.2486  0.3000
11650TIP3   OH256440   5.477   2.062  12.075 -0.2132 -0.0873  0.5518
11650TIP3    H156441   5.488   2.139  12.020  0.8118  1.1273  2.3447
11650TIP3    H256442   5.567   2.035  12.097 -0.5289 -1.9849 -0.2282
11651TIP3   OH256443   1.406   4.774  13.683 -0.3089  0.6098 -0.3122
11651TIP3    H156444   1.444   4.862  13.687 -1.3030  1.0420 -0.1964
11651TIP3    H256445   1.449   4.733  13.607  0.9262  0.8112  0.2482
11652TIP3   OH256446   3.233   4.308   1.170  0.2134  0.2944 -0.5840
11652TIP3    H156447   3.327   4.292   1.183  0.2488 -0.3590 -1.5333
11652TIP3    H256448   3.228   4.393   1.128  0.4620 -0.1212 -1.4818
11653TIP3   OH256449   0.417   1.470   4.867 -0.0488 -0.1246  0.4742
11653TIP3    H156450   0.430   1.548   4.814  0.3087 -0.5908 -0.1275
11653TIP3    H256451   0.505   1.446   4.897 -0.1649 -0.2542  0.7140
11654TIP3   OH256452   2.835   1.073   2.252 -0.2200  0.1280  0.4917
11654TIP3    H156453   2.783   0.997   2.225 -0.2166  0.0371  0.7349
11654TIP3    H256454   2.860   1.115   2.171 -0.9476  0.3587  0.3824
11655TIP3   OH256455   1.005   3.962   0.727  0.6235  0.0196  0.3974
11655TIP3    H156456   0.981   4.043   0.682 -0.6810 -0.7045 -0.2743
11655TIP3    H256457   0.922   3.915   0.737  0.8936 -0.0314  3.2805
11656TIP3   OH256458   1.797   4.048   5.377 -0.0327  0.5487  0.4522
11656TIP3    H156459   1.810   4.117   5.442  2.7870  0.2723  0.3193
11656TIP3    H256460   1.837   4.084   5.297 -1.0176 -0.1734 -0.3836
11657TIP3   OH256461   3.485   3.919   2.420 -0.9479 -0.0528 -0.3316
11657TIP3    H156462   3.539   3.969   2.359  0.2518 -0.1450  0.5982
11657TIP3    H256463   3.399   3.961   2.417 -1.0227 -0.2766 -2.3115
11658TIP3   OH256464   5.386   1.678  11.604  0.0715  0.1519 -0.1599
11658TIP3    H156465   5.396   1.720  11.518 -0.0559  0.6034  0.0438
11658TIP3    H256466   5.440   1.731  11.663  0.3047 -0.2661  0.0064
11659TIP3   OH256467   2.733   1.667  15.004  0.3574  0.2304  0.1634
11659TIP3    H156468   2.663   1.603  14.992 -0.2383  1.1822 -1.7933
11659TIP3    H256469   2.687   1.751  15.010  1.2894  0.8199 -0.6514
11660TIP3   OH256470   0.959   0.761  14.522 -0.1920  0.0355  0.1085
11660TIP3    H156471   0.916   0.736  14.604 -1.0632 -1.8325 -0.8410
11660TIP3    H256472   1.022   0.690  14.506  2.4587  2.0617  0.8095
11661TIP3   OH256473   0.947   5.213   4.286  0.1529  0.1205  0.7332
11661TIP3    H156474   0.900   5.244   4.209  0.2602  0.2031  0.7016
11661TIP3    H256475   0.961   5.120   4.270  0.5106  0.2149  0.4814
11662TIP3   OH256476   0.587   5.103   3.893 -0.2313  0.5023 -0.2919
11662TIP3    H156477   0.512   5.064   3.939  0.1936  0.5013  0.4053
11662TIP3    H256478   0.560   5.193   3.876  0.6024  1.3357  2.3516
11663TIP3   OH256479   0.026   6.014   2.260 -0.0096  0.9848  0.4075
11663TIP3    H156480   0.041   5.983   2.349 -0.2170  0.6420  0.3278
11663TIP3    H256481   0.065   6.101   2.257 -0.5851  1.2792  1.0359
11664TIP3   OH256482   2.187   3.596  16.293  0.4089  0.2949 -0.1218
11664TIP3    H156483   2.096   3.577  16.318  0.6130  1.3011  1.5369
11664TIP3    H256484   2.232   3.609  16.376  2.0302  0.0919 -0.9367
11665TIP3   OH256485   1.095   0.451  12.796  0.0409  0.0760  0.1278
11665TIP3    H156486   1.168   0.458  12.858 -0.6066  1.0381  0.8028
11665TIP3    H256487   1.111   0.520  12.732 -1.2857  1.6490  1.3968
11666TIP3   OH256488   3.536   1.332  12.217  0.0781  0.3159 -0.8981
11666TIP3    H156489   3.454   1.361  12.177  0.0933 -0.4097 -1.4796
11666TIP3    H256490   3.594   1.315  12.142  1.3224  2.3741 -0.4732
11667TIP3   OH256491   5.688   3.298   0.854 -0.0421  0.5408  0.1858
11667TIP3    H156492   5.781   3.290   0.835  0.2709  2.0337  0.8948
11667TIP3    H256493   5.677   3.255   0.939  0.3711  1.7955  0.9164
11668TIP3   OH256494   6.165   4.257  11.498 -0.3859  0.2626  0.3196
11668TIP3    H156495   6.257   4.244  11.475 -0.2122  2.4414 -0.4639
11668TIP3    H256496   6.156   4.351  11.509 -2.7942  0.2351 -0.8046
11669TIP3   OH256497   2.078   0.357   1.688 -0.2276 -0.0121  0.1663
11669TIP3    H156498   2.004   0.389   1.740  0.6284 -0.1377  1.4838
11669TIP3    H256499   2.117   0.437   1.651 -1.7429 -0.0204 -1.6096
11670TIP3   OH256500   4.250   3.454  11.784 -0.2419 -0.1809  0.3659
11670TIP3    H156501   4.165   3.431  11.823 -1.3646  2.1487 -0.5576
11670TIP3    H256502   4.308   3.465  11.860 -0.9148 -1.1172  1.0499
11671TIP3   OH256503   1.830   6.082   1.888  0.2664 -0.4013  0.2276
11671TIP3    H156504   1.808   6.113   1.800  1.5937 -0.3779 -0.1121
11671TIP3    H256505   1.918   6.047   1.880  0.3037 -0.6400  1.5003
11672TIP3   OH256506   2.517   5.088  15.005 -0.0738 -0.2347 -0.5307
11672TIP3    H156507   2.428   5.110  14.976 -0.3725  3.2575  2.2757
11672TIP3    H256508   2.571   5.160  14.974  0.7000  0.4089  2.0891
11673TIP3   OH256509   6.644   2.241  11.667  0.1072 -0.3848 -0.2040
11673TIP3    H156510   6.646   2.273  11.758  1.3519 -0.1053 -0.3103
11673TIP3    H256511   6.649   2.320  11.614 -0.8471 -0.5357 -0.5397
11674TIP3   OH256512   1.387   4.780  15.756 -0.6145  0.6517 -0.5115
11674TIP3    H156513   1.447   4.841  15.712  0.7676 -1.4338 -1.6708
11674TIP3    H256514   1.432   4.757  15.837 -0.5843  0.2544 -0.6435
11675TIP3   OH256515   2.156   1.213   2.346 -0.1654 -0.1768  0.4481
11675TIP3    H156516   2.235   1.251   2.384 -1.1852  2.6651 -0.0254
11675TIP3    H256517   2.160   1.236   2.253 -1.6264  0.2681  0.4622
11676TIP3   OH256518   5.286   4.755  11.805  0.4141 -0.0698  0.0884
11676TIP3    H156519   5.253   4.845  11.811  0.5734  0.1217 -1.4575
11676TIP3    H256520   5.309   4.732  11.895 -1.8007  0.5850  0.8718
11677TIP3   OH256521   3.725   5.291   4.534 -0.1597  0.6765 -0.1484
11677TIP3    H156522   3.665   5.253   4.598 -0.0335  0.3269 -0.2346
11677TIP3    H256523   3.770   5.361   4.582 -0.6425  0.9509 -0.0872
11678TIP3   OH256524   2.702   0.747  15.553 -0.7411  0.2562 -1.1502
11678TIP3    H156525   2.735   0.726  15.640  1.1645 -2.5653 -2.4193
11678TIP3    H256526   2.737   0.834  15.535 -2.1100  1.4250  1.2254
11679TIP3   OH256527   2.437   5.485  14.669 -0.5565 -0.0582 -0.5484
11679TIP3    H156528   2.381   5.512  14.596  0.1803  1.4550 -0.5980
11679TIP3    H256529   2.400   5.529  14.745 -0.7052 -0.8020 -0.1811
11680TIP3   OH256530   0.545   5.259   5.278  0.5330 -0.1933 -0.7790
11680TIP3    H156531   0.624   5.298   5.241  1.3147 -0.7957  0.2179
11680TIP3    H256532   0.555   5.267   5.372 -1.1099  0.6787 -0.6284
11681TIP3   OH256533   4.349   5.567   2.117 -0.5208  0.2818  0.1530
11681TIP3    H156534   4.435   5.610   2.110 -0.5922  0.4024  0.0257
11681TIP3    H256535   4.300   5.600   2.042 -0.4087 -0.4103 -0.2320
11682TIP3   OH256536   2.889   3.003   0.058  0.5634 -0.0679 -0.4424
11682TIP3    H156537   2.899   2.931  -0.004 -0.3981 -1.4935  1.0028
11682TIP3    H256538   2.795   3.013   0.069  0.7039  0.8791  0.0152
11683TIP3   OH256539   4.320   2.387   3.329 -0.6595  0.9983  0.1969
11683TIP3    H156540   4.381   2.365   3.399 -1.4523 -0.5420  0.4450
11683TIP3    H256541   4.376   2.403   3.253  0.0768 -0.4163  0.4076
11684TIP3   OH256542   2.827   0.131  16.420 -0.1814 -0.2351  0.9616
11684TIP3    H156543   2.870   0.047  16.409 -1.3092 -0.6494 -0.7534
11684TIP3    H256544   2.879   0.192  16.367 -0.7018 -0.3872  0.2520
11685TIP3   OH256545   5.709   6.685   3.072  0.4008 -0.2904  0.1573
11685TIP3    H156546   5.640   6.654   3.130 -0.9067 -0.1732 -1.2686
11685TIP3    H256547   5.725   6.612   3.012  0.0076  0.4094 -0.8329
11686TIP3   OH256548   6.343   2.987  16.999  0.3669  0.2022  0.3293
11686TIP3    H156549   6.334   2.898  17.035  1.9041  0.1608  0.7080
11686TIP3    H256550   6.416   2.980  16.937 -1.8411  0.4130 -2.4881
11687TIP3   OH256551   3.542   4.871   5.988  0.0795 -1.1132  0.5182
11687TIP3    H156552   3.593   4.947   5.962 -0.5672 -0.4409  1.1416
11687TIP3    H256553   3.604   4.813   6.032  0.4644 -0.6683  0.5623
11688TIP3   OH256554   5.979   3.075   3.346 -0.0582 -0.4506 -0.1327
11688TIP3    H156555   5.902   3.126   3.321 -0.3208  0.5931  2.4857
11688TIP3    H256556   5.958   2.986   3.319 -2.3943 -0.2653  0.7911
11689TIP3   OH256557   2.444   5.421   0.968  0.1985  0.9424 -0.3573
11689TIP3    H156558   2.398   5.380   1.041  0.1206 -0.9229 -1.3953
11689TIP3    H256559   2.530   5.379   0.967  0.4266  1.4041 -0.9606
11690TIP3   OH256560   3.220   0.054  15.259  0.2997  0.2506  0.5696
11690TIP3    H156561   3.166   0.133  15.255 -0.3741 -0.2481 -0.3650
11690TIP3    H256562   3.288   0.069  15.193  1.0630  0.6816  1.4304
11691TIP3   OH256563   3.097   3.920  12.182  0.4180  0.2656  0.0753
11691TIP3    H156564   3.162   3.872  12.131 -0.2125  1.3949 -1.9036
11691TIP3    H256565   3.146   3.959  12.254  1.8885  0.8114 -1.1787
11692TIP3   OH256566   0.296   0.191  11.640  0.0844 -0.8185  0.4528
11692TIP3    H156567   0.296   0.110  11.692 -0.1752 -0.3802  1.1444
11692TIP3    H256568   0.386   0.201  11.610 -0.1220 -2.0079 -0.6591
11693TIP3   OH256569   1.358   6.306  15.181 -0.1599  0.6488 -0.2602
11693TIP3    H156570   1.350   6.400  15.193 -1.1910  0.6741 -1.0278
11693TIP3    H256571   1.427   6.295  15.116  0.8315  0.7989  0.7386
11694TIP3   OH256572   5.008   0.915   5.796  0.0185 -0.3282 -0.2009
11694TIP3    H156573   5.103   0.928   5.793 -0.0646  1.0795  1.4901
11694TIP3    H256574   4.981   0.913   5.704  1.3548  2.2593 -0.7482
11695TIP3   OH256575   1.228   0.722  14.901 -0.5977 -0.0467 -0.3221
11695TIP3    H156576   1.225   0.637  14.945 -1.7099 -0.3247 -0.8892
11695TIP3    H256577   1.263   0.702  14.814  1.5042  0.4852  0.3448
11696TIP3   OH256578   1.915   5.271  11.387  0.5939  0.5919 -0.1742
11696TIP3    H156579   1.986   5.242  11.331 -1.6327 -2.5643 -1.6649
11696TIP3    H256580   1.854   5.316  11.328  0.3315  1.3857  0.6603
11697TIP3   OH256581   5.324   2.318   0.710 -0.3845 -0.1270  0.4655
11697TIP3    H156582   5.372   2.400   0.719 -1.1811  0.3335  0.6620
11697TIP3    H256583   5.372   2.255   0.763  1.2139 -0.2484 -1.0285
11698TIP3   OH256584   4.114   6.323  13.670 -0.3383 -0.1855  0.2246
11698TIP3    H156585   4.193   6.319  13.616  0.7023 -1.0439  1.7213
11698TIP3    H256586   4.144   6.297  13.758 -1.9644  1.0538  1.2035
11699TIP3   OH256587   4.453   0.626   0.493  0.0799  0.1689  0.4102
11699TIP3    H156588   4.544   0.628   0.522  0.4228  0.7305 -0.6389
11699TIP3    H256589   4.445   0.544   0.444 -0.6270 -1.0178  2.3804
11700TIP3   OH256590   3.413   2.738  16.626  0.2734  0.4403  0.0046
11700TIP3    H156591   3.480   2.801  16.653  0.8920  0.1989 -0.8958
11700TIP3    H256592   3.397   2.759  16.534 -1.4582  0.9772  0.3815
11701TIP3   OH256593   0.954   4.450   0.527 -0.3224 -0.1235  0.0365
11701TIP3    H156594   1.045   4.448   0.556  0.1705 -2.4282 -1.3659
11701TIP3    H256595   0.910   4.384   0.581 -0.5571 -0.7972 -0.9426
11702TIP3   OH256596   2.132   0.148   3.974 -0.3219  0.1832 -0.2283
11702TIP3    H156597   2.102   0.131   4.064 -1.6945  2.5258 -0.1633
11702TIP3    H256598   2.224   0.171   3.984 -1.0496  3.0986  1.0798
11703TIP3   OH256599   1.835   0.510  15.047 -0.0244  0.6681  0.4986
11703TIP3    H156600   1.859   0.432  15.097 -0.5903 -1.1888 -1.9289
11703TIP3    H256601   1.740   0.516  15.054 -0.2146 -0.1129 -0.9060
11704TIP3   OH256602   1.035   4.801   3.220  0.4818 -0.3227 -1.1039
11704TIP3    H156603   0.957   4.776   3.170  0.7819  0.5546 -2.0487
11704TIP3    H256604   1.015   4.775   3.310 -0.2658 -1.5331 -1.5837
11705TIP3   OH256605   4.736   6.040   1.201  0.0804 -0.1605 -0.2040
11705TIP3    H156606   4.712   5.969   1.261  0.4396  0.1416  0.3098
11705TIP3    H256607   4.662   6.102   1.206  0.1905 -0.0502  0.0655
11706TIP3   OH256608   1.748   2.600  16.674 -0.3738 -0.5887  0.1682
11706TIP3    H156609   1.801   2.545  16.616  0.1115 -0.6359  0.6492
11706TIP3    H256610   1.770   2.689  16.648 -0.3695 -0.6127  0.0880
11707TIP3   OH256611   2.451   4.459   4.806  0.5365 -0.0215  0.0899
11707TIP3    H156612   2.453   4.517   4.730 -1.1938  1.1093  0.8469
11707TIP3    H256613   2.480   4.514   4.879 -3.5000  0.8460  1.2989
11708TIP3   OH256614   0.472   3.892  15.770 -0.0202 -0.1542  0.6049
11708TIP3    H156615   0.529   3.963  15.799  2.4468 -0.7197 -2.2620
11708TIP3    H256616   0.514   3.813  15.804  0.3282 -0.5086 -0.5953
11709TIP3   OH256617   1.466   5.817   6.224 -0.0597 -0.3835 -0.1917
11709TIP3    H156618   1.549   5.787   6.262 -0.1882  2.2874  2.5928
11709TIP3    H256619   1.403   5.810   6.296 -1.3933  0.8830 -1.1799
11710TIP3   OH256620   5.492   1.759   2.988  0.0666 -0.0681 -0.2969
11710TIP3    H156621   5.464   1.702   2.916  0.3448 -0.1625 -0.3306
11710TIP3    H256622   5.520   1.840   2.946  0.1669 -0.0990 -0.2893
11711TIP3   OH256623   4.056   4.688  14.689  0.3099  0.0222 -0.2192
11711TIP3    H156624   4.079   4.695  14.781  1.9658  0.9858 -0.6647
11711TIP3    H256625   4.064   4.594  14.669 -1.3532 -0.4012  0.8732
11712TIP3   OH256626   4.422   4.626   1.533 -0.3331 -0.3699  0.6626
11712TIP3    H156627   4.417   4.550   1.590  0.6080  1.0697  2.7923
11712TIP3    H256628   4.331   4.644   1.509 -0.6482 -1.5656  0.9137
11713TIP3   OH256629   3.256   4.102   3.544 -0.0204  0.5730 -0.1146
11713TIP3    H156630   3.187   4.160   3.512  0.5474  0.5952 -1.3552
11713TIP3    H256631   3.255   4.027   3.484  0.6016  0.2690  0.2397
11714TIP3   OH256632   5.370   3.875   0.412  0.7902 -0.2481  0.1177
11714TIP3    H156633   5.275   3.880   0.401  0.7172  1.9469  1.1155
11714TIP3    H256634   5.391   3.948   0.470  2.8976 -1.7847  1.4132
11715TIP3   OH256635   3.743   4.155   6.240  0.0498 -0.3591 -0.2209
11715TIP3    H156636   3.673   4.111   6.191 -1.4720  1.5796  0.0518
11715TIP3    H256637   3.729   4.128   6.331  1.0002 -1.6133 -0.4308
11716TIP3   OH256638   2.449   1.095  13.377 -0.3319 -0.4764  0.8571
11716TIP3    H156639   2.357   1.092  13.405 -0.1900  0.8022  1.5022
11716TIP3    H256640   2.497   1.125  13.454  0.2836  1.4643 -0.2097
11717TIP3   OH256641   5.400   3.325  17.110 -0.2910 -0.4499 -0.3167
11717TIP3    H156642   5.318   3.286  17.081 -0.7617 -0.3502  0.8004
11717TIP3    H256643   5.434   3.372  17.034 -1.3934 -0.2927 -0.7227
11718TIP3   OH256644   3.159   4.247   0.298  0.2046 -0.0325 -0.7107
11718TIP3    H156645   3.189   4.168   0.253 -0.5360 -0.2808 -0.7858
11718TIP3    H256646   3.206   4.318   0.255  0.1197 -0.3443 -1.3335
11719TIP3   OH256647   3.944   3.904   3.035  0.4085  0.1432 -0.3813
11719TIP3    H156648   3.990   3.961   2.973  0.1701 -0.8758 -1.5181
11719TIP3    H256649   3.864   3.878   2.990  0.7040 -1.4196 -0.0572
11720TIP3   OH256650   5.224   1.077  17.140  0.0773  0.6273 -0.2571
11720TIP3    H156651   5.203   1.078  17.233 -2.9912  0.5728 -0.8477
11720TIP3    H256652   5.275   1.157  17.126 -1.2296  1.7824  1.1534
11721TIP3   OH256653   6.445   3.153   1.474 -0.1559  0.1264  0.5141
11721TIP3    H156654   6.473   3.153   1.383 -1.4876  0.5893  0.0888
11721TIP3    H256655   6.477   3.070   1.509 -1.5686 -1.1265 -1.0127
11722TIP3   OH256656   6.809   6.457   2.881  0.4401 -0.3555  0.1340
11722TIP3    H156657   6.901   6.482   2.876  0.4530 -0.5774 -1.0777
11722TIP3    H256658   6.761   6.539   2.877  0.5313 -0.3427 -2.1207
11723TIP3   OH256659   6.158   3.800   5.267  0.3786 -0.2324 -0.3837
11723TIP3    H156660   6.190   3.872   5.213  0.3300 -0.1160 -0.2551
11723TIP3    H256661   6.111   3.743   5.205 -0.9653  0.6571 -0.2044
11724TIP3   OH256662   4.960   0.889  11.232  0.2090  0.3531  0.2776
11724TIP3    H156663   4.924   0.830  11.298  1.1874 -0.0613  0.4541
11724TIP3    H256664   4.890   0.897  11.167 -0.5774  0.3718  1.1049
11725TIP3   OH256665   1.064   5.782  12.499  0.2423  0.0137  0.2325
11725TIP3    H156666   1.027   5.794  12.412 -1.4070 -2.2918  0.5126
11725TIP3    H256667   1.121   5.705  12.491 -0.2551 -0.4886  1.2397
11726TIP3   OH256668   6.729   0.634  13.989 -0.2970  0.0496  0.0340
11726TIP3    H156669   6.703   0.561  14.045 -3.7487  0.5860 -0.6625
11726TIP3    H256670   6.734   0.709  14.049 -1.8934  0.2016  0.0295
11727TIP3   OH256671   5.516   0.766  13.007  0.4068  0.4126 -0.3346
11727TIP3    H156672   5.461   0.823  13.060  0.0432  0.7507 -1.0507
11727TIP3    H256673   5.605   0.785  13.035  0.4703  2.7111 -1.7716
11728TIP3   OH256674   3.798   6.655  17.138  0.6128 -0.5088 -0.0716
11728TIP3    H156675   3.873   6.595  17.132 -0.2894 -1.6054 -0.6286
11728TIP3    H256676   3.834   6.733  17.179  2.0029 -1.1312 -0.0442
11729TIP3   OH256677   3.783   6.180  15.692 -0.2659  0.1672 -0.3115
11729TIP3    H156678   3.735   6.239  15.751 -0.3166 -0.1898  0.0049
11729TIP3    H256679   3.804   6.235  15.616  0.9505  1.0116  0.5946
11730TIP3   OH256680   6.432   6.338   0.909  0.1612 -0.2057 -0.0658
11730TIP3    H156681   6.387   6.268   0.861 -0.1487  0.3987 -0.6584
11730TIP3    H256682   6.466   6.294   0.988  0.1398 -1.0663 -0.5206
11731TIP3   OH256683   4.331   5.142  14.081  0.5116  0.1489 -0.0760
11731TIP3    H156684   4.416   5.115  14.046  0.5826 -0.0862  0.2650
11731TIP3    H256685   4.313   5.226  14.038  0.3275 -0.3969 -1.0872
11732TIP3   OH256686   5.499   2.884  16.709 -0.0863  0.0529 -0.3309
11732TIP3    H156687   5.563   2.812  16.714  1.2952  1.1652 -1.2200
11732TIP3    H256688   5.461   2.887  16.797  2.9390  0.9151  1.1007
11733TIP3   OH256689   0.567   0.671  16.107 -0.3119 -0.2035 -0.4079
11733TIP3    H156690   0.555   0.746  16.165  0.8436 -1.4751  1.6318
11733TIP3    H256691   0.625   0.703  16.038  0.7776  0.6200  0.8410
11734TIP3   OH256692   6.579   3.337  10.784  0.0587  0.4222  0.2455
11734TIP3    H156693   6.501   3.386  10.809  0.9440  0.8750  2.3976
11734TIP3    H256694   6.626   3.395  10.724 -1.0810  0.2824 -0.7959
11735TIP3   OH256695   1.451   2.778   6.260  0.5934 -0.1143  0.6363
11735TIP3    H156696   1.389   2.801   6.328 -0.0390 -2.9460  1.1712
11735TIP3    H256697   1.522   2.734   6.306  0.4808 -1.4549 -0.3836
11736TIP3   OH256698   5.110   6.048  11.621 -0.1339 -0.4582  0.1568
11736TIP3    H156699   5.166   5.972  11.636  1.2266 -0.3605 -3.4966
11736TIP3    H256700   5.159   6.122  11.657  0.4189 -0.8096  0.1353
11737TIP3   OH256701   2.633   4.649   4.493 -0.0499 -0.1246 -0.1961
11737TIP3    H156702   2.586   4.677   4.572  0.8921  0.7517  0.0762
11737TIP3    H256703   2.620   4.554   4.490 -1.9431  0.0980 -0.2153
11738TIP3   OH256704   2.744   5.454  13.024  0.0581 -0.1436 -0.0754
11738TIP3    H156705   2.747   5.447  13.120  1.6460 -0.8103 -0.1460
11738TIP3    H256706   2.808   5.522  13.003  1.0742 -1.2685 -0.7487
11739TIP3   OH256707   3.691   1.827  14.773  0.2270 -0.6632 -0.1079
11739TIP3    H156708   3.619   1.768  14.797 -0.3893 -0.5751 -1.6299
11739TIP3    H256709   3.693   1.824  14.678  1.8904 -0.2063 -0.1066
11740TIP3   OH256710   0.379   3.785   1.099  0.3982  0.0601 -0.1740
11740TIP3    H156711   0.425   3.703   1.116  2.3595  0.6943 -1.9519
11740TIP3    H256712   0.442   3.853   1.123 -0.8731  1.0435  0.4692
11741TIP3   OH256713   6.781   0.122   0.643 -0.0722  0.0686 -0.0452
11741TIP3    H156714   6.813   0.036   0.615  0.6068  1.2122 -3.1488
11741TIP3    H256715   6.860   0.172   0.663 -0.2249  0.9581 -1.5431
11742TIP3   OH256716   1.605   1.426   2.543 -0.7038 -0.0273  0.6777
11742TIP3    H156717   1.623   1.505   2.494 -1.5813  0.0857  0.5223
11742TIP3    H256718   1.688   1.378   2.543 -0.6135  0.1092 -0.6508
11743TIP3   OH256719   4.172   1.232   3.976 -0.0925 -0.5061 -0.0122
11743TIP3    H156720   4.203   1.198   4.060 -0.5250 -0.4940  0.1509
11743TIP3    H256721   4.226   1.310   3.961 -1.2952  0.5955  1.1763
11744TIP3   OH256722   0.969   2.697   1.177  0.4612 -0.4470 -0.0330
11744TIP3    H156723   0.917   2.756   1.233  0.6930 -0.2122 -0.0637
11744TIP3    H256724   1.007   2.754   1.110 -0.9035 -0.9176 -1.2621
11745TIP3   OH256725   3.848   1.516  16.975  0.2564 -0.3753  0.4723
11745TIP3    H156726   3.778   1.460  16.940 -0.9969  1.2128  0.3068
11745TIP3    H256727   3.929   1.474  16.946 -0.5925 -2.5071  1.0113
11746TIP3   OH256728   4.485   5.087   3.790 -0.3365  0.1072 -0.3517
11746TIP3    H156729   4.461   4.994   3.788  1.0860 -0.2846 -1.7852
11746TIP3    H256730   4.562   5.091   3.846 -0.1796  0.3460 -0.5808
11747TIP3   OH256731   1.316   1.699   5.493 -0.2089  0.0489  0.1701
11747TIP3    H156732   1.258   1.754   5.440 -1.3951  0.1864  1.5565
11747TIP3    H256733   1.386   1.759   5.521  0.0323  0.1488 -0.6126
11748TIP3   OH256734   1.450   6.292  12.208  0.2684 -0.2124 -0.6869
11748TIP3    H156735   1.473   6.379  12.177  0.6170 -1.1786 -3.4562
11748TIP3    H256736   1.386   6.260  12.145  0.4779 -2.1257 -0.0122
11749TIP3   OH256737   2.996   3.269  16.258 -0.3974  0.3470  0.2833
11749TIP3    H156738   3.002   3.177  16.283  1.2569  0.5409  0.6974
11749TIP3    H256739   2.909   3.278  16.219  0.6590 -2.1954 -3.1032
11750TIP3   OH256740   2.904   1.219   1.634  0.4365 -0.0030 -0.1048
11750TIP3    H156741   2.895   1.196   1.542 -0.9086  0.5885 -0.1385
11750TIP3    H256742   2.823   1.265   1.656  0.7576 -0.0755  1.3566
11751TIP3   OH256743   6.338   1.366  15.824  0.5409 -0.8674 -0.0460
11751TIP3    H156744   6.284   1.378  15.903 -0.1378 -1.1386 -0.4591
11751TIP3    H256745   6.394   1.291  15.845  0.5581 -0.7661  0.2804
11752TIP3   OH256746   4.956   6.739   5.311  0.0579 -0.2868  0.2093
11752TIP3    H156747   4.910   6.796   5.372 -0.9591 -0.7707 -0.0862
11752TIP3    H256748   4.893   6.670   5.289  1.4636 -1.9241  1.0686
11753TIP3   OH256749   0.867   0.295  15.359 -0.1730  0.0443  0.6921
11753TIP3    H156750   0.774   0.315  15.373  0.3140  2.5906  0.7877
11753TIP3    H256751   0.882   0.316  15.267  0.3252 -0.2736  0.7018
11754TIP3   OH256752   2.349   3.928  13.540  0.3194  0.5872 -0.0071
11754TIP3    H156753   2.399   3.863  13.589  0.6164  0.4220 -0.5205
11754TIP3    H256754   2.327   3.995  13.604  0.7926  0.4253  0.3275
11755TIP3   OH256755   2.220   1.299  11.476 -0.2447 -0.3430  0.5203
11755TIP3    H156756   2.270   1.239  11.420 -0.1093 -0.9892  1.3164
11755TIP3    H256757   2.262   1.384  11.463  1.4157 -0.9565  1.5341
11756TIP3   OH256758   2.434   3.389   0.138  0.3539 -0.6005  0.0647
11756TIP3    H156759   2.444   3.294   0.134  0.0129 -0.6172 -0.5294
11756TIP3    H256760   2.370   3.404   0.208  0.5413 -0.7971  0.2781
11757TIP3   OH256761   3.824   4.318   2.642  0.0076  0.0149 -0.3128
11757TIP3    H156762   3.838   4.410   2.665  0.9430 -0.4358  1.0146
11757TIP3    H256763   3.733   4.301   2.669  0.3301  0.1461  0.9242
11758TIP3   OH256764   2.644   0.326  14.979  0.3549 -0.2237  0.2064
11758TIP3    H156765   2.671   0.234  14.983  1.1000 -0.0171  0.1183
11758TIP3    H256766   2.555   0.323  14.946  0.1396 -0.9518  0.8165
11759TIP3   OH256767   4.736   4.433  15.487  0.0834 -0.3326  0.7062
11759TIP3    H156768   4.765   4.399  15.572 -0.3650  0.5362  1.2289
11759TIP3    H256769   4.735   4.357  15.429  4.4691 -0.3354  0.2883
11760TIP3   OH256770   0.678   5.797   2.632  0.2704  0.6058  0.2629
11760TIP3    H156771   0.765   5.763   2.652 -0.0211  0.1666  0.8366
11760TIP3    H256772   0.623   5.719   2.625  0.0634  0.8347 -0.8396
11761TIP3   OH256773   6.608   2.801   3.104  1.1367 -1.0816 -0.1816
11761TIP3    H156774   6.549   2.802   3.029 -0.8208  0.7453  1.2809
11761TIP3    H256775   6.578   2.727   3.157  0.1825 -0.2046  0.5202
11762TIP3   OH256776   5.873   3.018   0.696  0.2195  0.1184  0.4869
11762TIP3    H156777   5.876   2.978   0.783 -0.0729  0.5553  0.7002
11762TIP3    H256778   5.903   3.108   0.709  2.2772 -0.4132 -0.2417
11763TIP3   OH256779   1.706   1.803   1.402  0.3302  0.3649 -0.1474
11763TIP3    H156780   1.732   1.783   1.492  0.2968  1.3910  0.1096
11763TIP3    H256781   1.760   1.879   1.378  0.4619 -0.0063 -1.0581
11764TIP3   OH256782   0.932   1.493  16.102  0.3486  0.3302  0.5324
11764TIP3    H156783   0.960   1.504  16.193  1.1098  0.7708  0.2576
11764TIP3    H256784   0.941   1.580  16.063 -0.5569  0.2825  0.1879
11765TIP3   OH256785   3.785   0.176  11.397 -0.0452 -0.0273  0.8350
11765TIP3    H156786   3.853   0.142  11.338 -1.3219  1.7882 -1.8658
11765TIP3    H256787   3.772   0.106  11.461  2.2811 -1.6314 -0.3117
11766TIP3   OH256788   4.638   0.911  17.127  0.1993  0.5095  0.0054
11766TIP3    H156789   4.589   0.992  17.113 -0.6395  0.0192  0.0241
11766TIP3    H256790   4.664   0.883  17.040 -4.4647 -2.2009 -0.8594
11767TIP3   OH256791   4.741   2.162   3.491  0.0379 -0.2163 -0.1215
11767TIP3    H156792   4.773   2.072   3.487  1.5632  0.3348 -1.7345
11767TIP3    H256793   4.820   2.214   3.506 -0.7050  0.9182 -0.0659
11768TIP3   OH256794   6.613   1.362  14.135 -0.1800  0.2643 -0.2760
11768TIP3    H156795   6.545   1.387  14.197  0.0883 -0.4573  0.3282
11768TIP3    H256796   6.695   1.383  14.179  0.0801 -2.0052  0.4747
11769TIP3   OH256797   3.233   0.032   4.392 -0.1422  0.4921 -0.0224
11769TIP3    H156798   3.147   0.064   4.420  0.2131  0.0851  1.6775
11769TIP3    H256799   3.255  -0.036   4.456  1.6580  0.9336 -0.1146
11770TIP3   OH256800   6.239   5.991  15.733 -0.0406  0.1205 -0.2345
11770TIP3    H156801   6.208   6.046  15.661 -0.0195  0.7878  0.2628
11770TIP3    H256802   6.333   6.009  15.739  0.2521 -1.0454 -0.9938
11771TIP3   OH256803   0.657   4.068   0.957 -0.0863  0.7136  0.5803
11771TIP3    H156804   0.683   4.002   0.892 -1.1027 -1.0335  1.8538
11771TIP3    H256805   0.581   4.111   0.919  1.5116  2.3190 -0.9512
11772TIP3   OH256806   4.035   0.609   0.946  0.0129  0.9167  0.3053
11772TIP3    H156807   4.014   0.636   0.856 -0.9185  0.6458  0.4345
11772TIP3    H256808   4.094   0.535   0.935 -2.3259 -0.9969 -0.1756
11773TIP3   OH256809   2.918   5.763   2.443  0.7714  0.3973  0.2954
11773TIP3    H156810   2.899   5.839   2.497 -0.0068  0.1673  0.3475
11773TIP3    H256811   2.845   5.703   2.458  0.5896  0.2829 -0.9251
11774TIP3   OH256812   1.376   2.182   3.565  0.3786 -0.1309  0.1510
11774TIP3    H156813   1.407   2.127   3.637 -0.4692  0.0251  0.6425
11774TIP3    H256814   1.290   2.213   3.593 -0.5761 -1.1315 -1.4652
11775TIP3   OH256815   5.598   1.178   4.524  0.1268  0.5307  0.5971
11775TIP3    H156816   5.577   1.244   4.457  2.7603  0.8428 -0.0265
11775TIP3    H256817   5.647   1.226   4.590  0.7176 -0.5047  0.9223
11776TIP3   OH256818   0.102   1.136  15.149 -0.0367  0.2087 -0.3824
11776TIP3    H156819   0.038   1.199  15.117 -0.1114 -0.4110 -1.5181
11776TIP3    H256820   0.050   1.060  15.175  0.2245 -0.4299 -1.6356
11777TIP3   OH256821   4.760   4.448   5.879  0.0556 -0.6044  0.2976
11777TIP3    H156822   4.770   4.466   5.785  0.3320  0.0481  0.4424
11777TIP3    H256823   4.678   4.400   5.886 -0.3670  0.0309 -0.1989
11778TIP3   OH256824   3.524   1.672  14.108  0.0906  0.6339 -0.2352
11778TIP3    H156825   3.527   1.583  14.074 -0.0920  1.2450 -1.9183
11778TIP3    H256826   3.436   1.703  14.087 -0.1274  0.9726  1.0545
11779TIP3   OH256827   2.237   6.781   2.944  0.2963  0.2269  0.0116
11779TIP3    H156828   2.239   6.692   2.910  0.9606  1.1862 -2.6342
11779TIP3    H256829   2.151   6.788   2.986 -0.2457 -1.2815 -0.7742
11780TIP3   OH256830   0.337   4.002  11.300 -0.2253  0.2039  0.5344
11780TIP3    H156831   0.366   4.086  11.337  1.4778 -0.6242  1.1631
11780TIP3    H256832   0.395   3.987  11.226 -0.2401 -0.6179  0.6806
11781TIP3   OH256833   0.483   4.173   0.289 -0.0966  0.0735 -0.0137
11781TIP3    H156834   0.527   4.160   0.373  1.8714 -0.6379 -1.0704
11781TIP3    H256835   0.505   4.095   0.238 -1.4025  0.4001 -1.1318
11782TIP3   OH256836   5.874   3.259  11.058  0.0001  0.3433  0.0739
11782TIP3    H156837   5.812   3.186  11.060 -1.4173  1.4463 -1.2903
11782TIP3    H256838   5.954   3.221  11.021 -0.9923 -0.3651 -1.4487
11783TIP3   OH256839   3.803   6.551   4.863  0.0047 -0.2151  0.6234
11783TIP3    H156840   3.864   6.543   4.936  2.2312  2.2401 -0.7809
11783TIP3    H256841   3.725   6.590   4.901  0.4416 -0.6151  1.9772
11784TIP3   OH256842   1.393   4.953  13.987 -0.2044 -0.0914  0.6077
11784TIP3    H156843   1.479   4.926  13.957  0.5471 -0.8385  3.1849
11784TIP3    H256844   1.409   5.034  14.036 -1.1793  0.4441  0.0821
11785TIP3   OH256845   4.757   1.728   1.067 -0.0637  0.4641 -0.3063
11785TIP3    H156846   4.671   1.724   1.024 -0.8504 -0.6357  1.2968
11785TIP3    H256847   4.738   1.749   1.158  1.4772  1.3141 -0.1469
11786TIP3   OH256848   4.432   5.192  11.166  0.0463 -0.3048  0.2575
11786TIP3    H156849   4.489   5.179  11.242 -3.0183  2.5491  3.3975
11786TIP3    H256850   4.477   5.259  11.114  0.2667  0.9351  1.9707
11787TIP3   OH256851   0.277   6.406   1.101  0.1391 -0.0177 -0.5031
11787TIP3    H156852   0.257   6.398   1.194 -0.2904  0.8497 -0.5164
11787TIP3    H256853   0.373   6.411   1.097  0.1160  0.8814 -0.0326
11788TIP3   OH256854   6.091   2.790  14.378  0.2277 -0.3047  0.1436
11788TIP3    H156855   6.112   2.853  14.310 -0.3961  0.2181  0.4303
11788TIP3    H256856   6.170   2.735  14.385  0.0795 -0.7678 -1.4262
11789TIP3   OH256857   6.024   5.180   4.581 -0.2242 -0.0712 -0.2768
11789TIP3    H156858   6.069   5.264   4.594 -0.0199 -0.0701 -0.9490
11789TIP3    H256859   5.939   5.204   4.545 -0.3872 -0.1201  0.0817
11790TIP3   OH256860   0.723   0.200  13.609  0.2055  0.1009 -0.0073
11790TIP3    H156861   0.706   0.294  13.602  0.2589  0.1309  0.2480
11790TIP3    H256862   0.638   0.163  13.635 -0.6413 -0.3123 -3.0405
11791TIP3   OH256863   2.761   2.173   1.683 -0.6116 -0.3278  0.8545
11791TIP3    H156864   2.707   2.156   1.606 -0.7484 -0.4273  0.9717
11791TIP3    H256865   2.755   2.268   1.696  0.8054 -0.0294 -0.2829
11792TIP3   OH256866   4.170   2.358   3.129 -0.2853 -0.2974  0.3205
11792TIP3    H156867   4.093   2.415   3.133  0.1517  0.3148  0.1800
11792TIP3    H256868   4.220   2.380   3.208  0.4345  0.3235 -0.2905
11793TIP3   OH256869   3.112   6.289  11.769  0.3866 -0.4968  0.5471
11793TIP3    H156870   3.077   6.356  11.710  0.8998 -1.2355 -0.6203
11793TIP3    H256871   3.042   6.224  11.776 -0.2167  0.2400  1.8924
11794TIP3   OH256872   5.930   1.053   2.046 -0.1632  0.3606 -0.1504
11794TIP3    H156873   6.011   1.085   2.005  0.6045  0.9759  1.7477
11794TIP3    H256874   5.869   1.127   2.039  0.5662  1.1483  1.3711
11795TIP3   OH256875   0.696   3.743  12.153  0.4247  0.5743 -0.1035
11795TIP3    H156876   0.662   3.727  12.065 -0.7193 -0.9956  0.5906
11795TIP3    H256877   0.782   3.701  12.153 -0.4565 -1.3339  0.1400
11796TIP3   OH256878   2.988   4.935   1.028 -0.2030 -0.1412  0.0903
11796TIP3    H156879   3.013   5.026   1.043  1.6304 -0.4102 -1.0074
11796TIP3    H256880   3.037   4.886   1.094  0.7144 -0.5210 -0.8535
11797TIP3   OH256881   3.485   1.451  13.974  0.1067  0.0611 -0.1898
11797TIP3    H156882   3.424   1.514  13.935  0.4750  0.3436 -0.3241
11797TIP3    H256883   3.442   1.366  13.964 -0.5067  0.3185  0.2172
11798TIP3   OH256884   4.824   0.288  16.954 -0.3066 -0.6852 -1.0163
11798TIP3    H156885   4.822   0.242  17.037  2.9258 -0.7875 -0.8949
11798TIP3    H256886   4.751   0.350  16.959  0.5532  0.2416  2.4512
11799TIP3   OH256887   1.450   5.402   0.346  0.1000  0.6854 -0.0495
11799TIP3    H156888   1.540   5.420   0.320 -0.0917  1.4756 -0.1934
11799TIP3    H256889   1.440   5.445   0.431  0.1654 -0.2855  0.4565
11800TIP3   OH256890   5.126   4.569  16.261 -0.0703  0.1058  0.1478
11800TIP3    H156891   5.120   4.510  16.336 -0.9563  0.1444  0.1137
11800TIP3    H256892   5.053   4.629  16.271 -0.0294  0.2920 -0.5922
11801TIP3   OH256893   6.284   6.110  12.300  0.4126 -0.1765  0.2881
11801TIP3    H156894   6.235   6.094  12.381 -0.0194  1.8995  0.5053
11801TIP3    H256895   6.221   6.090  12.230 -0.5029  1.5614  0.5533
11802TIP3   OH256896   5.072   0.322  17.172  0.0776 -0.4462  0.0016
11802TIP3    H156897   4.992   0.269  17.163 -0.1400  0.2343 -2.9760
11802TIP3    H256898   5.083   0.364  17.087  3.1940  0.1428  0.5763
11803TIP3   OH256899   1.083   3.512  11.622 -0.6737  0.1478 -0.2350
11803TIP3    H156900   1.007   3.506  11.680 -2.1581 -0.5073 -2.0984
11803TIP3    H256901   1.062   3.453  11.550  0.9723  1.0398 -1.5206
11804TIP3   OH256902   3.703   0.682   0.139  0.2184  0.5006  0.4541
11804TIP3    H156903   3.763   0.608   0.139  1.0396  1.1520 -0.0608
11804TIP3    H256904   3.638   0.660   0.073  2.3564  1.6903 -2.2407
11805TIP3   OH256905   1.069   1.391  10.483  0.1585  0.2040  0.0149
11805TIP3    H156906   1.076   1.296  10.495 -1.5008  0.1508  0.7990
11805TIP3    H256907   1.129   1.428  10.547  0.8107 -0.2949 -0.2862
11806TIP3   OH256908   3.519   0.024  16.772 -0.4765 -0.0577 -0.2127
11806TIP3    H156909   3.525  -0.065  16.738  1.9734 -0.5606  1.2913
11806TIP3    H256910   3.490   0.013  16.863 -1.8376  0.8478 -0.5115
11807TIP3   OH256911   3.086   3.523  12.457 -0.0475 -0.2002  0.4316
11807TIP3    H156912   3.003   3.476  12.459 -0.3827  0.0893 -2.4946
11807TIP3    H256913   3.061   3.615  12.472  0.0543 -0.3500  1.6416
11808TIP3   OH256914   4.149   6.562   5.462  0.0836  0.0494  0.2203
11808TIP3    H156915   4.214   6.543   5.529 -1.0958  0.2624  1.4682
11808TIP3    H256916   4.074   6.508   5.485 -0.4779  0.4091 -0.7074
11809TIP3   OH256917   6.816   3.634  14.782  0.2862  0.4845  0.4799
11809TIP3    H156918   6.753   3.706  14.776 -0.8914 -0.6106 -0.9023
11809TIP3    H256919   6.897   3.670  14.745 -0.8815  0.5243 -2.2242
11810TIP3   OH256920   4.514   0.382   4.080  0.0860 -0.4782 -0.3948
11810TIP3    H156921   4.456   0.367   4.006 -2.8664  1.0959  1.4199
11810TIP3    H256922   4.549   0.470   4.066  0.4183 -0.6179 -0.4569
11811TIP3   OH256923   5.677   6.044  13.557 -0.1269  0.2673 -0.6309
11811TIP3    H156924   5.609   6.105  13.585 -0.1890  0.4336 -1.1485
11811TIP3    H256925   5.658   5.964  13.607  0.3317  0.8542  0.5343
11812TIP3   OH256926   5.262   4.165   3.519 -0.4355 -0.3356  0.1090
11812TIP3    H156927   5.225   4.243   3.479  0.8473 -0.2748 -1.0293
11812TIP3    H256928   5.242   4.174   3.612 -0.6888  1.1317 -0.0630
11813TIP3   OH256929   3.347   1.722  12.684  0.6113 -0.3676  0.5483
11813TIP3    H156930   3.380   1.742  12.772  2.3775  1.2620 -0.3995
11813TIP3    H256931   3.394   1.783  12.627 -0.7218 -1.1651 -1.5040
11814TIP3   OH256932   6.561   2.754  12.982  0.3250 -0.5509  0.2915
11814TIP3    H156933   6.654   2.730  12.973  0.1854 -0.9816 -0.1039
11814TIP3    H256934   6.537   2.787  12.895 -0.0586 -1.0691  0.1950
11815TIP3   OH256935   0.356   0.852  16.401  0.1703 -0.1419 -0.1840
11815TIP3    H156936   0.407   0.924  16.438 -0.1401 -0.1614  0.2906
11815TIP3    H256937   0.342   0.792  16.475  0.7796 -0.8966 -0.6551
11816TIP3   OH256938   1.924   1.939  14.660 -0.6209  0.1638 -0.0588
11816TIP3    H156939   1.954   1.946  14.569 -1.2265 -0.6778 -0.3445
11816TIP3    H256940   1.830   1.953  14.655 -0.6329  0.2952  0.4724
11817TIP3   OH256941   5.029   4.547  15.675 -0.0078  0.3455 -0.1466
11817TIP3    H156942   5.041   4.454  15.696 -1.2333  0.5538  1.6726
11817TIP3    H256943   5.044   4.552  15.581 -0.9322 -1.9024 -0.4849
11818TIP3   OH256944   3.279   2.563   6.240 -0.0187 -0.3768 -0.0291
11818TIP3    H156945   3.352   2.591   6.184 -0.0645 -1.6615 -0.7745
11818TIP3    H256946   3.320   2.509   6.307  0.0330  1.1445  1.2447
11819TIP3   OH256947   0.387   6.113   2.384  0.2285  0.5981  0.2840
11819TIP3    H156948   0.379   6.027   2.424 -0.6451  0.1357 -0.8119
11819TIP3    H256949   0.308   6.121   2.330  1.5162  0.9974 -1.6394
11820TIP3   OH256950   5.590   0.888   0.425 -0.2031  0.0867 -0.4603
11820TIP3    H156951   5.511   0.931   0.391  0.1795  0.0455 -1.4148
11820TIP3    H256952   5.636   0.957   0.472 -0.3624  0.3334 -0.6614
11821TIP3   OH256953   0.656   3.986  10.799  0.0195 -0.2344 -0.2899
11821TIP3    H156954   0.730   3.948  10.847  1.8452  0.2031 -2.6048
11821TIP3    H256955   0.693   4.059  10.751 -2.0728  0.4047 -1.0464
11822TIP3   OH256956   4.564   4.282   5.680  0.2584  0.3696  0.4625
11822TIP3    H156957   4.517   4.206   5.645  0.0600  1.1949 -1.1557
11822TIP3    H256958   4.512   4.358   5.654  0.9419  1.1345  1.2329
11823TIP3   OH256959   4.358   6.451   1.477  0.3616  0.7341 -0.1300
11823TIP3    H156960   4.322   6.532   1.442 -0.4629  0.7338  0.6837
11823TIP3    H256961   4.439   6.479   1.521  0.4400  1.0048 -0.4362
11824TIP3   OH256962   6.269   5.105   5.231 -0.4054 -0.1924 -0.1316
11824TIP3    H156963   6.239   5.075   5.145 -0.5426 -0.2129 -0.0764
11824TIP3    H256964   6.190   5.139   5.273 -0.2089  0.4765 -0.2905
11825TIP3   OH256965   2.883   1.753   1.315  0.1476  0.2239 -0.1491
11825TIP3    H156966   2.961   1.790   1.274  0.4345 -1.0919 -0.8191
11825TIP3    H256967   2.857   1.819   1.380  1.0434  1.2665 -0.8154
11826TIP3   OH256968   5.212   0.007   2.507  0.0042  0.4397  0.2798
11826TIP3    H156969   5.245  -0.001   2.596  0.0921  1.4418  0.3470
11826TIP3    H256970   5.122  -0.027   2.511 -0.3874  1.5099  1.0070
11827TIP3   OH256971   5.445   0.960  16.514  0.3993 -0.4897  0.0022
11827TIP3    H156972   5.393   1.026  16.559 -1.3326 -0.2254 -2.1825
11827TIP3    H256973   5.440   0.883  16.570 -0.2090  0.2945  1.0715
11828TIP3   OH256974   6.263   2.207  15.880  0.8854 -0.1973 -0.4137
11828TIP3    H156975   6.226   2.120  15.864  0.1593 -0.0282  0.2402
11828TIP3    H256976   6.355   2.191  15.900  0.2117 -1.1638  2.4536
11829TIP3   OH256977   6.041   3.300  15.100 -0.4954  0.0273  0.2784
11829TIP3    H156978   5.979   3.333  15.165 -1.5575 -0.1736 -0.5988
11829TIP3    H256979   6.019   3.207  15.090  0.7195 -0.3431  0.7818
11830TIP3   OH256980   4.829   1.954  11.936  0.1743 -0.3486  0.3679
11830TIP3    H156981   4.914   1.924  11.966  0.6663  1.6110  1.0958
11830TIP3    H256982   4.779   1.969  12.017 -0.8948 -1.4971 -0.0475
11831TIP3   OH256983   3.701   0.766  14.944 -0.4812 -0.6181  0.0342
11831TIP3    H156984   3.735   0.760  14.854 -2.0707  0.4891 -0.6925
11831TIP3    H256985   3.710   0.678  14.979  0.3431 -1.0286 -1.1444
11832TIP3   OH256986   6.608   0.093   3.286 -0.7416  0.2702  0.1226
11832TIP3    H156987   6.565   0.030   3.228 -0.4654 -1.9422  2.1532
11832TIP3    H256988   6.626   0.169   3.231 -2.5323 -0.7860 -2.0661
11833TIP3   OH256989   5.471   0.567  12.173  0.0892  0.2058  0.1729
11833TIP3    H156990   5.418   0.489  12.159  0.5305  0.2784 -2.4237
11833TIP3    H256991   5.407   0.639  12.177 -0.1193  0.1701 -1.8357
11834TIP3   OH256992   4.863   3.575   4.023 -0.3816 -0.2035  0.2426
11834TIP3    H156993   4.898   3.502   4.074  0.1204 -0.2513 -0.1607
11834TIP3    H256994   4.894   3.653   4.067  0.7286 -0.2458 -0.4336
11835TIP3   OH256995   6.754   0.148  14.646  0.0956 -0.4811 -0.5014
11835TIP3    H156996   6.788   0.110  14.727  0.3390  1.2135  0.2364
11835TIP3    H256997   6.714   0.074  14.600  0.8846 -1.6904  0.6536
11836TIP3   OH256998   2.080   5.158  11.213  0.4132  0.5487 -0.2498
11836TIP3    H156999   2.157   5.103  11.225  0.5508  0.8642  0.4050
11836TIP3    H257000   2.032   5.118  11.141  0.4277 -0.5286  0.3118
11837TIP3   OH257001   5.651   3.793   4.099 -0.1186  0.4874 -0.2086
11837TIP3    H157002   5.725   3.742   4.067 -0.6668  0.5438 -1.6203
11837TIP3    H257003   5.670   3.883   4.074  0.3822  0.8736  1.4223
11838TIP3   OH257004   1.589   3.078   0.227  0.3924  0.0218 -0.0290
11838TIP3    H157005   1.525   3.046   0.290 -0.3554  1.2866 -0.1210
11838TIP3    H257006   1.638   3.000   0.201 -0.2028 -0.7426  1.0626
11839TIP3   OH257007   2.521   0.240   0.519 -0.1136  0.1195 -0.1160
11839TIP3    H157008   2.605   0.283   0.538 -0.3903  1.4125 -1.6478
11839TIP3    H257009   2.506   0.184   0.595  1.6570  0.5959  0.6496
11840TIP3   OH257010   2.335   2.552  13.147 -0.3344 -0.0128  0.1935
11840TIP3    H157011   2.270   2.498  13.101  0.4753 -0.1363 -0.8542
11840TIP3    H257012   2.385   2.490  13.200  0.6471 -0.3551 -1.0702
11841TIP3   OH257013   5.591   2.881  13.602 -0.3112 -0.1690  0.1778
11841TIP3    H157014   5.545   2.964  13.610 -0.7243 -0.4302  0.6796
11841TIP3    H257015   5.609   2.871  13.509  1.5247  1.4052  0.3035
11842TIP3   OH257016   6.042   1.989  15.101 -0.0842  0.5886 -0.2773
11842TIP3    H157017   6.006   2.001  15.013 -0.0953 -0.4872 -0.4264
11842TIP3    H257018   6.130   2.027  15.095  0.6109 -1.0497 -1.2872
11843TIP3   OH257019   4.843   5.594   4.406  0.0194 -0.0932 -0.1721
11843TIP3    H157020   4.765   5.649   4.414  0.6325  1.0781 -1.6583
11843TIP3    H257021   4.834   5.528   4.475 -1.6291  0.7998  0.5144
11844TIP3   OH257022   1.002   1.115   2.843  0.0743  0.0315  0.0789
11844TIP3    H157023   0.997   1.063   2.923  1.0255  0.4151  0.4061
11844TIP3    H257024   1.092   1.103   2.813 -0.6440 -1.2023 -1.7035
11845TIP3   OH257025   1.744   3.629  12.386  0.0783 -0.5633 -0.2238
11845TIP3    H157026   1.719   3.687  12.458 -0.7935  0.2004 -1.1080
11845TIP3    H257027   1.835   3.606  12.405  1.1057  2.5737 -0.7257
11846TIP3   OH257028   1.091   0.567  15.303 -0.0200  0.1566 -0.4005
11846TIP3    H157029   1.069   0.541  15.214  2.1957  0.8557 -1.2034
11846TIP3    H257030   1.072   0.661  15.306  0.8111  0.3331 -0.4502
11847TIP3   OH257031   3.303   0.464  13.349  0.3723  0.0941  0.8660
11847TIP3    H157032   3.232   0.401  13.341  1.1171 -0.9568  2.0606
11847TIP3    H257033   3.260   0.549  13.363 -0.6391 -0.2834  0.1112
11848TIP3   OH257034   3.472   6.586  14.427  0.3698 -0.1776 -0.1187
11848TIP3    H157035   3.564   6.599  14.405  0.4586  1.0322  0.8881
11848TIP3    H257036   3.429   6.571  14.342  1.1421  1.5501 -0.8694
11849TIP3   OH257037   6.662   3.354   3.360 -0.3615  0.3367  0.4573
11849TIP3    H157038   6.607   3.297   3.414 -0.5679 -2.0378 -2.0867
11849TIP3    H257039   6.720   3.294   3.312  0.0140  2.3118 -1.7418
11850TIP3   OH257040   1.893   3.635  15.401  0.2325  0.2884  0.3328
11850TIP3    H157041   1.839   3.559  15.383  0.3643 -0.0155  1.1594
11850TIP3    H257042   1.883   3.692  15.325 -0.4470 -0.2237  0.0418
11851TIP3   OH257043   3.097   0.089   0.761 -0.1956 -0.3575  0.0276
11851TIP3    H157044   3.154   0.039   0.702 -0.0366  0.8010 -0.8474
11851TIP3    H257045   3.018   0.105   0.709  0.0826  0.9664 -0.0184
11852TIP3   OH257046   2.120   2.996  16.078 -0.6968  0.2415  0.3483
11852TIP3    H157047   2.204   2.991  16.124 -1.7229 -4.2162  2.2798
11852TIP3    H257048   2.059   3.028  16.144 -1.1565 -0.3547  0.2173
11853TIP3   OH257049   6.068   0.058   4.236  0.1198 -0.8144  0.6709
11853TIP3    H157050   5.975   0.053   4.261  0.3551 -0.6967  1.6038
11853TIP3    H257051   6.075   0.142   4.190 -0.2881 -0.9307  0.3900
11854TIP3   OH257052   5.519   0.752  14.990  0.5905  0.3274  0.2843
11854TIP3    H157053   5.565   0.833  15.013 -0.2320  1.0786 -0.5786
11854TIP3    H257054   5.429   0.767  15.021  0.4519 -0.2911  0.1846
11855TIP3   OH257055   4.800   5.409   1.398 -0.1270 -0.6733  0.6473
11855TIP3    H157056   4.884   5.455   1.401  0.0201 -0.9305  0.4765
11855TIP3    H257057   4.784   5.393   1.305  0.0106 -1.3014  0.7235
11856TIP3   OH257058   1.798   1.156  12.083  0.0248 -0.5911  0.2011
11856TIP3    H157059   1.797   1.172  11.989 -0.6138  0.5250  0.3789
11856TIP3    H257060   1.730   1.214  12.118  1.4335  0.3258  1.5508
11857TIP3   OH257061   0.756   2.235  11.942 -0.1451 -0.3770 -0.4944
11857TIP3    H157062   0.668   2.197  11.949 -0.1379 -0.2850  0.1041
11857TIP3    H257063   0.785   2.245  12.032  0.2277  0.1873 -0.6763
11858TIP3   OH257064   5.018   1.127  14.054  0.1005  0.5442 -0.0565
11858TIP3    H157065   4.994   1.065  13.986 -2.6511  2.5938 -1.1410
11858TIP3    H257066   5.079   1.187  14.010  1.0523 -0.0862  0.3637
11859TIP3   OH257067   5.845   0.063   3.002  0.1408  0.3667  0.2397
11859TIP3    H157068   5.857   0.074   2.907  1.1517  0.0966  0.3339
11859TIP3    H257069   5.783  -0.009   3.010  0.3774  0.1103 -0.2102
11860TIP3   OH257070   5.855   0.965   1.779 -0.4935  0.0622  0.5774
11860TIP3    H157071   5.931   0.975   1.722 -0.0098 -2.6189  0.6210
11860TIP3    H257072   5.891   0.971   1.868 -0.7439  1.1326  0.6179
11861TIP3   OH257073   4.491   5.562  15.916  0.0844 -1.0716  0.3503
11861TIP3    H157074   4.465   5.607  15.835  2.3207 -2.4789 -1.2707
11861TIP3    H257075   4.408   5.533  15.954 -1.0525 -0.5662 -1.5689
11862TIP3   OH257076   2.182   0.455  11.586  0.3527  0.3158  0.1628
11862TIP3    H157077   2.138   0.428  11.667  2.9328 -2.6572  0.7767
11862TIP3    H257078   2.146   0.541  11.567 -4.1363 -0.9808  1.5819
11863TIP3   OH257079   0.288   3.845   1.740  0.4899 -0.4058 -0.1754
11863TIP3    H157080   0.335   3.764   1.719 -0.9027 -0.7080 -2.4434
11863TIP3    H257081   0.327   3.910   1.682  1.2101  0.4618  1.2363
11864TIP3   OH257082   1.103   6.583   6.283  0.4464  0.2011 -0.3824
11864TIP3    H157083   1.044   6.537   6.343 -0.8398  2.6727  0.3968
11864TIP3    H257084   1.164   6.630   6.341  1.0211  0.3389 -1.0914
11865TIP3   OH257085   0.268   0.254   2.001 -0.1482 -0.1565  0.6549
11865TIP3    H157086   0.346   0.208   2.031  1.0753  1.5694  0.3051
11865TIP3    H257087   0.201   0.186   1.993  1.7617 -2.0140 -0.6496
11866TIP3   OH257088   2.568   1.961  11.869 -0.1421  0.5565 -0.0024
11866TIP3    H157089   2.542   2.037  11.920  0.5392 -0.1746  1.5000
11866TIP3    H257090   2.664   1.965  11.866  0.0707 -1.2423  1.8393
11867TIP3   OH257091   3.978   0.062  12.094  0.2186  0.7404 -0.0555
11867TIP3    H157092   3.883   0.051  12.091  0.2862 -0.0190  0.3423
11867TIP3    H257093   4.001   0.102  12.010 -0.3094 -0.2577 -0.6917
11868TIP3   OH257094   3.396   2.528   4.657 -0.2682 -0.2113  0.4925
11868TIP3    H157095   3.355   2.453   4.614  0.5361 -0.4904  0.1997
11868TIP3    H257096   3.389   2.508   4.750 -0.6836 -0.3099  0.4441
11869TIP3   OH257097   2.301   4.445  15.487 -0.8725 -0.4986 -0.2264
11869TIP3    H157098   2.312   4.468  15.395  0.4665  0.2696  0.0908
11869TIP3    H257099   2.260   4.522  15.526  0.1902 -0.0947  0.1346
11870TIP3   OH257100   2.431   4.028  13.935 -0.0213 -0.6493  0.1536
11870TIP3    H157101   2.482   4.103  13.904 -2.0647  0.9710  0.5093
11870TIP3    H257102   2.460   4.015  14.025 -1.7777  1.7849  1.1671
11871TIP3   OH257103   2.037   1.878  15.826  0.5757  0.2247  0.1537
11871TIP3    H157104   2.026   1.879  15.731  0.6753 -0.1833  0.1366
11871TIP3    H257105   1.952   1.848  15.859  0.7057 -0.1309  0.1670
11872TIP3   OH257106   5.724   5.111   3.717  0.1774  0.9632 -0.3932
11872TIP3    H157107   5.809   5.123   3.760  0.4994  0.9603 -1.0103
11872TIP3    H257108   5.742   5.048   3.647  0.2384  2.8384 -2.1461
11873TIP3   OH257109   3.054   0.535   5.176  0.4581  0.1617 -0.2825
11873TIP3    H157110   3.039   0.483   5.097  1.5920 -1.2598  0.3937
11873TIP3    H257111   3.100   0.613   5.144  0.0824  0.0509 -1.1236
11874TIP3   OH257112   3.671   4.110   3.200 -0.0123  0.0420  0.0846
11874TIP3    H157113   3.715   4.031   3.232 -1.3552 -0.9669 -0.5064
11874TIP3    H257114   3.619   4.140   3.275 -0.2419 -0.1846  0.0178
11875TIP3   OH257115   1.329   0.378   5.493  0.2795 -0.5603  0.0852
11875TIP3    H157116   1.350   0.304   5.550  3.9998 -0.5895 -1.0274
11875TIP3    H257117   1.394   0.373   5.422 -1.7300  1.6223 -2.1102
11876TIP3   OH257118   0.379   1.905   2.072  0.3748  0.4049 -0.5552
11876TIP3    H157119   0.442   1.835   2.089 -0.1527  0.1294  0.3002
11876TIP3    H257120   0.339   1.882   1.988  0.0218 -0.4658 -0.1596
11877TIP3   OH257121   2.891   4.467  11.617 -0.5703  0.1807 -0.0237
11877TIP3    H157122   2.817   4.482  11.676 -1.1332 -0.4773 -0.5370
11877TIP3    H257123   2.866   4.510  11.535  1.0378  2.7801  0.7267
11878TIP3   OH257124   5.206   5.624   3.070 -0.1421  0.1288 -0.1296
11878TIP3    H157125   5.242   5.682   3.003 -0.0725 -0.5229 -0.6684
11878TIP3    H257126   5.114   5.647   3.075  0.2326  1.5456  0.9831
11879TIP3   OH257127   1.160   4.139  11.957  0.0850 -0.3472 -0.0639
11879TIP3    H157128   1.252   4.163  11.963 -0.2814  1.1142  0.1377
11879TIP3    H257129   1.147   4.112  11.866  1.0234 -2.0698  0.2741
11880TIP3   OH257130   0.419   2.292   4.914 -0.4762  0.1660  0.2457
11880TIP3    H157131   0.406   2.387   4.916  0.5770  0.3210  1.6209
11880TIP3    H257132   0.455   2.274   4.827  1.8691  1.4443  0.8678
11881TIP3   OH257133   3.326   0.778  10.637 -0.0313  0.2360  0.3942
11881TIP3    H157134   3.315   0.872  10.650 -0.3457  0.2319  0.1549
11881TIP3    H257135   3.289   0.760  10.551 -1.3864 -0.3545  1.0671
11882TIP3   OH257136   3.499   4.697   5.207  0.2160 -0.1738 -0.3204
11882TIP3    H157137   3.583   4.662   5.178  1.3612  1.2967  1.0301
11882TIP3    H257138   3.488   4.663   5.296 -0.0972  0.4659 -0.1064
11883TIP3   OH257139   1.940   2.851   5.523  0.0401 -0.1959 -0.3000
11883TIP3    H157140   1.943   2.777   5.585 -1.9969  0.9970  1.3914
11883TIP3    H257141   1.858   2.896   5.545  1.2153  2.6005 -1.2076
11884TIP3   OH257142   1.228   4.424   0.586  0.5004 -0.5080 -0.0649
11884TIP3    H157143   1.215   4.345   0.639 -3.0405  0.9813  1.6501
11884TIP3    H257144   1.270   4.486   0.645 -0.1610  0.0271 -0.1444
11885TIP3   OH257145   5.261   3.112  15.051 -0.3519  0.0896  0.0725
11885TIP3    H157146   5.228   3.161  15.127 -0.6244  0.2924 -0.1756
11885TIP3    H257147   5.356   3.118  15.058 -0.2986 -1.7224  1.6019
11886TIP3   OH257148   2.657   5.215  11.968 -0.0612  0.3716  0.0754
11886TIP3    H157149   2.610   5.180  12.044  0.5584  0.1242  0.3566
11886TIP3    H257150   2.597   5.279  11.930 -1.1727 -0.8557 -0.3561
11887TIP3   OH257151   0.702   0.887   2.018  0.0096 -0.4988 -0.1074
11887TIP3    H157152   0.723   0.981   2.018  1.3841 -0.7850 -0.6640
11887TIP3    H257153   0.622   0.881   2.071 -0.6324  1.0875 -0.8256
11888TIP3   OH257154   1.567   3.114  15.428  0.3793  0.2534 -0.1548
11888TIP3    H157155   1.652   3.140  15.392 -0.8360  1.9277 -2.0043
11888TIP3    H257156   1.519   3.196  15.438 -1.7320 -0.7912 -1.0765
11889TIP3   OH257157   2.916   1.211   1.357 -0.2564 -0.4888  0.2260
11889TIP3    H157158   2.848   1.207   1.290 -0.8168 -0.5252  0.7964
11889TIP3    H257159   2.937   1.304   1.365 -1.8723 -0.1966  1.6639
11890TIP3   OH257160   5.204   3.674  16.535 -0.5216 -0.1781  0.7612
11890TIP3    H157161   5.215   3.599  16.593 -0.2226  0.7820  2.0057
11890TIP3    H257162   5.236   3.644  16.450 -1.6625 -1.8639  0.8589
11891TIP3   OH257163   4.241   1.253  16.192  0.6268  0.2316  0.2725
11891TIP3    H157164   4.174   1.285  16.133  0.1110 -1.6005 -0.2077
11891TIP3    H257165   4.246   1.318  16.262 -1.3629  0.6001  0.1021
11892TIP3   OH257166   3.470   3.653  12.461 -0.0626 -0.2637  0.0291
11892TIP3    H157167   3.484   3.741  12.425  0.6949 -0.4128 -0.0690
11892TIP3    H257168   3.553   3.631  12.502 -0.0641 -1.1512 -0.4139
11893TIP3   OH257169   0.420   1.198  16.379 -0.1510 -0.3501 -0.1289
11893TIP3    H157170   0.483   1.267  16.360 -1.5313  1.2213  0.7130
11893TIP3    H257171   0.360   1.199  16.304  0.0200 -0.8680 -0.2725
11894TIP3   OH257172   5.632   3.404  14.229  0.1319  0.1131  0.3866
11894TIP3    H157173   5.635   3.472  14.297  1.6672  1.1307 -0.6065
11894TIP3    H257174   5.715   3.357  14.239  1.3338  1.5254 -1.8844
11895TIP3   OH257175   3.435   5.396   4.930 -0.0740 -0.0530  0.0833
11895TIP3    H157176   3.463   5.434   4.846 -0.3024  0.8387  0.3993
11895TIP3    H257177   3.342   5.417   4.936 -0.0207  0.0395  0.6448
11896TIP3   OH257178   2.914   5.640  11.302 -0.0266 -0.0671  0.1773
11896TIP3    H157179   2.996   5.594  11.319  0.2804 -0.0599 -1.1677
11896TIP3    H257180   2.941   5.728  11.276 -0.5591  0.5104  1.4987
11897TIP3   OH257181   4.073   6.041   1.736  0.0264  0.0989  0.1898
11897TIP3    H157182   3.999   6.027   1.795  1.8214  1.7753  3.1092
11897TIP3    H257183   4.131   5.966   1.751  0.0150 -0.0080 -0.2826
11898TIP3   OH257184   0.535   0.023  10.315 -0.0741 -0.3331  0.5172
11898TIP3    H157185   0.590   0.101  10.313 -0.2433 -0.2180 -2.3701
11898TIP3    H257186   0.593  -0.048  10.287 -0.1494 -1.1476  2.2839
11899TIP3   OH257187   2.301   1.220   1.938 -0.3361  0.0976  0.1912
11899TIP3    H157188   2.376   1.163   1.956 -1.7280 -1.4858  1.2795
11899TIP3    H257189   2.269   1.192   1.853 -1.1294 -0.9421  0.8044
11900TIP3   OH257190   1.184   2.763  14.311  0.0895  0.0203 -0.3570
11900TIP3    H157191   1.220   2.678  14.286  2.3715  1.1496 -1.1879
11900TIP3    H257192   1.169   2.808  14.227 -2.5452 -0.0475 -0.0044
11901TIP3   OH257193   4.260   3.469  14.144  0.1797 -0.4197  0.1205
11901TIP3    H157194   4.200   3.542  14.158 -2.0301 -1.8151 -1.4972
11901TIP3    H257195   4.290   3.479  14.054  1.0325 -0.7288  0.3573
11902TIP3   OH257196   0.858   3.199  13.675 -0.2097 -0.0110 -0.1547
11902TIP3    H157197   0.797   3.250  13.623  0.7697  1.7889  0.3536
11902TIP3    H257198   0.912   3.265  13.720  0.7577 -1.5044  0.9860
11903TIP3   OH257199   3.546   2.041   4.353  0.2791  0.1128  0.4345
11903TIP3    H157200   3.592   2.028   4.436  1.9115  1.8893 -0.1073
11903TIP3    H257201   3.528   2.135   4.351  1.0467  0.2639 -1.5730
11904TIP3   OH257202   2.840   4.206   4.566 -0.0862 -0.0643  0.2996
11904TIP3    H157203   2.822   4.223   4.474  0.9422 -1.8440 -0.2745
11904TIP3    H257204   2.756   4.223   4.610 -0.5943  0.7910 -0.9412
11905TIP3   OH257205   0.064   2.953  16.964 -0.3047  0.3329  0.4607
11905TIP3    H157206   0.076   2.880  17.025  0.6391  0.7120  0.7547
11905TIP3    H257207   0.136   2.942  16.900  0.5090  1.5925  1.1281
11906TIP3   OH257208   5.473   5.285  13.342  0.5102  0.2091 -0.3745
11906TIP3    H157209   5.433   5.209  13.299  0.4112 -0.6919  1.2602
11906TIP3    H257210   5.423   5.297  13.423  0.6322  1.9362 -0.5088
11907TIP3   OH257211   3.436   4.024  13.511 -0.4668  0.0116 -0.7061
11907TIP3    H157212   3.462   4.094  13.570  0.1365 -0.3482 -0.5356
11907TIP3    H257213   3.480   3.946  13.544 -1.0880 -0.4458 -0.9219
11908TIP3   OH257214   2.112   0.664   3.631  0.3974  0.7611 -0.1975
11908TIP3    H157215   2.113   0.575   3.596 -0.0567  0.3682  0.7518
11908TIP3    H257216   2.023   0.694   3.618  0.5570  1.0880 -0.5407
11909TIP3   OH257217   2.251   3.747   5.139 -0.5350  0.3302  0.0751
11909TIP3    H157218   2.339   3.711   5.150 -1.3843 -2.6717 -1.9704
11909TIP3    H257219   2.248   3.776   5.048 -1.8586 -0.2728 -0.1015
11910TIP3   OH257220   1.955   3.756   3.614  1.3779  0.2794  0.5226
11910TIP3    H157221   2.011   3.699   3.666  1.7179  1.5089  1.5454
11910TIP3    H257222   1.966   3.843   3.653 -0.4061  0.7473  0.0731
11911TIP3   OH257223   4.037   2.374  11.641 -0.3569  0.0854  0.1219
11911TIP3    H157224   3.973   2.304  11.652 -0.2794 -0.0909 -0.5079
11911TIP3    H257225   4.094   2.366  11.718 -0.2640 -0.6360 -0.0125
11912TIP3   OH257226   6.358   3.892  10.992 -0.2166 -0.0715 -0.2640
11912TIP3    H157227   6.275   3.906  11.038  1.0862 -2.2392  3.0863
11912TIP3    H257228   6.423   3.940  11.043  1.0150 -0.7544 -1.1300
11913TIP3   OH257229   4.022   3.059   3.416 -0.0349 -0.2037  0.0282
11913TIP3    H157230   4.082   3.048   3.489 -1.2556  2.0468  1.4921
11913TIP3    H257231   3.998   2.970   3.390  2.0017 -1.0779  0.9959
11914TIP3   OH257232   1.657   0.698  10.832 -0.2259 -0.1062  0.2879
11914TIP3    H157233   1.687   0.701  10.741  1.1660 -0.8979  0.6972
11914TIP3    H257234   1.709   0.763  10.878 -1.2783  0.6523  0.4453
11915TIP3   OH257235   1.472   3.608   1.602  0.0096  0.9419 -0.5833
11915TIP3    H157236   1.439   3.690   1.638 -0.9323  0.6796 -0.8234
11915TIP3    H257237   1.454   3.543   1.670  2.0795  1.1530  0.2339
11916TIP3   OH257238   2.732   5.068  11.303 -0.0248  0.0965 -0.4884
11916TIP3    H157239   2.664   5.086  11.238 -0.6438 -0.0483  0.1138
11916TIP3    H257240   2.768   4.983  11.277 -3.2296 -2.2040  1.7522
11917TIP3   OH257241   5.995   1.822  13.075  0.5273  0.5061  0.1640
11917TIP3    H157242   5.924   1.775  13.031  0.0680  2.3632 -1.2337
11917TIP3    H257243   6.049   1.856  13.004 -0.9035  4.6675  0.7841
11918TIP3   OH257244   3.554   5.252  12.657  0.1621  0.1383 -0.0835
11918TIP3    H157245   3.499   5.330  12.662 -0.1707 -0.1170  0.3371
11918TIP3    H257246   3.493   5.179  12.665  0.5091 -0.1608 -0.1280
11919TIP3   OH257247   1.667   1.575  11.503 -0.1215  0.1276  0.3766
11919TIP3    H157248   1.596   1.513  11.489 -0.6412  0.9088 -0.5762
11919TIP3    H257249   1.702   1.554  11.589 -0.9337 -0.8358  0.4753
11920TIP3   OH257250   1.758   0.591  12.893 -0.1836 -0.2306 -0.1429
11920TIP3    H157251   1.702   0.652  12.845  0.5496  1.3959  1.0058
11920TIP3    H257252   1.757   0.622  12.983 -0.4756 -2.4636  0.6995
11921TIP3   OH257253   2.829   6.685  15.458  0.3730 -0.3278  0.6408
11921TIP3    H157254   2.738   6.695  15.485  0.5957 -0.7287  1.5874
11921TIP3    H257255   2.879   6.729  15.527  0.9792 -1.7495  1.1544
11922TIP3   OH257256   3.751   2.306   3.386 -0.5547 -0.0544  0.5189
11922TIP3    H157257   3.663   2.269   3.397 -1.6678  2.7550  2.0868
11922TIP3    H257258   3.782   2.321   3.475  1.3812 -0.5758 -0.0288
11923TIP3   OH257259   2.179   3.624  11.543  0.2053  0.0258  0.3024
11923TIP3    H157260   2.228   3.706  11.543  0.2586 -0.0042 -0.1588
11923TIP3    H257261   2.163   3.606  11.635 -1.2897  1.4442  0.3811
11924TIP3   OH257262   1.639   1.459   0.925  0.1701 -0.6360 -0.0613
11924TIP3    H157263   1.606   1.380   0.970  0.0651 -0.5918 -0.0595
11924TIP3    H257264   1.581   1.469   0.849  0.8503 -1.1706 -0.6621
11925TIP3   OH257265   4.318   3.027  13.297  0.4097 -0.1004 -0.3639
11925TIP3    H157266   4.382   3.037  13.227  1.0858 -1.3998  0.0284
11925TIP3    H257267   4.337   2.940  13.335 -0.2371  0.3617  1.1069
11926TIP3   OH257268   2.501   5.862  16.439  0.1887 -0.4451 -0.1566
11926TIP3    H157269   2.474   5.812  16.362 -0.5717  1.6067 -1.2863
11926TIP3    H257270   2.420   5.903  16.471  0.5815 -0.8449  1.4528
11927TIP3   OH257271   1.971   1.643  16.756 -0.1757  0.2823  0.3412
11927TIP3    H157272   2.000   1.586  16.685 -0.0542 -0.4860  0.9906
11927TIP3    H257273   1.979   1.589  16.835  0.4840  1.3831  1.0503
11928TIP3   OH257274   4.059   2.920  11.975 -0.2859 -0.4870 -0.0896
11928TIP3    H157275   3.991   2.854  11.956  1.7110 -2.1616 -1.9003
11928TIP3    H257276   4.113   2.923  11.896  2.7527 -0.5003  1.8249
11929TIP3   OH257277   3.352   3.160   4.892 -0.3259  0.5949  0.0262
11929TIP3    H157278   3.318   3.151   4.981 -0.5596  1.5954  0.0493
11929TIP3    H257279   3.315   3.086   4.845  2.6389 -2.1119  1.5616
11930TIP3   OH257280   6.453   6.375   1.370 -0.0928  0.1184  0.5219
11930TIP3    H157281   6.458   6.292   1.418 -0.5037  0.4635  1.1822
11930TIP3    H257282   6.500   6.437   1.426 -0.3212  0.4651  0.3284
11931TIP3   OH257283   2.656   0.496  11.296  0.3215  0.1401 -0.2569
11931TIP3    H157284   2.562   0.499  11.278  0.3425 -0.2453 -0.4400
11931TIP3    H257285   2.664   0.509  11.390  0.0280 -0.7144 -0.1097
11932TIP3   OH257286   4.545   5.342  15.341  0.3495 -0.8872 -0.3202
11932TIP3    H157287   4.505   5.332  15.254  0.2663 -0.9380 -0.2765
11932TIP3    H257288   4.576   5.254  15.362 -1.0576 -1.2343  0.3981
11933TIP3   OH257289   5.585   5.634   6.445 -0.0338 -0.0031  0.2687
11933TIP3    H157290   5.493   5.634   6.418 -0.2435  0.9298  0.9701
11933TIP3    H257291   5.595   5.713   6.497  1.3231  0.2197 -0.3038
11934TIP3   OH257292   1.552   4.012   1.708  0.5670  0.0466 -0.5376
11934TIP3    H157293   1.633   3.964   1.723 -1.1231 -2.1738  2.7601
11934TIP3    H257294   1.483   3.947   1.716 -1.6408  1.9018 -2.8513
11935TIP3   OH257295   0.524   6.820  16.168  0.0055 -0.5035  0.1847
11935TIP3    H157296   0.496   6.885  16.232 -1.9368 -0.9778 -0.1158
11935TIP3    H257297   0.486   6.849  16.086  0.8614 -0.9217 -0.3727
11936TIP3   OH257298   0.413   4.874  11.866  0.4052  0.2803 -0.5576
11936TIP3    H157299   0.426   4.779  11.870  1.8729  0.4791 -0.2799
11936TIP3    H257300   0.356   4.887  11.790  0.6539 -0.7771 -0.9448
11937TIP3   OH257301   0.047   5.935   3.003 -0.0455  0.4293 -0.7771
11937TIP3    H157302   0.127   5.892   3.032 -0.6314  0.4051  0.8775
11937TIP3    H257303   0.077   6.019   2.966  0.7084  0.5971  0.1910
11938TIP3   OH257304   3.470   4.964  15.051  0.6559 -1.1948  0.2827
11938TIP3    H157305   3.485   5.059  15.049  1.1209 -1.2560  0.7034
11938TIP3    H257306   3.507   4.936  15.134 -0.5465 -1.5732  0.7082
11939TIP3   OH257307   1.242   5.284  15.969  0.0109  0.1131  0.2687
11939TIP3    H157308   1.157   5.247  15.948  0.5341 -1.2277  0.4034
11939TIP3    H257309   1.223   5.372  16.003 -1.3674 -0.4116  0.9254
11940TIP3   OH257310   1.096   6.209  14.578 -0.5650 -0.1610  0.5358
11940TIP3    H157311   1.080   6.245  14.491 -1.7116  1.1824  1.2608
11940TIP3    H257312   1.027   6.143  14.589  0.6192 -1.5876 -0.1997
11941TIP3   OH257313   2.548   5.205  12.893  0.9695 -0.6470  0.3599
11941TIP3    H157314   2.570   5.298  12.895 -0.9446 -0.1677  1.8057
11941TIP3    H257315   2.631   5.160  12.910  1.6989  0.8402  0.8638
11942TIP3   OH257316   6.018   6.294  11.754  0.3481  0.3103  0.5189
11942TIP3    H157317   5.938   6.342  11.776  1.1890  1.4076  1.2242
11942TIP3    H257318   5.986   6.207  11.727 -0.9626 -0.1367  3.1727
11943TIP3   OH257319   3.658   0.939   1.082  0.3050  0.1538 -0.2942
11943TIP3    H157320   3.654   0.918   1.176 -0.6452 -1.3014 -0.6150
11943TIP3    H257321   3.599   1.013   1.072  0.0059 -0.0086  0.1881
11944TIP3   OH257322   4.104   4.002  11.579  0.5795  0.4405  0.0818
11944TIP3    H157323   4.041   4.038  11.518  0.2996  0.7150  0.5273
11944TIP3    H257324   4.169   4.071  11.591  1.6785 -0.2931 -1.3493
11945TIP3   OH257325   6.117   6.227   5.434 -0.6457  0.2385  0.1563
11945TIP3    H157326   6.080   6.187   5.355 -0.0304  0.6882 -0.3681
11945TIP3    H257327   6.075   6.180   5.506 -0.5786 -0.7628 -0.4385
11946TIP3   OH257328   1.208   5.954   2.577  0.1566 -0.4239  0.2601
11946TIP3    H157329   1.166   6.040   2.566 -0.2641 -0.5012  1.1724
11946TIP3    H257330   1.299   5.969   2.554 -0.1827 -0.0591 -0.9631
11947TIP3   OH257331   4.704   4.103   4.948  0.1750 -0.1125  0.0971
11947TIP3    H157332   4.651   4.172   4.989  2.0508 -0.1757  2.8935
11947TIP3    H257333   4.718   4.039   5.018  2.1202 -1.1356 -1.1509
11948TIP3   OH257334   3.042   1.137  14.644 -0.3781  0.0364 -0.3514
11948TIP3    H157335   2.961   1.096  14.674 -0.1089  0.5948  1.2404
11948TIP3    H257336   3.098   1.138  14.721  0.4232  1.4374 -0.9101
11949TIP3   OH257337   5.108   5.678  15.013 -0.2248  0.6214 -0.3711
11949TIP3    H157338   5.029   5.715  15.051 -0.7233 -1.2036  0.5025
11949TIP3    H257339   5.076   5.606  14.957  0.8013 -0.3974  0.3079
11950TIP3   OH257340   2.518   3.291  16.384 -0.4281 -0.5385  0.1255
11950TIP3    H157341   2.548   3.256  16.301  1.8846  1.1279  0.1496
11950TIP3    H257342   2.570   3.245  16.450 -0.5276 -0.1765  0.4635
11951TIP3   OH257343   5.399   5.908   4.117  0.7510  0.2325  0.1104
11951TIP3    H157344   5.454   5.929   4.192  1.2205 -3.0409  0.7871
11951TIP3    H257345   5.344   5.986   4.106  1.4017  1.2558  3.1285
11952TIP3   OH257346   4.344   1.963   1.430  0.0649 -0.0810  0.0775
11952TIP3    H157347   4.430   2.004   1.424  0.3040 -0.3559  1.2928
11952TIP3    H257348   4.298   1.992   1.351  0.5930  1.6455  0.3534
11953TIP3   OH257349   3.067   6.151  12.455  0.0127  0.1425  0.1913
11953TIP3    H157350   3.049   6.061  12.480  0.6900  0.0148  0.2260
11953TIP3    H257351   3.076   6.197  12.538 -0.7279  0.3254  0.1748
11954TIP3   OH257352   5.437   2.231   0.419 -0.6226 -0.2468 -0.2356
11954TIP3    H157353   5.450   2.141   0.388 -1.2738 -0.7669  0.9230
11954TIP3    H257354   5.380   2.271   0.354 -1.3564 -1.0712 -0.1231
11955TIP3   OH257355   5.037   4.696  14.117 -0.2394  0.3385  0.3218
11955TIP3    H157356   5.020   4.602  14.109  0.2356  0.1586  1.3152
11955TIP3    H257357   5.050   4.725  14.027 -1.1684 -0.3902 -0.0730
11956TIP3   OH257358   4.067   4.292  14.383  0.9802  0.1466 -0.1668
11956TIP3    H157359   4.162   4.300  14.393  0.8630  1.4420  0.1843
11956TIP3    H257360   4.048   4.330  14.297  0.8915 -1.2783 -0.8003
11957TIP3   OH257361   6.256   4.440   3.273 -0.2223 -0.1317 -0.1858
11957TIP3    H157362   6.164   4.419   3.281  0.1827 -2.8902 -1.5696
11957TIP3    H257363   6.290   4.438   3.362 -0.9990 -1.9654  0.1066
11958TIP3   OH257364   1.651   2.963   4.826  0.4173 -0.1716  0.0551
11958TIP3    H157365   1.660   3.051   4.863  1.0929  0.1640 -0.8766
11958TIP3    H257366   1.718   2.959   4.758  0.5356 -1.4895  0.2318
11959TIP3   OH257367   0.999   0.840   1.724  0.4157 -0.2302 -0.1499
11959TIP3    H157368   1.052   0.842   1.645  0.2272 -0.4189 -0.2827
11959TIP3    H257369   0.952   0.757   1.719  0.7797 -0.4786  0.4098
11960TIP3   OH257370   3.746   4.417   1.399 -0.1318  0.6786 -0.4952
11960TIP3    H157371   3.789   4.489   1.354  0.0895  2.8531  2.8215
11960TIP3    H257372   3.816   4.372   1.447 -0.4949 -0.8783 -1.3342
11961TIP3   OH257373   2.787   2.536  15.782  0.3286  0.3330  0.0551
11961TIP3    H157374   2.838   2.615  15.768 -0.0614  0.3735 -1.2049
11961TIP3    H257375   2.717   2.563  15.842  0.9091  0.6194  0.6258
11962TIP3   OH257376   5.030   4.196  13.143  0.0243 -0.1089  0.2023
11962TIP3    H157377   5.032   4.239  13.229  1.1045 -0.2059  0.2386
11962TIP3    H257378   5.098   4.129  13.148  1.4425  1.1258 -1.3640
11963TIP3   OH257379   0.248   6.069  17.062 -0.5436  0.1210  1.0771
11963TIP3    H157380   0.182   6.053  17.130 -0.9320 -0.0282  0.6665
11963TIP3    H257381   0.286   6.153  17.086 -0.4964 -0.0523  1.6283
11964TIP3   OH257382   5.555   5.408   1.980  0.5517  0.4770 -0.2710
11964TIP3    H157383   5.557   5.340   1.913  1.5890  0.1576  0.0681
11964TIP3    H257384   5.520   5.364   2.058 -0.0027  0.6764 -0.3971
11965TIP3   OH257385   5.649   5.193  15.531  0.3028 -0.5167 -0.5328
11965TIP3    H157386   5.728   5.139  15.535 -0.0175 -0.9881 -0.5906
11965TIP3    H257387   5.635   5.209  15.438 -0.9271 -2.2929 -0.6829
11966TIP3   OH257388   0.222   6.225  15.167 -0.1766  0.1369 -0.1028
11966TIP3    H157389   0.170   6.304  15.153  0.5287  1.0176  1.9792
11966TIP3    H257390   0.297   6.234  15.108  0.0323  1.1536  0.3062
11967TIP3   OH257391   1.825   5.176   0.072  0.2894 -0.5100 -0.0493
11967TIP3    H157392   1.919   5.180   0.086  0.1102  2.2235  1.1235
11967TIP3    H257393   1.806   5.248   0.011 -1.1724  0.2761  1.2291
11968TIP3   OH257394   6.771   5.593  12.382  0.3568 -0.2930  0.0717
11968TIP3    H157395   6.755   5.641  12.301  0.9147 -1.5545 -0.8243
11968TIP3    H257396   6.712   5.517  12.378 -0.0862 -0.0318  1.1691
11969TIP3   OH257397   5.581   4.540  12.998  0.2132  0.1681  0.2709
11969TIP3    H157398   5.590   4.622  12.950  0.7028  0.1564  0.3383
11969TIP3    H257399   5.503   4.499  12.960  0.4818  0.2487 -0.3879
11970TIP3   OH257400   5.309   5.599  16.760 -0.5483  0.0032 -0.2150
11970TIP3    H157401   5.291   5.530  16.824  0.1541  0.9169  1.0045
11970TIP3    H257402   5.400   5.623  16.776 -0.1251 -0.2326 -2.0686
11971TIP3   OH257403   2.236   5.434   3.920  0.2986  0.2839  0.1504
11971TIP3    H157404   2.298   5.438   3.992  0.4030  0.4549  0.0508
11971TIP3    H257405   2.153   5.462   3.958  0.6041  1.5572 -0.0735
11972TIP3   OH257406   4.674   2.223   2.135 -0.5659  0.0246 -0.6526
11972TIP3    H157407   4.704   2.210   2.045 -0.2058  0.4268 -0.5918
11972TIP3    H257408   4.724   2.159   2.186 -1.3121 -0.7292 -0.8303
11973TIP3   OH257409   0.069   1.234  16.662 -0.3390 -0.0532 -0.0764
11973TIP3    H157410   0.084   1.207  16.752  0.6673 -0.5267 -0.3606
11973TIP3    H257411   0.024   1.319  16.669  0.9672  0.6001  0.8953
11974TIP3   OH257412   4.852   3.967   2.227 -0.2057  0.1425 -0.3075
11974TIP3    H157413   4.773   4.011   2.259 -0.5910 -0.8322  0.1081
11974TIP3    H257414   4.916   3.979   2.297 -0.6627 -0.9201  0.3030
11975TIP3   OH257415   5.257   3.535  13.579  0.4887 -0.1592  0.1239
11975TIP3    H157416   5.213   3.516  13.496  1.7357 -1.8654 -0.2109
11975TIP3    H257417   5.187   3.558  13.639 -0.7011 -1.1958 -0.8162
11976TIP3   OH257418   3.371   4.782   3.037  0.7922 -0.5414  0.1598
11976TIP3    H157419   3.367   4.733   3.119  0.6008 -0.0159  0.4646
11976TIP3    H257420   3.341   4.719   2.970  0.4197 -0.7978  0.5645
11977TIP3   OH257421   0.360   6.586   4.503 -0.2630 -0.5543 -0.2290
11977TIP3    H157422   0.269   6.615   4.495  0.2316  1.1670 -0.0594
11977TIP3    H257423   0.368   6.560   4.595 -0.1476  0.9708  0.2123
11978TIP3   OH257424   1.181   2.516   4.389 -0.4507 -0.3941  0.7186
11978TIP3    H157425   1.271   2.523   4.356 -1.3816 -0.2401 -2.0155
11978TIP3    H257426   1.188   2.542   4.481  2.3978 -1.1225  0.8095
11979TIP3   OH257427   3.066   5.223   3.276 -0.5831 -0.2172 -0.4160
11979TIP3    H157428   3.107   5.214   3.362 -0.6664  1.8995 -0.1089
11979TIP3    H257429   2.972   5.222   3.294 -0.6287 -1.3785 -0.6852
11980TIP3   OH257430   6.553   2.862   4.448 -0.0678 -0.3194  0.1066
11980TIP3    H157431   6.534   2.910   4.367  0.4343 -0.9392 -0.3859
11980TIP3    H257432   6.616   2.917   4.494  0.0417 -0.2130 -0.1677
11981TIP3   OH257433   0.758   6.794  11.382 -0.5842 -0.0010 -0.2734
11981TIP3    H157434   0.846   6.824  11.402 -0.3008 -0.7356 -0.3944
11981TIP3    H257435   0.710   6.801  11.465 -1.2127  3.0025 -0.7813
11982TIP3   OH257436   2.614   4.647   0.756 -0.0337 -0.1193  0.1447
11982TIP3    H157437   2.548   4.647   0.825  0.9289 -1.1071  1.1094
11982TIP3    H257438   2.687   4.698   0.793  0.5452 -0.7697 -0.0850
11983TIP3   OH257439   2.048   5.750   1.550  0.0168 -0.1468  0.6179
11983TIP3    H157440   2.055   5.692   1.625 -1.4413 -2.3706 -0.8346
11983TIP3    H257441   2.126   5.731   1.497 -1.1372 -1.9313 -0.5374
11984TIP3   OH257442   1.105   2.951   2.922  0.7232  0.2552  0.7647
11984TIP3    H157443   1.141   2.979   3.006  0.9403 -3.4161  2.0723
11984TIP3    H257444   1.017   2.919   2.943  0.2091  0.6272 -0.7014
11985TIP3   OH257445   5.921   4.006   4.592 -0.1330  0.4952 -0.3512
11985TIP3    H157446   5.900   4.061   4.667  0.1021  0.8523 -0.5480
11985TIP3    H257447   5.970   4.062   4.532 -1.2475  0.5348 -1.2739
11986TIP3   OH257448   6.603   3.763  14.189  0.0457  0.6052 -0.3211
11986TIP3    H157449   6.559   3.835  14.143 -0.5187 -0.5901 -1.7167
11986TIP3    H257450   6.551   3.686  14.169  1.0226 -0.3299  0.6019
11987TIP3   OH257451   6.701   3.804   2.837 -0.5028  1.1224  0.4029
11987TIP3    H157452   6.776   3.780   2.783 -1.0010 -1.7608  0.8278
11987TIP3    H257453   6.737   3.808   2.926 -1.1009 -2.6455  0.9788
11988TIP3   OH257454   2.834   0.126  12.940  0.3504  0.6080 -0.2609
11988TIP3    H157455   2.789   0.202  12.905  1.0411  1.8488  1.3961
11988TIP3    H257456   2.868   0.080  12.863  0.7360  2.4975 -1.2716
11989TIP3   OH257457   0.004   1.620   6.234  0.3190  0.1745 -0.2265
11989TIP3    H157458  -0.073   1.575   6.199  0.5195 -1.0474  0.8166
11989TIP3    H257459  -0.018   1.635   6.326  1.6686 -1.0676  0.3346
11990TIP3   OH257460   1.511   0.694   4.202  0.3840 -0.1793 -0.3351
11990TIP3    H157461   1.577   0.639   4.161  1.1902  0.6165 -0.1166
11990TIP3    H257462   1.524   0.681   4.296  0.5980  0.4074 -0.2818
11991TIP3   OH257463   0.900   3.575  13.132  0.0294  0.1629 -0.0161
11991TIP3    H157464   0.816   3.535  13.154 -0.4295 -0.2561 -2.3109
11991TIP3    H257465   0.959   3.547  13.203 -1.8662  1.0317  2.0036
11992TIP3   OH257466   1.297   0.017   3.716  0.5837 -0.3352  0.0616
11992TIP3    H157467   1.207  -0.004   3.691  0.7409 -0.8555 -0.0826
11992TIP3    H257468   1.299   0.113   3.721 -0.0671 -0.3363  0.4237
11993TIP3   OH257469   4.992   6.724   2.799 -0.0748  0.4652 -0.1054
11993TIP3    H157470   5.005   6.800   2.742  2.2580 -0.1017 -0.4115
11993TIP3    H257471   5.057   6.661   2.770 -1.5674 -1.4499  0.5374
11994TIP3   OH257472   0.053   1.379   3.291  0.1340  0.0662 -0.1481
11994TIP3    H157473   0.101   1.459   3.309  1.1565 -0.5160 -0.2364
11994TIP3    H257474   0.105   1.333   3.225  0.1018 -1.1543  0.6502
11995TIP3   OH257475   4.092   1.680   0.951  0.8707  0.0149 -0.2320
11995TIP3    H157476   4.036   1.625   0.897  0.1423  0.3775  0.1437
11995TIP3    H257477   4.074   1.652   1.041 -0.6188  1.8221  0.0931
11996TIP3   OH257478   0.507   6.155  13.541  0.3333 -0.5274  0.0862
11996TIP3    H157479   0.574   6.089  13.526  1.5928  0.9641 -1.2057
11996TIP3    H257480   0.479   6.141  13.632  2.6046 -1.0522  0.7610
11997TIP3   OH257481   0.069   4.191   1.586 -0.1727 -0.1892  0.5843
11997TIP3    H157482   0.059   4.098   1.609 -0.5296 -0.3426 -0.1632
11997TIP3    H257483   0.000   4.207   1.521  0.3056  0.4331  0.2234
11998TIP3   OH257484   0.503   0.889  16.699 -0.8251  0.1977 -0.2693
11998TIP3    H157485   0.559   0.954  16.657 -2.0298  1.3842 -0.0962
11998TIP3    H257486   0.552   0.862  16.777 -0.2861  0.8483 -0.3780
11999TIP3   OH257487   1.407   2.248   1.462 -0.6425  0.2288 -0.0060
11999TIP3    H157488   1.403   2.169   1.516 -1.7599  0.1490 -0.1978
11999TIP3    H257489   1.496   2.247   1.426  0.3526  0.5544  2.2237
12000TIP3   OH257490   4.764   3.946  12.006 -0.9464 -0.1410  0.2033
12000TIP3    H157491   4.722   3.949  12.092 -2.6388 -0.9401 -0.5460
12000TIP3    H257492   4.810   4.030  11.999 -0.4351 -0.2219  2.0207
12001TIP3   OH257493   1.860   4.943   0.779 -0.6680  0.3409 -0.3129
12001TIP3    H157494   1.853   4.991   0.696  1.8923 -0.6522 -1.2355
12001TIP3    H257495   1.937   4.981   0.822 -0.3363 -0.9428  0.3000
12002TIP3   OH257496   1.043   0.152  16.769  0.4567  0.4348  0.4304
12002TIP3    H157497   1.062   0.138  16.862 -0.3893 -0.8082  0.4333
12002TIP3    H257498   1.083   0.076  16.725 -1.1773 -0.2382  0.0502
12003TIP3   OH257499   0.351   0.276   3.472 -0.2591 -0.2575  0.2760
12003TIP3    H157500   0.376   0.359   3.433  0.8219 -0.5730  0.2629
12003TIP3    H257501   0.256   0.278   3.475 -0.2506  0.8634  0.0291
12004TIP3   OH257502   1.210   5.906  12.687 -0.2554  0.1193 -0.4496
12004TIP3    H157503   1.147   5.888  12.617  0.1066 -0.9609 -0.5212
12004TIP3    H257504   1.255   5.985  12.659 -1.0674  0.4836 -0.7620
12005TIP3   OH257505   2.583   5.838   2.246  0.2463 -0.2601 -0.4036
12005TIP3    H157506   2.556   5.917   2.293 -1.1155 -1.1030  0.3029
12005TIP3    H257507   2.501   5.801   2.213  0.9112 -1.1593 -1.0771
12006TIP3   OH257508   6.614   2.370   0.827  0.5210 -0.2159  0.2979
12006TIP3    H157509   6.614   2.456   0.784 -0.6541 -0.2740  0.1530
12006TIP3    H257510   6.696   2.330   0.801 -0.1106 -0.2082 -1.8446
12007TIP3   OH257511   6.346   1.141  13.560 -0.1306  0.4068  0.2869
12007TIP3    H157512   6.272   1.153  13.619 -0.5597 -0.7542 -0.0038
12007TIP3    H257513   6.410   1.091  13.610 -0.1842  0.0641  0.0135
12008TIP3   OH257514   2.289   5.643   4.986 -0.6536  0.4437 -0.3920
12008TIP3    H157515   2.237   5.584   5.041  0.6960  0.3599  0.8495
12008TIP3    H257516   2.379   5.633   5.018  0.0963  0.8615 -2.2279
12009TIP3   OH257517   5.812   4.736  12.463 -0.6641  0.4251  0.0569
12009TIP3    H157518   5.828   4.693  12.547  2.2563  2.2264  0.5654
12009TIP3    H257519   5.763   4.815  12.485  1.5830  1.8101  0.4453
12010TIP3   OH257520   0.980   0.585   2.736  0.0336  0.0220  0.1603
12010TIP3    H157521   1.002   0.678   2.741 -3.7806  1.2975 -2.1285
12010TIP3    H257522   1.034   0.551   2.665  1.5316  0.3705  1.0764
12011TIP3   OH257523   4.180   5.381   4.247  0.3010  0.8740 -0.6083
12011TIP3    H157524   4.087   5.397   4.266 -0.1237 -0.0569 -1.7622
12011TIP3    H257525   4.226   5.411   4.326 -1.1337 -0.5508  0.8578
12012TIP3   OH257526   3.837   2.822   4.887  0.4748 -0.6308  0.3410
12012TIP3    H157527   3.784   2.900   4.871  0.5086 -0.2094  2.0683
12012TIP3    H257528   3.777   2.749   4.874 -0.0597 -0.2273  0.5099
12013TIP3   OH257529   5.987   2.050   0.409 -0.3373 -0.9065  0.5618
12013TIP3    H157530   5.985   2.050   0.314 -0.4688  0.3495  0.5447
12013TIP3    H257531   6.079   2.036   0.431 -0.1451 -0.2461  0.2179
12014TIP3   OH257532   5.253   3.144  14.637 -0.4588 -0.0696 -0.2309
12014TIP3    H157533   5.251   3.163  14.543 -0.9050 -0.4736 -0.3076
12014TIP3    H257534   5.258   3.230  14.679 -1.3404  0.1713 -0.6009
12015TIP3   OH257535   1.886   3.027  15.753  0.6187 -0.6284 -0.3168
12015TIP3    H157536   1.793   3.018  15.772  0.8245  0.3550  1.3678
12015TIP3    H257537   1.927   2.953  15.798  0.7645 -0.3378  0.0336
12016TIP3   OH257538   1.720   1.703  11.032 -0.4642 -0.3438  0.3446
12016TIP3    H157539   1.624   1.707  11.024 -0.6099 -0.8640  1.6091
12016TIP3    H257540   1.742   1.779  11.086 -0.2455 -0.6364  0.6676
12017TIP3   OH257541   6.013   6.799   4.990  0.8217 -0.3111  0.1492
12017TIP3    H157542   5.961   6.864   4.943  1.2011 -0.2004 -0.1239
12017TIP3    H257543   5.979   6.800   5.079  0.3123 -0.2898 -0.0449
12018TIP3   OH257544   3.349   0.295   5.589 -0.4535 -0.3375 -1.2356
12018TIP3    H157545   3.384   0.264   5.505  1.1445 -1.7153 -0.1167
12018TIP3    H257546   3.376   0.229   5.653  1.5336  2.3791  0.9976
12019TIP3   OH257547   2.407   2.723  15.184 -0.1879  0.3006  0.1849
12019TIP3    H157548   2.426   2.815  15.166 -2.6094  1.3466  2.3681
12019TIP3    H257549   2.493   2.685  15.204  0.9087  1.9768 -1.0909
12020TIP3   OH257550   6.276   3.067   5.392 -0.4462  0.1219  0.0788
12020TIP3    H157551   6.224   3.029   5.463  0.2342 -1.1188 -0.0512
12020TIP3    H257552   6.257   3.011   5.317  0.1264  0.3959 -0.2768
12021TIP3   OH257553   5.743   5.394  16.360  0.3445 -0.6860  0.1040
12021TIP3    H157554   5.811   5.462  16.367 -0.2752 -0.1852  1.8548
12021TIP3    H257555   5.733   5.361  16.450  0.9536 -3.4739 -0.7549
12022TIP3   OH257556   5.271   3.928   1.247  0.3408  0.1210  0.4089
12022TIP3    H157557   5.176   3.913   1.247  0.2478  0.1152  3.4626
12022TIP3    H257558   5.292   3.943   1.155 -3.1019  3.0381 -0.1658
12023TIP3   OH257559   0.562   3.563   3.844  0.4006 -0.0024 -0.1959
12023TIP3    H157560   0.540   3.586   3.934  2.2489  0.1774  0.2471
12023TIP3    H257561   0.529   3.473   3.834 -0.5488  0.2615  0.3674
12024TIP3   OH257562   1.600   4.034   1.009 -0.1634  0.7161 -0.1082
12024TIP3    H157563   1.568   4.093   1.077 -2.7313 -1.1453  0.4595
12024TIP3    H257564   1.601   3.948   1.050  0.9494 -0.0624 -1.6446
12025TIP3   OH257565   5.798   4.545  13.621 -0.0080  0.4524 -0.1862
12025TIP3    H157566   5.762   4.481  13.560 -0.9997  0.2617  0.5739
12025TIP3    H257567   5.892   4.530  13.619 -0.3162 -2.5740  1.5975
12026TIP3   OH257568   6.745   1.757  16.270  0.2753 -0.1099 -0.2910
12026TIP3    H157569   6.817   1.696  16.249  0.1042 -0.4742  0.1504
12026TIP3    H257570   6.779   1.810  16.342  0.7017  0.8441 -1.1664
12027TIP3   OH257571   6.825   0.221  14.272 -0.2175  0.6853 -0.5826
12027TIP3    H157572   6.740   0.183  14.250  0.7866 -1.5264 -0.8322
12027TIP3    H257573   6.809   0.266  14.355 -1.6682  0.4622 -0.7049
12028TIP3   OH257574   5.504   1.578  10.743  0.2990  0.5173  0.5928
12028TIP3    H157575   5.419   1.544  10.771  1.0564 -1.0977  1.0659
12028TIP3    H257576   5.501   1.671  10.764 -0.9798  0.2900  1.5346
12029TIP3   OH257577   4.795   1.154   1.674  0.3296  0.0804 -0.0981
12029TIP3    H157578   4.744   1.225   1.634 -0.1739 -0.3380 -0.2077
12029TIP3    H257579   4.828   1.104   1.600  1.2475  0.5798 -0.0398
12030TIP3   OH257580   4.300   4.166   5.560 -0.1210 -0.2833  0.3864
12030TIP3    H157581   4.280   4.259   5.569 -1.2936 -0.6506  2.0108
12030TIP3    H257582   4.220   4.128   5.522 -0.0846 -0.7903  0.8063
12031TIP3   OH257583   2.610   4.440  15.423 -0.1688 -0.7742 -0.7921
12031TIP3    H157584   2.693   4.454  15.377  0.1914 -1.6429 -0.4198
12031TIP3    H257585   2.549   4.414  15.354 -0.6338  1.6068 -1.3724
12032TIP3   OH257586   2.118   4.597   1.547 -0.0786  0.3750 -0.5285
12032TIP3    H157587   2.066   4.678   1.553 -0.5040  0.2237 -1.9826
12032TIP3    H257588   2.056   4.527   1.569 -0.2261  0.2839 -1.2226
12033TIP3   OH257589   5.425   1.721  13.774 -0.0361 -0.2065  0.1739
12033TIP3    H157590   5.379   1.751  13.852  0.9832  1.1958  0.2875
12033TIP3    H257591   5.461   1.801  13.736  0.5659 -1.0179 -1.0347
12034TIP3   OH257592   3.922   2.894  12.287 -0.0766 -0.0620 -0.1244
12034TIP3    H157593   3.988   2.952  12.324  0.4773 -0.4743 -0.4539
12034TIP3    H257594   3.971   2.835  12.230 -0.3529 -1.9432  1.4482
12035TIP3   OH257595   6.399   1.223   1.967 -0.0430 -0.1467  0.1298
12035TIP3    H157596   6.471   1.170   2.000 -0.8799 -0.7958  0.9532
12035TIP3    H257597   6.375   1.280   2.039  1.0755  1.6741 -0.8531
12036TIP3   OH257598   5.039   6.663  12.423  0.2383  0.2452  0.2673
12036TIP3    H157599   5.101   6.618  12.480 -1.2707  2.0667  3.6292
12036TIP3    H257600   4.959   6.610  12.428  1.0656 -1.6998 -3.4673
12037TIP3   OH257601   4.601   0.710  13.309  0.0004 -0.1481 -0.3311
12037TIP3    H157602   4.581   0.728  13.217 -0.7242 -0.1028 -0.1737
12037TIP3    H257603   4.573   0.619  13.321 -2.7879  0.7205  0.5839
12038TIP3   OH257604   3.742   2.641  14.195 -0.0984  0.4136  0.4733
12038TIP3    H157605   3.810   2.708  14.184 -0.2313  0.6411  1.0441
12038TIP3    H257606   3.666   2.677  14.151  0.1004  0.2209 -0.0428
12039TIP3   OH257607   0.291   0.537  14.424 -0.4427 -0.0303  0.2949
12039TIP3    H157608   0.244   0.530  14.341 -1.7658 -0.2768  1.0455
12039TIP3    H257609   0.254   0.615  14.466 -0.9402 -0.8209  1.3614
12040TIP3   OH257610   2.784   0.833  15.946 -0.1800  0.2076 -0.1185
12040TIP3    H157611   2.700   0.804  15.910  1.3241 -1.3469 -2.6509
12040TIP3    H257612   2.847   0.819  15.875  2.3290  0.9088  1.8192
12041TIP3   OH257613   1.159   5.057   0.400  0.2510  0.4361  0.2770
12041TIP3    H157614   1.210   5.054   0.480  0.7764 -1.4478 -0.0904
12041TIP3    H257615   1.224   5.067   0.330 -0.0631  0.3826 -0.0284
12042TIP3   OH257616   2.737   4.107  15.562 -0.2019  0.2224  0.5667
12042TIP3    H157617   2.769   4.157  15.487  0.3745 -1.0659 -0.0775
12042TIP3    H257618   2.806   4.117  15.628  0.5297 -0.7523 -0.0263
12043TIP3   OH257619   4.308   6.451   1.771 -0.1187 -0.2302 -0.2165
12043TIP3    H157620   4.303   6.408   1.685 -3.9913 -1.0466  0.2229
12043TIP3    H257621   4.325   6.543   1.750 -0.0924 -0.5638 -1.8198
12044TIP3   OH257622   6.651   5.616   4.113  0.2980 -0.4202 -0.2849
12044TIP3    H157623   6.638   5.592   4.022 -0.2115  0.7274 -0.5271
12044TIP3    H257624   6.735   5.576   4.137 -0.2835 -2.0233 -0.7810
12045TIP3   OH257625   0.667   5.620  13.990 -0.2512 -0.1195  0.1615
12045TIP3    H157626   0.607   5.567  14.043 -1.3760  0.6181 -0.3304
12045TIP3    H257627   0.663   5.707  14.028 -0.9196  0.3743 -0.9704
12046TIP3   OH257628   3.796   6.348   2.160  0.7570  0.0372 -0.4255
12046TIP3    H157629   3.798   6.306   2.245  1.3276 -0.5181 -0.7048
12046TIP3    H257630   3.776   6.277   2.099 -0.6976  0.6120 -0.6556
12047TIP3   OH257631   5.010   6.504   3.361 -0.7870  0.0041 -0.1190
12047TIP3    H157632   4.975   6.552   3.286  0.4048  0.7464 -0.2237
12047TIP3    H257633   5.043   6.572   3.420  2.5206 -0.6226 -1.0431
12048TIP3   OH257634   1.429   2.543  15.708 -0.0650 -0.2819 -0.5565
12048TIP3    H157635   1.388   2.620  15.747 -0.1580 -1.3564  1.6076
12048TIP3    H257636   1.362   2.507  15.650 -1.2338 -0.4943  0.8683
12049TIP3   OH257637   5.878   6.406  13.351 -0.0496 -0.2941 -0.0829
12049TIP3    H157638   5.830   6.334  13.310 -2.0936  1.2111 -0.4956
12049TIP3    H257639   5.896   6.376  13.440 -0.2288 -1.5753 -0.4689
12050TIP3   OH257640   3.206   3.202   3.528  0.4746  0.9356 -0.0411
12050TIP3    H157641   3.149   3.202   3.605 -0.1405 -0.1459 -0.4874
12050TIP3    H257642   3.147   3.190   3.454  1.0719  1.8925 -0.6935
12051TIP3   OH257643   4.617   1.422  13.424 -0.2066  0.0321 -0.1468
12051TIP3    H157644   4.568   1.449  13.346 -1.8119  0.1357  0.8381
12051TIP3    H257645   4.669   1.499  13.448 -1.4657  0.8154  0.1788
12052TIP3   OH257646   3.739   1.121  16.905  0.5465 -0.4488 -0.4943
12052TIP3    H157647   3.743   1.121  17.001  1.0864  0.0380 -0.5166
12052TIP3    H257648   3.687   1.043  16.884  0.5261 -0.6279  0.1884
12053TIP3   OH257649   0.292   5.106  13.908  0.7808 -0.3172 -0.7734
12053TIP3    H157650   0.199   5.124  13.891  0.5918 -0.5871 -0.0593
12053TIP3    H257651   0.291   5.028  13.963  1.5428 -2.0727 -3.1000
12054TIP3   OH257652   0.632   4.662  12.556 -0.1878 -0.8359 -0.2763
12054TIP3    H157653   0.555   4.604  12.557 -0.1714 -0.8751 -1.0669
12054TIP3    H257654   0.695   4.616  12.501  0.0281 -0.3145 -0.4610
12055TIP3   OH257655   0.507   0.920  13.388 -0.3129  0.0780  0.0932
12055TIP3    H157656   0.436   0.985  13.389 -0.4451 -0.0501 -0.7004
12055TIP3    H257657   0.475   0.850  13.332 -0.5822 -1.1662  1.7039
12056TIP3   OH257658   5.164   4.365   1.809  0.2165 -0.7467 -0.2082
12056TIP3    H157659   5.092   4.398   1.755 -0.3228 -1.6681 -0.0857
12056TIP3    H257660   5.127   4.362   1.898  0.3572 -1.3329 -0.1632
12057TIP3   OH257661   3.080   4.398  12.051  0.1062 -0.0060  0.2857
12057TIP3    H157662   3.113   4.322  12.002 -0.9875  0.1137 -0.6828
12057TIP3    H257663   3.142   4.409  12.123  2.4156  0.4617 -1.6703
12058TIP3   OH257664   3.172   4.710   3.824 -0.0222 -0.3657 -0.1378
12058TIP3    H157665   3.109   4.754   3.767  0.5248 -1.5316 -1.6929
12058TIP3    H257666   3.156   4.617   3.811  3.2473 -0.7823 -2.1230
12059TIP3   OH257667   3.578   2.738   1.177  0.4106 -0.2764  0.4484
12059TIP3    H157668   3.609   2.690   1.101 -0.6724 -0.8473  0.3519
12059TIP3    H257669   3.631   2.818   1.178 -0.5433  0.4619 -1.7777
12060TIP3   OH257670   5.667   4.954   1.616  0.3309 -0.2557  0.4627
12060TIP3    H157671   5.669   4.929   1.708 -0.8031  1.3243  0.9495
12060TIP3    H257672   5.755   4.987   1.598  0.3171  0.2265  1.2315
12061TIP3   OH257673   1.106   6.523  14.374 -0.6873  0.1587  0.4142
12061TIP3    H157674   1.034   6.502  14.314 -1.8758  1.0888  1.4697
12061TIP3    H257675   1.063   6.547  14.456  0.8826 -0.5169  1.4907
12062TIP3   OH257676   2.504   4.816  12.297  0.0148 -0.0746 -0.3806
12062TIP3    H157677   2.429   4.868  12.326 -0.7223 -1.8345  1.0253
12062TIP3    H257678   2.488   4.729  12.332  0.6814 -1.5887 -3.5060
12063TIP3   OH257679   4.774   0.207  11.650  0.1943 -0.2129  0.0031
12063TIP3    H157680   4.808   0.224  11.563 -1.1813  0.2711 -0.4657
12063TIP3    H257681   4.695   0.154  11.635 -0.4922  0.5187  0.8849
12064TIP3   OH257682   6.471   3.195  12.409 -0.2842  0.4420 -0.6623
12064TIP3    H157683   6.561   3.225  12.397 -0.0669 -0.3790 -1.1281
12064TIP3    H257684   6.429   3.210  12.324 -0.8496  1.6331 -0.2058
12065TIP3   OH257685   0.330   4.268  14.863 -0.7640 -0.0338 -0.1744
12065TIP3    H157686   0.313   4.276  14.769 -0.1601  1.1058 -0.2004
12065TIP3    H257687   0.405   4.325  14.879 -1.3463  0.3975  1.1364
12066TIP3   OH257688   3.316   2.950  15.635  0.8680  0.4508  0.2003
12066TIP3    H157689   3.228   2.939  15.599  1.5789  0.8823 -1.8005
12066TIP3    H257690   3.308   2.923  15.727 -0.6671 -2.6149 -0.6923
12067TIP3   OH257691   3.260   4.065  13.745 -0.6089 -0.1969  0.3721
12067TIP3    H157692   3.286   3.973  13.734 -1.0636 -0.2319 -0.5154
12067TIP3    H257693   3.274   4.083  13.838 -1.8892 -1.6088  0.8843
12068TIP3   OH257694   1.023   0.261  11.656  0.0784 -0.3897  0.2173
12068TIP3    H157695   0.958   0.310  11.605  1.4784  1.5027  0.1744
12068TIP3    H257696   1.066   0.327  11.710 -0.2315 -2.0825  2.7258
12069TIP3   OH257697   3.055   5.853  16.037  0.1013 -0.3494 -0.1631
12069TIP3    H157698   3.110   5.927  16.009 -1.8299  1.8566  1.4367
12069TIP3    H257699   3.042   5.801  15.958 -0.2039  2.2512 -1.9390
12070TIP3   OH257700   4.147   6.083   4.354 -0.2276  0.1248  0.4672
12070TIP3    H157701   4.055   6.067   4.332  0.0929 -1.2668  0.0486
12070TIP3    H257702   4.166   6.168   4.314 -0.6497 -0.7424 -1.7209
12071TIP3   OH257703   4.697   4.319   4.717  0.1589  0.1148  0.2193
12071TIP3    H157704   4.678   4.397   4.665  4.0508  0.4559 -0.9680
12071TIP3    H257705   4.659   4.337   4.803 -0.7104  2.4169 -0.5787
12072TIP3   OH257706   0.616   6.294   3.560 -0.3814 -0.1918 -0.3224
12072TIP3    H157707   0.573   6.380   3.568 -0.9780 -0.5188  0.0561
12072TIP3    H257708   0.698   6.304   3.608 -0.1604  0.3473 -0.7941
12073TIP3   OH257709   2.873   5.588  13.422  0.4454  0.1528  0.6787
12073TIP3    H157710   2.915   5.599  13.508  0.3504 -1.9457  1.0480
12073TIP3    H257711   2.945   5.580  13.361  0.5476 -0.3017  0.8560
12074TIP3   OH257712   4.731   6.295   5.174 -0.3138 -0.5613 -0.2628
12074TIP3    H157713   4.751   6.202   5.163 -0.9293 -0.6615 -0.5747
12074TIP3    H257714   4.657   6.296   5.234  1.5771 -0.1258  2.2341
12075TIP3   OH257715   3.623   1.618  12.487  0.0552  0.6500 -0.0858
12075TIP3    H157716   3.538   1.588  12.518 -0.1101  1.1048 -0.0980
12075TIP3    H257717   3.678   1.539  12.486 -0.4003  0.3354 -0.2009
12076TIP3   OH257718   0.278   0.276   6.749 -0.0273  0.6233  0.0151
12076TIP3    H157719   0.206   0.285   6.686  0.1071  0.6829 -0.1307
12076TIP3    H257720   0.280   0.183   6.771  1.0470  0.2781 -1.3984
12077TIP3   OH257721   4.919   1.985   4.335 -0.4078  0.0893 -0.4670
12077TIP3    H157722   4.908   1.933   4.255  0.8455  0.6321 -1.0282
12077TIP3    H257723   4.919   1.921   4.405 -1.3867 -0.4145 -0.9094
12078TIP3   OH257724   6.484   1.273   3.217  0.4646  0.3034  0.4805
12078TIP3    H157725   6.405   1.233   3.183 -0.2864 -0.0792  2.5332
12078TIP3    H257726   6.490   1.357   3.172 -1.7637  0.8471  1.1048
12079TIP3   OH257727   6.754   4.262   5.173 -0.1558  0.2925 -0.0957
12079TIP3    H157728   6.812   4.186   5.167  1.0849  1.3051 -3.3668
12079TIP3    H257729   6.772   4.301   5.258  1.5231 -1.2928  0.3277
12080TIP3   OH257730   2.841   0.618  15.022 -0.2692  0.4002  0.2683
12080TIP3    H157731   2.752   0.594  15.045 -1.1838  0.8925 -2.4436
12080TIP3    H257732   2.867   0.556  14.954  0.3793  1.9165 -0.9467
12081TIP3   OH257733   3.831   6.843   3.897  0.5692 -0.1670  0.3751
12081TIP3    H157734   3.905   6.867   3.953 -0.0546  0.2625  1.0281
12081TIP3    H257735   3.870   6.787   3.829  1.3959 -0.4023  1.0227
12082TIP3   OH257736   6.611   1.654  16.849  0.1546 -0.0948 -0.5981
12082TIP3    H157737   6.606   1.650  16.753 -0.2856 -0.4742 -0.5666
12082TIP3    H257738   6.597   1.746  16.870  0.4679  0.0261 -0.9090
12083TIP3   OH257739   0.975   6.717   6.603  0.8526  0.8175 -0.0137
12083TIP3    H157740   0.937   6.804   6.615  3.4019  2.0202 -0.0608
12083TIP3    H257741   1.065   6.733   6.576  1.3214 -1.8629 -0.3743
12084TIP3   OH257742   3.110   4.233  12.307 -0.2039 -0.4614 -0.2138
12084TIP3    H157743   3.062   4.162  12.263 -1.0323 -0.8670  1.2735
12084TIP3    H257744   3.044   4.301  12.320 -0.6344 -1.2661  2.4028
12085TIP3   OH257745   0.682   6.553   3.907  0.1823  0.7539  0.1084
12085TIP3    H157746   0.714   6.597   3.829  0.9226  1.2922  0.6924
12085TIP3    H257747   0.588   6.571   3.909  0.2805  1.3304 -0.2829
12086TIP3   OH257748   4.239   2.782   2.587  0.2548 -0.5186 -0.5636
12086TIP3    H157749   4.230   2.863   2.638  1.8954 -0.3259 -0.5362
12086TIP3    H257750   4.150   2.746   2.583 -0.0141 -0.3903  2.1851
12087TIP3   OH257751   3.106   1.944   3.375 -0.1980 -0.5832  0.1613
12087TIP3    H157752   3.111   1.889   3.297  2.2391 -1.7983  1.0886
12087TIP3    H257753   3.133   2.031   3.345 -0.5787 -0.7182 -0.5994
12088TIP3   OH257754   4.638   0.943   6.226 -0.2397 -0.1767  0.8914
12088TIP3    H157755   4.723   0.903   6.206 -0.6390 -0.9582  0.7465
12088TIP3    H257756   4.660   1.022   6.275  0.6271  0.1566  0.0124
12089TIP3   OH257757   2.085   6.193   1.771 -0.1395  0.9027  0.3047
12089TIP3    H157758   2.060   6.148   1.690 -1.4994  2.1824 -0.0212
12089TIP3    H257759   2.154   6.253   1.745  0.0220  0.7080  0.2775
12090TIP3   OH257760   2.877   2.940  11.590  0.0447 -0.0534  0.1739
12090TIP3    H157761   2.881   2.851  11.626  1.4780  0.1254  0.5203
12090TIP3    H257762   2.963   2.977  11.609  0.1248  0.7844 -1.5863
12091TIP3   OH257763   3.502   0.116  13.098 -0.7429  0.2618 -0.2065
12091TIP3    H157764   3.579   0.173  13.089 -0.9120  0.4337 -0.6114
12091TIP3    H257765   3.521   0.041  13.041 -0.7352  0.1520 -0.0585
12092TIP3   OH257766   4.763   2.366  10.622  0.2130 -0.4031  0.5289
12092TIP3    H157767   4.814   2.304  10.572 -2.0256 -1.8566 -0.1177
12092TIP3    H257768   4.761   2.445  10.568  1.1387 -0.5649  0.2487
12093TIP3   OH257769   4.181   1.918   3.806  0.0950 -0.0149 -0.2344
12093TIP3    H157770   4.274   1.900   3.818  0.3144  0.7702 -0.6574
12093TIP3    H257771   4.147   1.929   3.895  0.1764 -1.3316 -0.0254
12094TIP3   OH257772   1.978   3.536  12.267  0.3376  0.6707  0.3475
12094TIP3    H157773   2.058   3.497  12.303  0.2129  0.5322  0.4752
12094TIP3    H257774   1.957   3.481  12.191  1.2173  1.6160 -0.6110
12095TIP3   OH257775   1.546   2.711  12.032 -0.5211 -0.6419 -0.6174
12095TIP3    H157776   1.498   2.697  12.113 -0.7172  1.0290 -0.4004
12095TIP3    H257777   1.623   2.654  12.039  0.0626  0.2979  1.2959
12096TIP3   OH257778   3.692   3.441  16.471 -0.3042 -0.3752 -0.0761
12096TIP3    H157779   3.619   3.378  16.474 -1.0245  0.4647  1.7502
12096TIP3    H257780   3.665   3.506  16.406  0.2221 -1.6549 -1.6160
12097TIP3   OH257781   2.953   2.106   4.046  0.1804  0.3934  0.1104
12097TIP3    H157782   2.860   2.091   4.032  0.0842 -0.2275  1.3138
12097TIP3    H257783   2.996   2.033   4.002  0.0427  0.0939  0.4698
12098TIP3   OH257784   6.784   1.822   1.110  0.3423 -0.0795  0.6097
12098TIP3    H157785   6.845   1.827   1.037  1.0411  0.1675  1.1924
12098TIP3    H257786   6.738   1.906   1.108 -0.0544 -0.3087  0.1047
12099TIP3   OH257787   3.252   4.437  10.489 -0.0040  0.0352  0.0765
12099TIP3    H157788   3.287   4.496  10.555  2.5030  0.9192 -1.9035
12099TIP3    H257789   3.328   4.387  10.459 -1.2576 -1.0739 -1.3915
12100TIP3   OH257790   2.509   4.579   1.329 -0.4085 -0.2061  0.5087
12100TIP3    H157791   2.571   4.634   1.280  0.0461 -0.9052  0.2899
12100TIP3    H257792   2.423   4.604   1.295 -0.1922  0.2102  0.2518
12101TIP3   OH257793   4.047   6.520  10.587  0.2098  0.3720 -0.1225
12101TIP3    H157794   4.138   6.505  10.562  0.1011 -1.8590  0.5785
12101TIP3    H257795   3.996   6.468  10.525 -0.4590  0.1054  0.6326
12102TIP3   OH257796   4.293   1.754   5.105 -0.2894  0.2855 -0.0202
12102TIP3    H157797   4.291   1.849   5.114  2.0851  0.6570 -2.3568
12102TIP3    H257798   4.201   1.728   5.111 -1.0795  2.7899  0.0056
12103TIP3   OH257799   3.264   3.102   5.622 -0.8854 -0.4514  0.3553
12103TIP3    H157800   3.326   3.038   5.588 -0.9710  0.9746 -2.9178
12103TIP3    H257801   3.299   3.128   5.707  1.8546 -1.2231 -0.4493
12104TIP3   OH257802   1.188   0.435  15.989 -0.1693  0.1193 -0.6459
12104TIP3    H157803   1.268   0.385  16.008 -0.8054 -1.5246 -2.0286
12104TIP3    H257804   1.198   0.464  15.899 -0.5052  1.2007 -0.3553
12105TIP3   OH257805   2.118   2.085  13.193  0.2965 -0.3524  0.0558
12105TIP3    H157806   2.052   2.043  13.250  1.6641 -2.0467  0.4792
12105TIP3    H257807   2.073   2.095  13.109 -1.7026  2.0146  1.2727
12106TIP3   OH257808   5.988   0.023  11.714 -0.2737  0.1441  0.4210
12106TIP3    H157809   5.964   0.075  11.791  0.4156  2.6276 -0.9387
12106TIP3    H257810   5.929   0.052  11.645  0.8964 -0.0075 -0.6898
12107TIP3   OH257811   1.942   3.180   5.455  0.2509  0.4051  0.2394
12107TIP3    H157812   1.910   3.228   5.532  0.1154  0.1451  0.3471
12107TIP3    H257813   1.870   3.123   5.431  0.8213 -0.6094  0.8354
12108TIP3   OH257814   3.540   6.594  16.715  0.4854  0.1915 -0.0825
12108TIP3    H157815   3.612   6.576  16.775 -0.7049  0.2295  1.3989
12108TIP3    H257816   3.495   6.510  16.705  3.3122 -1.1813 -4.7885
12109TIP3   OH257817   1.326   5.476   2.057 -0.0186  0.3549 -1.0322
12109TIP3    H157818   1.268   5.525   2.116 -1.7961 -0.2563 -2.2096
12109TIP3    H257819   1.370   5.544   2.006 -0.0085  0.8212 -0.4135
12110TIP3   OH257820   5.653   1.226  14.846 -0.1684 -0.6382  0.7059
12110TIP3    H157821   5.729   1.240  14.789 -0.1097 -0.0227  0.9298
12110TIP3    H257822   5.685   1.167  14.915 -0.3525 -1.7398 -0.1148
12111TIP3   OH257823   4.242   6.540  12.794 -0.3296  0.2517 -0.4901
12111TIP3    H157824   4.312   6.479  12.817 -0.0822  0.6108 -0.2786
12111TIP3    H257825   4.208   6.508  12.711  0.7597  0.6587 -1.1010
12112TIP3   OH257826   3.257   1.556  11.116 -0.4048  0.4412 -0.5381
12112TIP3    H157827   3.293   1.502  11.187 -2.2423  0.3972  0.4161
12112TIP3    H257828   3.199   1.498  11.068  1.4839  0.2207 -2.7274
12113TIP3   OH257829   0.512   2.827  16.889 -0.6351  0.1231  0.5016
12113TIP3    H157830   0.567   2.866  16.957 -2.3987  0.2090  1.9610
12113TIP3    H257831   0.517   2.733  16.905  0.0034  0.0460 -0.1182
12114TIP3   OH257832   2.409   0.290  12.765  0.0410 -0.1492 -0.0601
12114TIP3    H157833   2.315   0.303  12.751 -0.5830 -0.9811  2.7614
12114TIP3    H257834   2.433   0.360  12.826  1.5286  0.6440 -1.4819
12115TIP3   OH257835   1.463   2.967   1.454  1.2929  0.0404  0.0707
12115TIP3    H157836   1.405   2.910   1.403  1.1796 -0.0748  0.3279
12115TIP3    H257837   1.408   3.042   1.476  0.6156 -0.9600  2.0110
12116TIP3   OH257838   4.785   1.077  12.820 -0.2701  0.1391  0.1708
12116TIP3    H157839   4.835   1.039  12.892  0.7054 -0.6412 -0.8747
12116TIP3    H257840   4.851   1.121  12.766 -1.1018  1.4656  0.1966
12117TIP3   OH257841   3.423   2.225   1.177  0.2524  0.0192 -0.3937
12117TIP3    H157842   3.400   2.138   1.209  0.8373  0.0361  0.0957
12117TIP3    H257843   3.503   2.247   1.224 -0.2649  1.1183  0.0090
12118TIP3   OH257844   0.565   4.007   5.275  0.0340 -0.2957  0.3420
12118TIP3    H157845   0.483   3.959   5.293  0.5694 -0.6948  1.8640
12118TIP3    H257846   0.537   4.084   5.226 -1.1923 -0.7360  0.3075
12119TIP3   OH257847   2.676   5.623   1.138  0.0610 -0.0256 -0.0410
12119TIP3    H157848   2.619   5.577   1.199  1.0346 -0.4642  0.5679
12119TIP3    H257849   2.751   5.651   1.191 -0.3936  2.1059 -0.4398
12120TIP3   OH257850   6.661   2.604   2.723  0.1966 -0.2917  0.1437
12120TIP3    H157851   6.568   2.608   2.744  0.4742 -0.5444  1.4771
12120TIP3    H257852   6.666   2.634   2.632 -1.3475 -1.7788 -0.4844
12121TIP3   OH257853   2.327   0.845   3.388 -0.4209 -0.4298 -0.0403
12121TIP3    H157854   2.406   0.858   3.335 -0.3704 -2.1877 -0.4724
12121TIP3    H257855   2.359   0.846   3.479 -0.4438  2.1528  0.0036
12122TIP3   OH257856   1.901   0.624   6.143 -0.5014 -0.1078 -0.3582
12122TIP3    H157857   1.973   0.571   6.107  0.4000  0.8439 -0.0115
12122TIP3    H257858   1.856   0.659   6.066  1.3065  1.7748 -0.6577
12123TIP3   OH257859   6.487   2.699  13.721  0.4801 -0.3669  0.2154
12123TIP3    H157860   6.407   2.703  13.668  0.2382 -3.9516  0.0422
12123TIP3    H257861   6.459   2.726  13.808 -0.4245  0.3961 -0.2951
12124TIP3   OH257862   2.461   5.431  10.389  0.2772  0.0649  0.0904
12124TIP3    H157863   2.427   5.507  10.435  0.6252  0.5280 -0.4091
12124TIP3    H257864   2.554   5.449  10.379  0.3416 -0.3776 -0.1241
12125TIP3   OH257865   4.627   4.628   1.869 -0.1951 -0.1387 -0.1511
12125TIP3    H157866   4.630   4.618   1.964 -1.8467 -1.5345 -0.1840
12125TIP3    H257867   4.596   4.718   1.855  2.5424  0.9960  0.5223
12126TIP3   OH257868   4.281   1.191   1.981 -0.0677 -0.0849 -0.1989
12126TIP3    H157869   4.300   1.151   1.896 -0.0468 -1.5997  0.4881
12126TIP3    H257870   4.186   1.203   1.981 -0.1455 -0.6767 -0.1926
12127TIP3   OH257871   4.370   6.553  13.833 -0.0978  0.0144  0.1890
12127TIP3    H157872   4.356   6.610  13.757 -2.2810 -0.4718  0.1522
12127TIP3    H257873   4.439   6.596  13.883 -0.4069  1.7162 -0.7742
12128TIP3   OH257874   5.741   1.598   0.096  0.5939  0.1639  0.4263
12128TIP3    H157875   5.812   1.662   0.105  0.3156  0.4698  0.4143
12128TIP3    H257876   5.695   1.601   0.180 -0.5234  1.2794 -0.2016
12129TIP3   OH257877   2.860   1.080   3.740 -0.0276 -0.3075  0.0840
12129TIP3    H157878   2.893   1.109   3.655 -1.1685 -0.0909 -0.2958
12129TIP3    H257879   2.864   1.159   3.795 -2.0539  0.3508 -0.6270
12130TIP3   OH257880   0.357   2.046   1.718 -0.5898  0.1878  1.0728
12130TIP3    H157881   0.316   1.961   1.734  1.0782 -0.8319  0.1527
12130TIP3    H257882   0.312   2.105   1.778 -1.8079 -1.3193  1.7319
12131TIP3   OH257883   3.666   4.604  12.887 -0.4593 -0.9001  0.5110
12131TIP3    H157884   3.702   4.638  12.969 -0.0055  0.6808 -0.2992
12131TIP3    H257885   3.703   4.516  12.879 -0.2924 -0.9671  1.8593
12132TIP3   OH257886   4.701   3.279  14.902  0.2162 -0.2958  0.4380
12132TIP3    H157887   4.666   3.280  14.990 -2.0483  0.0622 -0.4027
12132TIP3    H257888   4.714   3.186  14.881  2.8226 -0.3373  1.8242
12133TIP3   OH257889   5.840   2.208  16.091  0.2187 -0.1021 -0.4189
12133TIP3    H157890   5.756   2.202  16.136 -1.2575  1.8984 -2.7282
12133TIP3    H257891   5.862   2.301  16.093  1.6946 -0.4098 -1.0657
12134TIP3   OH257892   6.760   4.863  15.470 -0.3171  0.6230  0.6188
12134TIP3    H157893   6.681   4.878  15.522  1.0899  0.1110  3.0369
12134TIP3    H257894   6.802   4.949  15.464 -1.2855  1.0326 -1.2245
12135TIP3   OH257895   1.250   6.761  16.688  0.5106  0.4063 -0.1776
12135TIP3    H157896   1.340   6.756  16.655  0.8346 -1.1115  0.8361
12135TIP3    H257897   1.200   6.704  16.628  0.3333  0.7633 -0.3733
12136TIP3   OH257898   3.592   4.109   3.442  0.1604 -0.0593  0.9066
12136TIP3    H157899   3.547   4.039   3.490 -1.2116  0.3666  0.2805
12136TIP3    H257900   3.591   4.184   3.502 -1.1300  0.3285  0.4391
12137TIP3   OH257901   3.131   6.386  11.034  0.4062  0.5367 -0.1901
12137TIP3    H157902   3.124   6.424  10.946 -1.5942  1.2532  0.2424
12137TIP3    H257903   3.188   6.446  11.082 -0.4333  1.4647 -0.3314
12138TIP3   OH257904   4.430   5.211   6.581  0.0169 -0.2550  0.0525
12138TIP3    H157905   4.355   5.257   6.543  0.1053 -0.7202 -0.7178
12138TIP3    H257906   4.413   5.119   6.562  0.7315 -0.3718 -0.0254
12139TIP3   OH257907   0.068   5.381   2.168  0.0053  0.1145  0.7998
12139TIP3    H157908   0.113   5.421   2.243 -0.4160 -0.9447  1.6486
12139TIP3    H257909   0.135   5.326   2.127  0.5687  1.5921 -0.3335
12140TIP3   OH257910   5.903   5.980   4.718  0.1024 -0.4142 -0.1849
12140TIP3    H157911   5.858   5.901   4.749  0.7848 -0.2351  1.3310
12140TIP3    H257912   5.991   5.950   4.695  0.4059 -0.0752  0.5263
12141TIP3   OH257913   2.071   6.211   1.262 -0.2792  0.1204 -0.3047
12141TIP3    H157914   1.985   6.189   1.298 -0.5049  1.9139  0.3700
12141TIP3    H257915   2.133   6.164   1.318 -0.7729 -0.1496  0.0211
12142TIP3   OH257916   0.828   2.781  13.589 -0.3385  0.4159 -0.2511
12142TIP3    H157917   0.911   2.814  13.625  0.6754 -0.5444 -1.5926
12142TIP3    H257918   0.765   2.849  13.609  1.1973  2.1364 -0.9290
12143TIP3   OH257919   4.302   6.074  12.376  0.0795  0.7167 -0.4577
12143TIP3    H157920   4.213   6.058  12.342 -0.2793  0.1436  0.6966
12143TIP3    H257921   4.360   6.039  12.309 -0.6096 -0.3505 -0.5231
12144TIP3   OH257922   1.193   5.858   2.110 -0.4958 -0.1305 -0.1213
12144TIP3    H157923   1.106   5.821   2.125 -0.7257 -0.5230 -2.1389
12144TIP3    H257924   1.184   5.951   2.132 -1.2031 -0.3186  0.4151
12145TIP3   OH257925   3.175   2.663  16.716  0.1137 -0.0897 -0.3550
12145TIP3    H157926   3.202   2.577  16.682  0.0128  0.0420 -0.7803
12145TIP3    H257927   3.252   2.719  16.701 -0.0354  0.0404 -0.6300
12146TIP3   OH257928   0.971   2.546  15.813 -0.1352 -0.2622 -0.4936
12146TIP3    H157929   0.968   2.604  15.889 -0.6768  1.3427 -1.6715
12146TIP3    H257930   1.057   2.504  15.818  0.2595  0.6067  0.4471
12147TIP3   OH257931   0.880   2.270   4.387  0.0067 -0.0469 -0.2762
12147TIP3    H157932   0.922   2.331   4.327  0.5665 -0.3896 -0.2367
12147TIP3    H257933   0.796   2.249   4.345  0.2354 -0.0038 -0.7616
12148TIP3   OH257934   0.088   4.403  14.994  0.2421  0.5787 -0.0543
12148TIP3    H157935   0.125   4.328  14.947  0.7384  0.9134 -0.2037
12148TIP3    H257936   0.014   4.431  14.939 -0.3660 -0.2150  0.3476
12149TIP3   OH257937   4.365   1.890  11.925 -0.3992  0.4944 -0.1575
12149TIP3    H157938   4.299   1.958  11.911  1.5196  2.0374 -2.4365
12149TIP3    H257939   4.431   1.905  11.858  0.7883 -2.9050  0.0134
12150TIP3   OH257940   6.720   6.418   2.063 -1.0006  0.4762 -0.4103
12150TIP3    H157941   6.715   6.415   1.968 -1.8239  1.0482 -0.4005
12150TIP3    H257942   6.681   6.335   2.092  2.9439 -1.6763 -0.5916
12151TIP3   OH257943   4.160   0.145   4.563 -0.3291 -0.1154 -0.4322
12151TIP3    H157944   4.228   0.161   4.628 -1.2127  2.1603  0.0020
12151TIP3    H257945   4.163   0.221   4.505 -0.3454 -1.5400 -2.4023
12152TIP3   OH257946   4.091   0.918   3.937  0.1914  0.2231  0.5159
12152TIP3    H157947   4.098   0.972   4.016 -0.5403  0.2468  0.5688
12152TIP3    H257948   4.165   0.947   3.882  1.2831 -0.4756  1.5778
12153TIP3   OH257949   0.063   3.991   2.025  0.3748  0.3256 -0.2210
12153TIP3    H157950   0.072   4.031   2.111 -0.1387  2.1494 -0.9657
12153TIP3    H257951   0.064   4.065   1.964 -0.1827 -0.8395 -1.7098
12154TIP3   OH257952   3.609   2.081  15.868 -0.2290 -0.2890 -0.2787
12154TIP3    H157953   3.697   2.108  15.894 -0.3618  0.0659 -0.1990
12154TIP3    H257954   3.606   1.987  15.889 -1.0367  0.3526  2.9505
12155TIP3   OH257955   6.322   2.232  11.975 -0.4792 -0.2379  0.7540
12155TIP3    H157956   6.330   2.305  12.036  1.2427 -1.6099  2.2706
12155TIP3    H257957   6.325   2.272  11.888  0.6462  1.4756  1.5465
12156TIP3   OH257958   2.516   4.388   0.681  0.3771 -0.5416 -0.1717
12156TIP3    H157959   2.461   4.461   0.653 -0.8075 -1.0036  0.8750
12156TIP3    H257960   2.590   4.429   0.725 -1.3225  0.0758  2.3424
12157TIP3   OH257961   0.785   4.073  16.132  0.3199 -0.1475 -0.5019
12157TIP3    H157962   0.836   3.994  16.113  0.1330 -0.5176  0.4948
12157TIP3    H257963   0.848   4.133  16.171  0.1882 -0.2697 -0.1014
12158TIP3   OH257964   3.362   0.865  14.331 -0.1051  0.3102  0.2344
12158TIP3    H157965   3.313   0.941  14.362 -0.5453 -0.2716  1.0145
12158TIP3    H257966   3.411   0.836  14.408  1.4739  0.8722 -0.5308
12159TIP3   OH257967   5.352   6.386  14.900 -0.6918  0.4197  0.5975
12159TIP3    H157968   5.441   6.382  14.865 -1.0035 -0.4942 -0.1416
12159TIP3    H257969   5.301   6.332  14.840 -1.7013  0.7319  1.1593
12160TIP3   OH257970   2.808   2.827   1.361  0.7195 -0.5874  0.0298
12160TIP3    H157971   2.738   2.890   1.349 -0.1286 -1.2114  1.3569
12160TIP3    H257972   2.848   2.851   1.445 -0.4352 -2.4886  1.2018
12161TIP3   OH257973   5.563   3.563   0.658 -0.3341 -0.1450 -0.2254
12161TIP3    H157974   5.547   3.653   0.685 -2.1981 -0.6279  0.4419
12161TIP3    H257975   5.584   3.516   0.738 -1.7282 -0.7371 -0.1638
12162TIP3   OH257976   5.371   3.522  14.600  0.2123 -0.0688 -0.0698
12162TIP3    H157977   5.304   3.561  14.544 -0.8471  0.6348  1.6154
12162TIP3    H257978   5.322   3.475  14.667  1.4095  0.0263  0.9047
12163TIP3   OH257979   5.798   5.031   5.796 -0.1826  0.1410 -0.2195
12163TIP3    H157980   5.793   4.936   5.803 -0.5607  0.0505 -1.5100
12163TIP3    H257981   5.891   5.050   5.812 -0.1112 -0.4393  0.0978
12164TIP3   OH257982   2.123   3.300   0.787  0.0407 -0.4908 -0.0253
12164TIP3    H157983   2.208   3.309   0.829 -0.8710  2.1733  1.4780
12164TIP3    H257984   2.098   3.389   0.762 -2.1704 -1.2063 -0.6698
12165TIP3   OH257985   1.636   1.153   5.545 -0.1308  0.2180 -0.1684
12165TIP3    H157986   1.619   1.226   5.485 -0.2990  0.3928  0.0886
12165TIP3    H257987   1.731   1.148   5.550 -0.1121  1.2071  0.7531
12166TIP3   OH257988   3.696   4.892   5.047  0.0093 -0.5125  0.2225
12166TIP3    H157989   3.671   4.981   5.019  0.3770 -0.9670 -1.7006
12166TIP3    H257990   3.625   4.836   5.015 -1.9014 -0.7097  4.1385
12167TIP3   OH257991   4.071   2.697  14.293  0.8920 -0.7626  0.2368
12167TIP3    H157992   4.010   2.653  14.352  0.3257  0.1143  0.3110
12167TIP3    H257993   4.128   2.748  14.351  1.4255 -1.2336  0.1362
12168TIP3   OH257994   1.050   5.105   5.086  0.6274 -0.1842  0.1024
12168TIP3    H157995   1.002   5.146   5.013  0.5324 -0.5852 -0.0608
12168TIP3    H257996   1.007   5.138   5.165 -0.5342 -1.2822 -0.0520
12169TIP3   OH257997   3.094   5.413   3.091  0.3783 -0.4974  1.0186
12169TIP3    H157998   3.064   5.343   3.149  0.0930 -1.5478 -0.3554
12169TIP3    H257999   3.117   5.369   3.009 -0.3838  1.0778 -0.1050
12170TIP3   OH258000   2.110   2.281   5.085 -0.2992  0.0446 -0.4814
12170TIP3    H158001   2.137   2.292   5.176  2.6038 -1.4180 -1.0342
12170TIP3    H258002   2.097   2.370   5.052 -0.2172  0.6395  1.0251
12171TIP3   OH258003   4.570   6.469   2.067 -0.1911  0.2670 -0.2065
12171TIP3    H158004   4.498   6.433   2.119 -0.0077  0.4397  0.1673
12171TIP3    H258005   4.646   6.466   2.125  0.0408  0.3557 -0.5011
12172TIP3   OH258006   0.784   4.688   3.138  0.3424  0.4347 -0.0754
12172TIP3    H158007   0.721   4.759   3.128  0.6916  1.1558  2.2324
12172TIP3    H258008   0.743   4.628   3.201  0.7625 -0.5896 -0.7445
12173TIP3   OH258009   5.006   5.887   1.115  0.3316 -0.1099 -0.3078
12173TIP3    H158010   4.920   5.920   1.089  0.3369  1.4500  1.4822
12173TIP3    H258011   4.986   5.811   1.170  0.0793  0.4009  0.3120
12174TIP3   OH258012   6.160   0.919  14.860  0.0356  0.1123  0.2969
12174TIP3    H158013   6.194   0.889  14.944  0.4872  1.2607  0.5417
12174TIP3    H258014   6.123   0.840  14.819  0.4345 -0.5888  1.2617
12175TIP3   OH258015   2.373   5.999  11.437  0.2733  0.0281 -0.3891
12175TIP3    H158016   2.460   5.997  11.477 -0.2721  0.4992  0.8890
12175TIP3    H258017   2.327   5.924  11.476  0.1017 -0.2217 -1.0584
12176TIP3   OH258018   1.218   0.704   4.680 -0.1594 -0.2186 -0.0588
12176TIP3    H158019   1.127   0.688   4.703 -1.0490  1.0511 -2.2977
12176TIP3    H258020   1.253   0.756   4.753 -1.7767  0.7811  0.0651
12177TIP3   OH258021   2.606   4.583  14.538  0.8145 -0.2100  0.5009
12177TIP3    H158022   2.667   4.638  14.588  3.1657 -3.2404  1.2489
12177TIP3    H258023   2.557   4.536  14.605 -0.9035  0.6095 -0.1291
12178TIP3   OH258024   1.951   6.010   4.971  0.2640 -0.1216  0.6062
12178TIP3    H158025   1.894   6.085   4.988  0.6340  0.0892  0.9410
12178TIP3    H258026   1.918   5.942   5.031 -0.7254 -0.5800 -0.4268
12179TIP3   OH258027   1.003   2.432  16.880 -0.4826 -0.2490 -0.0702
12179TIP3    H158028   1.094   2.406  16.894  1.1927  4.2859 -0.8817
12179TIP3    H258029   0.963   2.430  16.967  1.0883 -0.1029  0.6883
12180TIP3   OH258030   4.200   2.868  12.213 -0.3266  0.4890 -0.5539
12180TIP3    H158031   4.164   2.899  12.130 -2.5221  1.1841  0.5601
12180TIP3    H258032   4.170   2.933  12.277  0.7062 -0.3968  0.8932
12181TIP3   OH258033   5.088   5.417   1.478  0.0435 -0.0958 -0.0071
12181TIP3    H158034   5.111   5.336   1.524  1.0248 -0.0390 -0.3723
12181TIP3    H258035   5.099   5.395   1.385  0.7101  0.5528 -0.0948
12182TIP3   OH258036   0.289   3.778  14.166 -0.4823  0.7680 -0.1581
12182TIP3    H158037   0.211   3.735  14.201 -1.3740  1.0651 -1.6840
12182TIP3    H258038   0.269   3.871  14.169  0.0081  0.8745 -0.1188
12183TIP3   OH258039   0.779   3.496  13.450 -0.4832 -0.1626 -0.2369
12183TIP3    H158040   0.722   3.448  13.511 -0.6094 -0.0200 -0.2402
12183TIP3    H258041   0.803   3.431  13.383  2.0158 -1.1594  1.4694
12184TIP3   OH258042   5.292   2.045   1.463 -0.5110 -0.5795  0.4728
12184TIP3    H158043   5.379   2.056   1.502 -0.1375 -0.8497 -0.2512
12184TIP3    H258044   5.231   2.051   1.536  0.2259 -2.1641  1.2622
12185TIP3   OH258045   5.157   5.019   6.179 -0.2813 -0.1249  0.1056
12185TIP3    H158046   5.122   5.075   6.109 -1.0211  1.5141  1.7156
12185TIP3    H258047   5.246   5.051   6.193 -0.3129 -0.1018  0.2564
12186TIP3   OH258048   3.653   3.796   5.552  0.3338  0.3959  0.0953
12186TIP3    H158049   3.728   3.742   5.579  0.5515  0.8623  0.4385
12186TIP3    H258050   3.678   3.885   5.576  0.1116  0.6958 -0.7731
12187TIP3   OH258051   3.434   3.089   4.021 -0.2228  0.4477  0.2076
12187TIP3    H158052   3.495   3.107   4.092 -3.4268  0.2285  3.3148
12187TIP3    H258053   3.387   3.171   4.009 -1.6045 -0.2828  0.4206
12188TIP3   OH258054   6.230   4.010  10.452  0.1882 -0.5991 -0.7638
12188TIP3    H158055   6.150   4.061  10.456  0.5389  0.0053 -1.3136
12188TIP3    H258056   6.212   3.942  10.387  0.6428  0.4916 -2.0713
12189TIP3   OH258057   5.232   6.208   0.264  0.4339  0.0970  0.3502
12189TIP3    H158058   5.173   6.218   0.189  0.4999  1.3482  0.4517
12189TIP3    H258059   5.245   6.297   0.297  0.4194 -0.4326  1.8532
12190TIP3   OH258060   0.987   5.737   5.964 -0.0365  0.1261 -0.0546
12190TIP3    H158061   1.039   5.703   5.891 -1.7904  0.3176 -1.4547
12190TIP3    H258062   1.052   5.769   6.027  1.5448  0.8935 -1.9713
12191TIP3   OH258063   3.082   6.665  11.371 -0.3601 -0.1814 -0.1518
12191TIP3    H158064   3.011   6.728  11.375  0.1698  0.4814 -0.8485
12191TIP3    H258065   3.124   6.681  11.286  0.0899 -1.1299 -0.1214
12192TIP3   OH258066   3.695   3.199   3.167  0.1964 -0.0566  0.5183
12192TIP3    H158067   3.659   3.142   3.235 -1.9843  0.1743 -0.3511
12192TIP3    H258068   3.742   3.267   3.215  0.5899 -1.0974  1.6716
12193TIP3   OH258069   6.625   1.536   1.392 -0.3544  0.2719  0.6733
12193TIP3    H158070   6.653   1.523   1.301  0.1414  0.7538  0.7569
12193TIP3    H258071   6.706   1.526   1.444 -0.6455 -0.0764  1.0730
12194TIP3   OH258072   1.600   5.805  12.475  0.4104  0.0173 -0.5802
12194TIP3    H158073   1.665   5.791  12.406  0.2147 -2.2079 -0.3780
12194TIP3    H258074   1.563   5.718  12.491 -0.6587  0.7592  1.2430
12195TIP3   OH258075   5.638   6.517   0.815 -0.3075 -0.1321 -0.6472
12195TIP3    H158076   5.694   6.590   0.842 -0.3209 -1.0531  2.2156
12195TIP3    H258077   5.550   6.544   0.839 -0.8298  0.2357 -2.7574
12196TIP3   OH258078   2.111   1.647   0.509 -0.0658 -0.5318  0.2017
12196TIP3    H158079   2.152   1.732   0.493 -0.6471  0.0794  1.7208
12196TIP3    H258080   2.183   1.592   0.541 -0.1833  0.2349  1.8819
12197TIP3   OH258081   6.621   2.580  15.614  0.1179  0.2808 -0.3558
12197TIP3    H158082   6.675   2.604  15.690 -0.8079  0.5334  0.2444
12197TIP3    H258083   6.577   2.499  15.642 -2.0440  1.6141  0.3501
12198TIP3   OH258084   3.816   3.536   0.837 -0.0936  0.0851 -0.9920
12198TIP3    H158085   3.854   3.457   0.797 -0.3698 -1.0341  0.8715
12198TIP3    H258086   3.742   3.558   0.779  0.5943 -0.4095 -2.0978
12199TIP3   OH258087   4.880   6.139   4.267  0.2266  0.2224  0.1998
12199TIP3    H158088   4.820   6.146   4.341 -0.6465  1.3252 -0.5818
12199TIP3    H258089   4.825   6.114   4.194  0.6942  1.2414 -0.5316
12200TIP3   OH258090   5.701   1.406  16.639 -0.1303 -0.2138  0.6774
12200TIP3    H158091   5.789   1.373  16.620 -0.2721 -0.3403  0.2149
12200TIP3    H258092   5.679   1.371  16.725  0.1658 -0.4075  0.6745
12201TIP3   OH258093   6.355   1.546  15.596 -0.0392  0.5093 -0.5422
12201TIP3    H158094   6.266   1.526  15.567  0.0779  0.7455 -1.0650
12201TIP3    H258095   6.380   1.470  15.650 -0.4815  0.3500 -0.5608
12202TIP3   OH258096   3.131   1.605  15.822 -0.4874 -0.4167 -0.4299
12202TIP3    H158097   3.107   1.513  15.813  0.2101 -0.4892 -1.7318
12202TIP3    H258098   3.224   1.603  15.848 -0.6217 -0.0793  0.0974
12203TIP3   OH258099   2.782   5.384  16.952 -0.0268  0.5460 -0.4541
12203TIP3    H158100   2.754   5.292  16.955 -0.7121  0.7563 -0.2396
12203TIP3    H258101   2.701   5.434  16.962  0.2722  1.1842 -1.1656
12204TIP3   OH258102   4.984   2.711   1.666  0.2614 -0.2663 -0.3025
12204TIP3    H158103   5.052   2.644   1.657  1.0845  0.3890  0.8358
12204TIP3    H258104   5.011   2.779   1.604  1.1008  0.3390  0.6959
12205TIP3   OH258105   3.983   2.966  12.927  0.6682  0.4730 -0.2338
12205TIP3    H158106   4.069   2.925  12.926  0.7021  0.5006  0.8675
12205TIP3    H258107   3.946   2.946  12.841  0.8457 -1.5383  0.1121
12206TIP3   OH258108   0.929   6.748  15.924  0.1735 -0.1502 -0.0096
12206TIP3    H158109   0.952   6.840  15.937 -0.7259 -0.0011  0.6348
12206TIP3    H258110   1.006   6.700  15.955  1.4531  0.3897 -2.1464
12207TIP3   OH258111   2.159   3.478   5.421  0.0820 -0.3655  0.1770
12207TIP3    H158112   2.196   3.420   5.487 -0.0749 -1.4595 -0.6467
12207TIP3    H258113   2.064   3.467   5.430  0.0461 -2.5674 -1.8641
12208TIP3   OH258114   4.677   5.723  17.046  0.2560  0.6332 -0.2856
12208TIP3    H158115   4.703   5.752  17.134 -0.3436  0.3687 -0.0131
12208TIP3    H258116   4.637   5.638  17.060  1.8946 -0.3199 -1.0603
12209TIP3   OH258117   1.682   0.437   6.161  0.1036  0.1033 -0.2068
12209TIP3    H158118   1.600   0.486   6.166  0.7021  1.0700  0.4657
12209TIP3    H258119   1.749   0.502   6.181  1.2277 -0.1601 -2.8139
12210TIP3   OH258120   6.638   6.152   2.097  0.0528 -0.2468  0.0594
12210TIP3    H158121   6.720   6.102   2.100 -1.0585 -2.1620  0.0680
12210TIP3    H258122   6.590   6.123   2.174 -1.6727 -1.1108 -1.2639
12211TIP3   OH258123   0.206   3.060   5.295 -0.4120 -0.2605  0.2537
12211TIP3    H158124   0.222   2.968   5.275 -0.7179 -0.6221  1.5646
12211TIP3    H258125   0.264   3.078   5.369  0.1579  0.8063 -0.4306
12212TIP3   OH258126   4.798   0.413  16.561 -0.2980 -0.0752  0.4445
12212TIP3    H158127   4.822   0.505  16.571 -1.0135  0.0621  1.0334
12212TIP3    H258128   4.702   0.412  16.568 -0.4557 -0.6565 -1.3167
12213TIP3   OH258129   4.303   3.575   4.334 -0.3650  0.1204 -0.2748
12213TIP3    H158130   4.374   3.537   4.386 -1.0233  0.0867  0.6122
12213TIP3    H258131   4.328   3.667   4.325 -0.1657  0.0941 -0.0310
12214TIP3   OH258132   1.517   6.537  11.464  0.2208 -0.1619 -0.4736
12214TIP3    H158133   1.508   6.446  11.495 -2.4049 -0.2972 -1.3541
12214TIP3    H258134   1.571   6.530  11.386  1.9618 -0.6146  0.7146
12215TIP3   OH258135   4.689   0.454  12.247  0.6346  0.3919  0.1867
12215TIP3    H158136   4.744   0.526  12.278  1.5426 -0.4623  0.5982
12215TIP3    H258137   4.744   0.376  12.255 -0.1995 -0.3069 -0.6046
12216TIP3   OH258138   5.778   6.419  13.810  0.4510 -0.0124 -0.0333
12216TIP3    H158139   5.709   6.480  13.782  1.0559  0.8837  0.3790
12216TIP3    H258140   5.743   6.380  13.891  0.2853  0.1775 -0.0126
12217TIP3   OH258141   6.836   0.403   0.941 -0.1531 -0.0394  0.1112
12217TIP3    H158142   6.916   0.431   0.896  0.0111 -0.0091  0.4236
12217TIP3    H258143   6.768   0.460   0.905  0.0878  0.4176  0.3635
12218TIP3   OH258144   0.003   0.666  14.302  0.2595 -0.3101 -0.3707
12218TIP3    H158145   0.027   0.746  14.349 -1.5238  0.3906 -0.6125
12218TIP3    H258146  -0.091   0.655  14.318  0.5021 -2.5611 -0.0465
12219TIP3   OH258147   2.043   1.564  11.400  0.0026 -0.1000  0.0278
12219TIP3    H158148   2.133   1.534  11.384 -0.5175 -2.1893  0.7013
12219TIP3    H258149   2.021   1.528  11.487 -0.4282  3.0672  1.3583
12220TIP3   OH258150   6.241   5.590   2.154 -0.5419  0.3443  0.6460
12220TIP3    H158151   6.161   5.538   2.146 -0.1601 -0.2793  0.8337
12220TIP3    H258152   6.294   5.543   2.218  0.1283  0.5582  0.2606
12221TIP3   OH258153   6.125   6.285  13.506 -0.6128 -0.0652 -0.0394
12221TIP3    H158154   6.063   6.240  13.563  0.6436 -1.4068  0.3140
12221TIP3    H258155   6.110   6.247  13.419 -0.4145 -0.2543  0.0094
12222TIP3   OH258156   2.303   0.179   2.850  0.1753 -0.2996 -0.1577
12222TIP3    H158157   2.290   0.171   2.756  0.8699 -0.4900 -0.2387
12222TIP3    H258158   2.294   0.089   2.884 -0.9326 -0.1130  0.0731
12223TIP3   OH258159   1.753   4.953  11.655 -0.2764  0.5583  0.4858
12223TIP3    H158160   1.843   4.969  11.683 -0.1728  0.3450  0.2775
12223TIP3    H258161   1.700   4.964  11.735 -0.0226  0.2886  0.6932
12224TIP3   OH258162   6.665   1.185  13.692  0.7325 -0.8993 -0.2953
12224TIP3    H158163   6.579   1.177  13.733 -0.0338 -0.9559 -1.8650
12224TIP3    H258164   6.721   1.221  13.761 -0.3171 -1.6946  1.0217
12225TIP3   OH258165   0.821   5.171   4.578 -0.0607 -0.2372 -0.1573
12225TIP3    H158166   0.773   5.099   4.618  0.1263 -0.4696 -0.3523
12225TIP3    H258167   0.777   5.187   4.495 -0.4054  0.1995  0.1054
12226TIP3   OH258168   5.031   2.802   6.155  0.2902  0.3448  0.5625
12226TIP3    H158169   5.100   2.860   6.188  1.3180 -0.9647  0.8515
12226TIP3    H258170   5.003   2.841   6.072  2.8346 -0.0838 -0.6100
12227TIP3   OH258171   4.264   2.324   0.469 -0.4358 -0.2180 -0.1734
12227TIP3    H158172   4.298   2.414   0.467 -1.0614  0.0915  1.2870
12227TIP3    H258173   4.172   2.335   0.494 -0.2369 -1.3075  1.1442
12228TIP3   OH258174   1.755   4.044   3.542 -0.2147 -0.3532 -0.3548
12228TIP3    H158175   1.749   3.969   3.601 -0.5305  0.8758  1.2583
12228TIP3    H258176   1.794   4.113   3.596 -1.1911  1.0475 -1.3804
12229TIP3   OH258177   4.977   4.551  11.105 -0.1965  0.0247 -0.3705
12229TIP3    H158178   5.060   4.515  11.136 -0.7180 -1.4009 -0.5529
12229TIP3    H258179   4.916   4.477  11.107 -1.3860  0.9564 -0.5619
12230TIP3   OH258180   3.333   1.770   3.403  0.4512 -0.3637 -0.4097
12230TIP3    H158181   3.341   1.758   3.308 -0.4572 -3.5524 -0.1822
12230TIP3    H258182   3.257   1.826   3.414  1.4283  1.2851 -1.5374
12231TIP3   OH258183   0.956   5.507  15.181 -0.5815 -0.3790  0.5349
12231TIP3    H158184   0.929   5.554  15.260 -0.1272 -1.1707  1.1638
12231TIP3    H258185   0.909   5.552  15.110 -1.7378 -0.2595  1.3475
12232TIP3   OH258186   1.416   4.704   5.879  0.1900 -0.2160  0.0345
12232TIP3    H158187   1.439   4.635   5.817 -0.3512 -0.2542 -0.1344
12232TIP3    H258188   1.456   4.783   5.843  1.7035 -0.6046  0.7769
12233TIP3   OH258189   4.028   4.923  15.599 -0.1047  0.4440  0.5001
12233TIP3    H158190   4.010   4.978  15.675 -2.3799  2.1154 -1.1011
12233TIP3    H258191   4.119   4.941  15.576  0.6731 -0.1861  2.7984
12234TIP3   OH258192   0.680   4.669   4.174  0.0038  0.1051  0.2788
12234TIP3    H158193   0.731   4.697   4.098 -0.5056 -1.5953 -0.7377
12234TIP3    H258194   0.745   4.638   4.237  0.3947  1.0235  0.3442
12235TIP3   OH258195   1.335   1.481  14.108 -0.9227  0.4194 -0.0518
12235TIP3    H158196   1.271   1.487  14.037 -0.8264  2.7896 -0.0209
12235TIP3    H258197   1.282   1.464  14.186 -1.1628 -0.8829 -0.4872
12236TIP3   OH258198   3.734   4.137  11.584  0.1975 -0.5846 -0.3119
12236TIP3    H158199   3.828   4.153  11.590  0.2768 -0.4759 -1.4532
12236TIP3    H258200   3.727   4.045  11.560 -0.0935 -1.1990  1.9919
12237TIP3   OH258201   1.071   3.558   1.639 -0.4999  0.0993  0.5069
12237TIP3    H158202   0.994   3.590   1.687  0.3712  2.3353  0.5420
12237TIP3    H258203   1.065   3.601   1.553 -0.3167 -1.2927 -0.2330
12238TIP3   OH258204   2.076   3.267   4.404 -0.3046  0.5100 -0.2844
12238TIP3    H158205   2.024   3.347   4.392 -0.6504  0.4967  0.9549
12238TIP3    H258206   2.145   3.292   4.465 -1.5002 -0.5337  1.6185
12239TIP3   OH258207   1.568   3.938  13.057  0.3137 -0.3748  0.4637
12239TIP3    H158208   1.626   3.865  13.033  0.5905 -0.2900  0.8586
12239TIP3    H258209   1.575   3.999  12.984 -0.7505 -1.2225 -0.3781
12240TIP3   OH258210   4.312   4.997  16.117 -0.0932  0.0432 -0.2453
12240TIP3    H158211   4.352   5.081  16.140 -0.9795  0.6206 -0.7677
12240TIP3    H258212   4.350   4.935  16.179 -0.0516  0.9734  0.6910
12241TIP3   OH258213   0.473   4.821   4.832 -0.0561  0.2101  0.1387
12241TIP3    H158214   0.398   4.813   4.773  1.1495 -2.1957 -1.2444
12241TIP3    H258215   0.477   4.737   4.877 -0.5163  1.7541  3.2770
12242TIP3   OH258216   5.688   4.173   2.188 -0.5220 -0.2301 -0.7127
12242TIP3    H158217   5.765   4.120   2.168 -1.1423 -1.0892 -0.8514
12242TIP3    H258218   5.708   4.214   2.272  0.3138 -0.0006 -1.0156
12243TIP3   OH258219   0.332   6.312  13.759  0.2858  0.3396  0.4443
12243TIP3    H158220   0.331   6.243  13.825  0.2322 -0.5469 -0.4518
12243TIP3    H258221   0.292   6.271  13.682  0.0578  1.4444 -0.0356
12244TIP3   OH258222   5.196   0.325   5.947 -0.1901 -0.7565  0.0642
12244TIP3    H158223   5.143   0.273   5.886 -2.4598 -0.0196  1.2819
12244TIP3    H258224   5.189   0.279   6.030  0.6789 -0.3389  0.3809
12245TIP3   OH258225   4.215   5.374   3.815 -0.5153 -0.3093  0.1364
12245TIP3    H158226   4.258   5.408   3.736  0.9008  0.6559  1.2759
12245TIP3    H258227   4.208   5.450   3.873 -0.9649 -1.1310  1.1822
12246TIP3   OH258228   4.214   0.629   3.390  0.4706 -0.0418 -0.5444
12246TIP3    H158229   4.279   0.559   3.381 -1.6964 -2.1046 -1.0770
12246TIP3    H258230   4.175   0.637   3.303 -0.3322  0.7874 -0.1245
12247TIP3   OH258231   5.303   2.272  13.458 -0.0502  0.3336 -0.4263
12247TIP3    H158232   5.210   2.255  13.472 -0.2580  2.1429  0.6514
12247TIP3    H258233   5.348   2.197  13.498 -1.0321 -1.3279 -2.2852
12248TIP3   OH258234   5.759   5.337  16.646 -0.6476 -0.0434 -1.0307
12248TIP3    H158235   5.691   5.272  16.631 -0.4504 -0.9498  1.5662
12248TIP3    H258236   5.755   5.355  16.740  1.9912  0.6452 -0.9699
12249TIP3   OH258237   3.217   0.075  13.291 -0.2069  0.1751  0.0688
12249TIP3    H158238   3.142   0.044  13.240 -1.0997  0.2351  1.3038
12249TIP3    H258239   3.254   0.146  13.238 -1.1029  0.2346 -0.4934
12250TIP3   OH258240   3.415   3.473  16.363 -0.1831 -0.2562 -0.0039
12250TIP3    H158241   3.392   3.403  16.423  0.3702 -0.2900  0.1723
12250TIP3    H258242   3.390   3.439  16.276 -0.0513 -0.6088  0.0956
12251TIP3   OH258243   1.240   2.730   2.460 -0.2142  0.4428  0.3217
12251TIP3    H158244   1.151   2.764   2.464 -0.4178  0.2773 -1.7428
12251TIP3    H258245   1.229   2.635   2.464 -0.2314  0.3838 -0.7882
12252TIP3   OH258246   6.163   4.551  14.058  0.4682  0.5795  0.4217
12252TIP3    H158247   6.168   4.647  14.059  2.0949  0.5144  0.6883
12252TIP3    H258248   6.090   4.532  13.999 -0.9093  1.9950  1.5988
12253TIP3   OH258249   4.228   0.783   1.887 -0.2824  0.0415  0.2825
12253TIP3    H158250   4.182   0.719   1.832 -0.7297 -0.3648  1.1027
12253TIP3    H258251   4.167   0.800   1.959  0.0893  0.9330  0.3958
12254TIP3   OH258252   5.889   4.092  14.780  0.0546 -0.0291  0.0993
12254TIP3    H158253   5.854   4.115  14.866  0.9827  1.3374  0.1406
12254TIP3    H258254   5.972   4.047  14.798  0.5827  0.8498 -0.0729
12255TIP3   OH258255   1.324   0.011  15.060  0.3266 -0.0077 -0.3788
12255TIP3    H158256   1.245   0.059  15.084  0.3982  0.0947 -0.3471
12255TIP3    H258257   1.314  -0.074  15.102  1.1692  0.6928  1.3356
12256TIP3   OH258258   6.131   6.243   3.289 -0.0280  0.3170  0.0099
12256TIP3    H158259   6.201   6.271   3.230  0.8859  1.7389  1.7011
12256TIP3    H258260   6.152   6.283   3.373 -2.0094 -0.5625  0.9951
12257TIP3   OH258261   3.879   3.855   2.357 -0.2543  0.1130  0.4123
12257TIP3    H158262   3.836   3.924   2.408  0.0706  1.5051 -1.1051
12257TIP3    H258263   3.958   3.896   2.323 -0.5804 -0.6443 -1.3926
12258TIP3   OH258264   2.327   2.357   4.296  0.4526 -0.5089 -0.3525
12258TIP3    H158265   2.249   2.369   4.350 -0.1531  2.2283 -1.6393
12258TIP3    H258266   2.302   2.291   4.232 -0.6241 -0.0564 -0.4129
12259TIP3   OH258267   4.961   6.131  12.618  0.0466  0.7419 -0.4618
12259TIP3    H158268   5.044   6.138  12.664 -1.1581  3.4673  1.6168
12259TIP3    H258269   4.948   6.037  12.606  2.5717  0.1494  0.7459
12260TIP3   OH258270   6.362   1.298   1.000 -0.1156 -0.0237 -0.6759
12260TIP3    H158271   6.451   1.320   0.972  0.0228  0.1902 -0.0804
12260TIP3    H258272   6.350   1.207   0.971  0.3254 -0.0813 -0.6896
12261TIP3   OH258273   1.967   5.201   4.588  0.2110 -0.4645 -0.4971
12261TIP3    H158274   2.053   5.180   4.625  1.7535 -0.2273 -3.6063
12261TIP3    H258275   1.905   5.149   4.640  2.3112 -1.3713  1.2564
12262TIP3   OH258276   0.591   1.631   1.422 -0.3366  0.1657 -0.0543
12262TIP3    H158277   0.509   1.650   1.377 -0.9597  0.6551  1.2370
12262TIP3    H258278   0.573   1.651   1.513  0.7090 -1.3691  0.5280
12263TIP3   OH258279   3.915   3.198  16.390 -0.2223 -0.2113  0.1477
12263TIP3    H158280   3.938   3.279  16.435  1.5687 -0.1717 -0.7348
12263TIP3    H258281   3.865   3.225  16.313  0.9805  0.1494 -0.5306
12264TIP3   OH258282   5.348   2.385   4.745  0.2812  0.1054  0.0282
12264TIP3    H158283   5.401   2.313   4.710 -2.0592 -0.9785 -1.5429
12264TIP3    H258284   5.321   2.354   4.832 -2.4836 -2.0838 -1.4382
12265TIP3   OH258285   1.020   5.100  15.216  0.1664  0.2197 -0.2322
12265TIP3    H158286   1.058   5.160  15.280  0.8994 -0.6907  0.2171
12265TIP3    H258287   1.005   5.153  15.138  0.8023  0.9780  0.1528
12266TIP3   OH258288   6.523   6.505  11.627 -0.0427 -0.3895 -0.2468
12266TIP3    H158289   6.430   6.488  11.615 -0.1778 -0.2420  0.5082
12266TIP3    H258290   6.537   6.494  11.721  0.8563 -1.1500 -0.4570
12267TIP3   OH258291   6.508   1.810  15.686  0.1350 -0.5221  0.5623
12267TIP3    H158292   6.486   1.718  15.700 -0.4421 -0.3235  0.9996
12267TIP3    H258293   6.429   1.848  15.646  0.3110 -0.1838  0.5345
12268TIP3   OH258294   1.680   2.959  10.813  0.0930  0.3512 -0.0252
12268TIP3    H158295   1.759   2.928  10.858  1.3106  1.6843 -1.1291
12268TIP3    H258296   1.621   2.984  10.883 -0.8122 -3.8067  0.9376
12269TIP3   OH258297   1.491   1.802  16.758  0.7571  0.1141 -0.4109
12269TIP3    H158298   1.502   1.863  16.685 -0.9704 -0.9876 -1.6845
12269TIP3    H258299   1.575   1.755  16.762  0.6980 -0.1916 -2.0931
12270TIP3   OH258300   0.917   5.778   5.457  0.1828 -0.5086 -0.0516
12270TIP3    H158301   0.830   5.779   5.417  1.3653  0.2247 -2.7796
12270TIP3    H258302   0.929   5.688   5.487 -1.0698 -0.8861 -0.6391
12271TIP3   OH258303   2.829   2.710  12.131 -0.1756 -0.2444  0.1432
12271TIP3    H158304   2.811   2.747  12.045  1.7640 -1.0082 -0.6369
12271TIP3    H258305   2.753   2.654  12.150  0.0341 -1.2306 -1.7513
12272TIP3   OH258306   3.448   3.631   5.854 -0.6981 -0.1350  0.4203
12272TIP3    H158307   3.429   3.719   5.822  0.7933  0.5801  1.3702
12272TIP3    H258308   3.370   3.606   5.903 -1.9468 -0.1834 -1.5134
12273TIP3   OH258309   0.244   2.968   0.884 -0.0867 -0.2921  0.1437
12273TIP3    H158310   0.245   3.050   0.934  2.8694 -0.1759  0.0801
12273TIP3    H258311   0.201   2.992   0.801 -1.7663  0.4244  1.1659
12274TIP3   OH258312   3.385   3.944   0.253  0.6386 -0.1149 -0.0736
12274TIP3    H158313   3.290   3.943   0.264  0.6939 -0.8989  0.4234
12274TIP3    H258314   3.408   3.853   0.239  1.3853 -0.0021  0.3935
12275TIP3   OH258315   1.105   4.669  12.572 -1.0572  0.8197  0.4119
12275TIP3    H158316   1.085   4.582  12.538  1.4009  0.8645 -1.4144
12275TIP3    H258317   1.090   4.662  12.666  1.8012 -2.5660  0.8517
12276TIP3   OH258318   4.464   1.471   5.814 -0.0502 -0.1521 -0.1415
12276TIP3    H158319   4.525   1.415   5.863  1.1346  0.1213 -1.2465
12276TIP3    H258320   4.429   1.413   5.746 -0.1854 -0.0150 -0.1879
12277TIP3   OH258321   6.120   0.981  13.436  0.0049 -0.7979  0.1892
12277TIP3    H158322   6.201   1.026  13.414  0.4829 -1.1278  1.2318
12277TIP3    H258323   6.110   0.914  13.368  0.0132 -0.0349 -0.5735
12278TIP3   OH258324   6.026   5.247  13.059  0.0732  0.1421  0.6477
12278TIP3    H158325   6.057   5.195  12.984 -0.0564  1.5278 -0.4189
12278TIP3    H258326   5.931   5.235  13.059  0.1018 -0.0932  0.7807
12279TIP3   OH258327   2.461   3.179  12.647  0.0212  0.3920  0.6250
12279TIP3    H158328   2.517   3.127  12.703 -0.0249 -1.1492 -0.6875
12279TIP3    H258329   2.512   3.193  12.567 -1.0316 -0.1066 -0.1606
12280TIP3   OH258330   6.222   0.332  16.249 -0.0938 -0.3572  0.5659
12280TIP3    H158331   6.259   0.265  16.305  2.3518 -1.3375 -1.9708
12280TIP3    H258332   6.238   0.414  16.295 -1.6760 -1.3047  2.9768
12281TIP3   OH258333   6.766   0.659  15.389  0.5382 -0.8071 -0.4349
12281TIP3    H158334   6.735   0.703  15.309  2.8428  0.6799 -0.5908
12281TIP3    H258335   6.686   0.640  15.438 -0.7838  0.6394 -1.9017
12282TIP3   OH258336   0.977   0.282   3.143  0.2627 -0.0082  0.2468
12282TIP3    H158337   0.995   0.370   3.109  1.8079 -0.4683 -0.2032
12282TIP3    H258338   1.059   0.235   3.133 -0.0091 -0.9940  2.1661
12283TIP3   OH258339   5.408   6.751   4.245  0.7473  0.9979  0.1643
12283TIP3    H158340   5.435   6.695   4.318  0.1570  0.0089 -0.3390
12283TIP3    H258341   5.436   6.839   4.270  1.8091  0.4692  0.9403
12284TIP3   OH258342   0.059   2.182   3.382 -0.7117  0.5640  0.0130
12284TIP3    H158343   0.035   2.264   3.337 -0.0310  1.5239  1.3301
12284TIP3    H258344   0.068   2.118   3.312  1.2114  2.2011 -1.3535
12285TIP3   OH258345   0.214   6.314   5.340  0.4202  0.6766  0.3395
12285TIP3    H158346   0.172   6.322   5.425 -0.5222 -0.8998  0.0498
12285TIP3    H258347   0.301   6.279   5.359 -0.4366 -1.4379  0.5623
12286TIP3   OH258348   4.511   3.055   0.037 -0.2475  0.9570  0.2122
12286TIP3    H158349   4.555   3.071   0.120 -1.0556 -0.4683  0.9382
12286TIP3    H258350   4.562   2.985  -0.004 -0.9676  0.3111  0.4012
12287TIP3   OH258351   4.122   0.982   5.922 -0.2053 -0.8042 -0.0008
12287TIP3    H158352   4.125   1.074   5.894 -1.4792 -0.8606 -0.3875
12287TIP3    H258353   4.153   0.984   6.013 -0.2063  0.0115 -0.0116
12288TIP3   OH258354   2.052   6.042  16.271 -0.2486  0.6775  0.6388
12288TIP3    H158355   1.974   6.051  16.216 -0.2618  1.5662  0.7755
12288TIP3    H258356   2.030   6.088  16.352  0.7246  1.7876  0.3252
12289TIP3   OH258357   2.957   3.991   4.706  0.5088  0.4162  0.5044
12289TIP3    H158358   3.015   3.942   4.647  1.5863  0.0934  1.7685
12289TIP3    H258359   2.938   4.072   4.659 -1.5765 -1.2504 -1.7918
12290TIP3   OH258360   0.996   5.172  15.947 -0.2260  0.0021 -0.8929
12290TIP3    H158361   0.941   5.175  15.869 -1.4967 -0.7732 -0.0722
12290TIP3    H258362   0.934   5.174  16.020  0.8138 -0.9994  0.0699
12291TIP3   OH258363   4.000   5.415  12.497  0.0133 -0.1160  0.0543
12291TIP3    H158364   4.061   5.432  12.425 -1.0635  2.5359 -0.3760
12291TIP3    H258365   3.935   5.356  12.460 -0.4973  1.1734 -1.2062
12292TIP3   OH258366   4.930   4.976  14.899 -0.3612  0.3493 -0.0740
12292TIP3    H158367   4.940   4.896  14.848 -1.0045  1.4822 -2.0768
12292TIP3    H258368   4.851   4.962  14.951  0.3922 -0.8887  0.7917
12293TIP3   OH258369   1.460   2.176  11.429  0.0643 -0.3048 -0.3076
12293TIP3    H158370   1.506   2.113  11.485  2.0782  0.8855 -0.5289
12293TIP3    H258371   1.455   2.133  11.343  0.4859 -0.5809 -0.1957
12294TIP3   OH258372   1.743   5.101  10.927  0.2005 -0.2570 -0.4704
12294TIP3    H158373   1.701   5.018  10.949  1.3696 -0.4244  1.2819
12294TIP3    H258374   1.836   5.087  10.944  0.4936  1.2188 -0.7234
12295TIP3   OH258375   3.097   6.217  13.815  0.1190  0.1503 -0.1625
12295TIP3    H158376   3.127   6.184  13.900  0.8724  0.2044 -0.4030
12295TIP3    H258377   3.178   6.239  13.768 -0.3388  1.7835 -0.2398
12296TIP3   OH258378   2.038   4.243   0.640 -0.4251 -0.5263 -0.4995
12296TIP3    H158379   2.018   4.326   0.596  0.1610  0.0536  0.2864
12296TIP3    H258380   2.120   4.260   0.686  0.6872 -2.1293 -1.7839
12297TIP3   OH258381   6.144   5.038  12.320 -0.3807 -0.0252  0.0289
12297TIP3    H158382   6.107   4.997  12.242 -1.0111 -0.2361  0.4237
12297TIP3    H258383   6.231   5.067  12.294  0.1030 -1.6600 -0.2571
12298TIP3   OH258384   5.877   4.407   1.087 -0.1364 -0.8034  0.0016
12298TIP3    H158385   5.911   4.355   1.160 -0.2276 -0.3667  0.3619
12298TIP3    H258386   5.850   4.490   1.127 -1.0401 -0.9004 -0.3799
12299TIP3   OH258387   5.908   0.194   4.879  0.0081  0.0301 -0.2501
12299TIP3    H158388   5.946   0.249   4.810 -1.1542  0.8981 -0.2249
12299TIP3    H258389   5.814   0.211   4.874 -0.3256 -1.6434  0.0594
12300TIP3   OH258390   6.652   5.140   3.626 -0.0207 -0.4207 -0.4235
12300TIP3    H158391   6.606   5.114   3.706 -2.2193 -1.5457 -1.9317
12300TIP3    H258392   6.696   5.060   3.596  2.2169  0.4088  0.4796
12301TIP3   OH258393   3.024   1.012   0.647  0.7601  0.0697  0.1028
12301TIP3    H158394   2.929   1.011   0.663  0.8390 -1.5257  0.6207
12301TIP3    H258395   3.043   1.103   0.624 -1.2741  0.0215 -2.2515
12302TIP3   OH258396   6.242   3.492   0.260 -0.1383  0.2370 -0.2670
12302TIP3    H158397   6.274   3.464   0.175 -0.4892  1.8111 -0.9485
12302TIP3    H258398   6.288   3.575   0.277  0.9144 -0.6633  1.6847
12303TIP3   OH258399   5.495   0.620   3.290  0.0516 -0.3709  0.4357
12303TIP3    H158400   5.433   0.564   3.243 -1.9270  0.4258  1.9245
12303TIP3    H258401   5.442   0.696   3.316  2.2820  1.5672 -0.3138
12304TIP3   OH258402   1.208   0.711  16.608  0.5332 -0.2889 -0.3234
12304TIP3    H158403   1.220   0.682  16.698  1.8132  1.1850  0.0112
12304TIP3    H258404   1.174   0.800  16.616  1.0876  0.0238 -1.2771
12305TIP3   OH258405   6.544   1.113  13.362 -0.0534  0.2405 -0.1568
12305TIP3    H158406   6.602   1.182  13.392 -1.4314  1.1478  0.5178
12305TIP3    H258407   6.471   1.113  13.424  0.3472 -2.4948  0.4536
12306TIP3   OH258408   2.392   2.425   4.943  0.0621  0.1283 -0.3809
12306TIP3    H158409   2.362   2.371   4.869  0.8687 -0.0947 -0.5580
12306TIP3    H258410   2.400   2.513   4.907  1.4184 -0.1631 -0.8483
12307TIP3   OH258411   1.762   3.504   4.107  0.0838 -0.6500 -0.3465
12307TIP3    H158412   1.726   3.433   4.054 -0.2331 -0.8912  0.1783
12307TIP3    H258413   1.687   3.540   4.153  0.5191 -1.3526  0.9952
12308TIP3   OH258414   4.119   0.859  16.096 -0.1485 -0.5484  0.1164
12308TIP3    H158415   4.131   0.819  16.182 -2.0764  0.8045  1.1002
12308TIP3    H258416   4.033   0.830  16.067  0.0661 -0.2074 -0.9029
12309TIP3   OH258417   3.819   1.257  14.646  0.1402 -0.1186 -0.1501
12309TIP3    H158418   3.788   1.167  14.643 -0.8769  0.1929  0.3857
12309TIP3    H258419   3.740   1.310  14.632  0.5743  0.6975  0.4043
12310TIP3   OH258420   1.877   5.534   1.371 -0.4602 -0.0881  0.5051
12310TIP3    H158421   1.830   5.534   1.288 -2.3042  0.2709  1.4961
12310TIP3    H258422   1.862   5.622   1.406 -0.6770 -0.6016  1.7359
12311TIP3   OH258423   3.395   1.683   4.639  0.0559 -0.3530  0.1674
12311TIP3    H158424   3.445   1.609   4.606 -0.1348  0.3055 -1.6790
12311TIP3    H258425   3.447   1.760   4.618  0.1654  0.0863  1.9033
12312TIP3   OH258426   0.209   3.820  14.665 -0.3639 -0.3179  0.1340
12312TIP3    H158427   0.208   3.747  14.602 -1.8880 -0.4289  0.2333
12312TIP3    H258428   0.172   3.894  14.616  0.9568  0.3548  0.1059
12313TIP3   OH258429   1.364   2.480   4.003 -0.3224 -0.1675 -0.7611
12313TIP3    H158430   1.438   2.443   3.954 -1.0712 -0.8265 -1.4155
12313TIP3    H258431   1.337   2.556   3.952  0.0923  0.2667 -0.3501
12314TIP3   OH258432   1.318   5.632  12.680 -0.0804 -0.2686 -0.3849
12314TIP3    H158433   1.401   5.608  12.720 -0.1683 -0.7160 -0.4720
12314TIP3    H258434   1.307   5.724  12.702  0.8103  0.0099 -1.0135
12315TIP3   OH258435   3.947   4.758  13.973  0.2676  0.5430 -0.3350
12315TIP3    H158436   3.887   4.726  14.041  0.5759  1.6984  0.5150
12315TIP3    H258437   4.004   4.820  14.019  1.7550 -0.0941 -1.2368
12316TIP3   OH258438   4.454   5.967   6.131  0.1260  0.3563  0.5967
12316TIP3    H158439   4.400   6.020   6.190 -0.9549 -0.7840  0.6882
12316TIP3    H258440   4.538   5.958   6.176 -0.0747  1.0186  1.1126
12317TIP3   OH258441   3.204   3.615   0.000  0.5098  0.2124 -0.3448
12317TIP3    H158442   3.134   3.607   0.066  0.9684  0.7448  0.2137
12317TIP3    H258443   3.271   3.668   0.042  1.0186  0.1695 -1.0819
12318TIP3   OH258444   2.504   6.139  17.127  0.0126  0.2244 -0.1433
12318TIP3    H158445   2.554   6.073  17.079  0.6421  1.0270 -0.6123
12318TIP3    H258446   2.547   6.143  17.213  0.5574  0.6692 -0.4281
12319TIP3   OH258447   6.007   5.816  12.924 -0.4981 -0.4081  0.2384
12319TIP3    H158448   6.017   5.727  12.957  0.3211 -0.6078 -0.5057
12319TIP3    H258449   6.050   5.871  12.989  0.4996 -0.7349 -0.1204
12320TIP3   OH258450   0.404   0.158  16.331  0.2836  0.1566 -0.1125
12320TIP3    H158451   0.415   0.248  16.362  0.8816  0.2777 -0.6611
12320TIP3    H258452   0.328   0.161  16.273 -0.6283 -0.0019  1.0276
12321TIP3   OH258453   0.692   1.889  15.712  0.2266  0.3497  0.1883
12321TIP3    H158454   0.687   1.922  15.802  1.0543 -0.9436  0.7441
12321TIP3    H258455   0.602   1.889  15.681 -0.1312  0.3745  1.1946
12322TIP3   OH258456   2.222   3.168  15.106 -0.2049  1.0379  0.2370
12322TIP3    H158457   2.148   3.209  15.152 -0.9064  1.6424 -1.3581
12322TIP3    H258458   2.181   3.112  15.040  0.7152 -2.2614  2.2424
12323TIP3   OH258459   4.532   1.678   0.165 -0.1883  0.0727  0.1805
12323TIP3    H158460   4.588   1.638   0.231 -1.8466 -0.1516  1.5186
12323TIP3    H258461   4.501   1.759   0.206 -3.5704 -1.4329  1.0250
12324TIP3   OH258462   5.035   5.321  15.285 -0.4829  0.5939 -0.3318
12324TIP3    H158463   5.014   5.410  15.311  1.0499  1.3126 -1.4030
12324TIP3    H258464   4.964   5.268  15.322 -1.3164  2.2047  0.5001
12325TIP3   OH258465   3.323   4.210   3.788 -0.5470  0.0260  0.2200
12325TIP3    H158466   3.349   4.262   3.712 -2.0130 -0.2000 -0.4725
12325TIP3    H258467   3.250   4.157   3.756  0.6810 -2.2513  0.9647
12326TIP3   OH258468   6.055   0.484   4.762 -0.4035  0.2199 -0.3176
12326TIP3    H158469   6.084   0.393   4.762  0.3711  0.4067 -2.2847
12326TIP3    H258470   5.971   0.483   4.717 -0.8556  0.3819  0.5002
12327TIP3   OH258471   5.336   2.809  13.212 -0.3224  0.6442  0.1901
12327TIP3    H158472   5.365   2.722  13.183 -0.3372  0.9147 -0.6875
12327TIP3    H258473   5.244   2.797  13.237 -0.7930  0.6822 -1.3719
12328TIP3   OH258474   6.571   0.202   3.019 -0.3659 -0.5323 -0.1082
12328TIP3    H158475   6.568   0.284   2.970 -1.1902 -0.4096  0.1415
12328TIP3    H258476   6.491   0.156   2.995 -1.2263 -0.0863  1.7636
12329TIP3   OH258477   0.731   6.273   4.455 -0.3971 -0.4505 -0.7407
12329TIP3    H158478   0.780   6.353   4.439 -0.4848  0.0809  1.4154
12329TIP3    H258479   0.700   6.280   4.545  1.3282 -3.7870  0.3038
12330TIP3   OH258480   5.993   5.690   3.824  0.9042  0.0521 -0.0656
12330TIP3    H158481   6.029   5.640   3.897  0.0806 -0.8151 -0.2357
12330TIP3    H258482   6.001   5.631   3.749  0.2177  0.2951 -0.3379
12331TIP3   OH258483   1.874   1.674   5.225  0.4792 -0.0832 -0.3831
12331TIP3    H158484   1.969   1.681   5.237  0.3875  0.0846  0.2837
12331TIP3    H258485   1.837   1.719   5.301 -0.1408  0.7436 -1.1501
12332TIP3   OH258486   2.687   2.206   1.009 -0.0166  0.1779  0.2230
12332TIP3    H158487   2.681   2.277   1.073  0.0976  0.8833 -0.5279
12332TIP3    H258488   2.682   2.126   1.061 -1.6026  0.7217  0.9637
12333TIP3   OH258489   3.976   1.361   1.131 -0.0929 -0.2553  0.1157
12333TIP3    H158490   3.914   1.306   1.084 -0.8620  0.0614  0.7420
12333TIP3    H258491   3.969   1.333   1.222  0.5221 -0.0652  0.2264
12334TIP3   OH258492   5.165   0.332   4.432 -0.4566 -0.5425  0.2589
12334TIP3    H158493   5.112   0.354   4.508 -1.8625 -1.5475 -0.3883
12334TIP3    H258494   5.204   0.247   4.453 -0.6580 -0.7104 -0.0273
12335TIP3   OH258495   1.606   6.356  17.123  0.7071  0.0275  0.1336
12335TIP3    H158496   1.613   6.262  17.106  0.9310  0.0873 -0.1070
12335TIP3    H258497   1.624   6.397  17.038  1.1992  0.3087  0.3700
12336TIP3   OH258498   3.935   1.459  14.798 -0.0359  0.3491 -1.0169
12336TIP3    H158499   3.845   1.492  14.790  0.2403  0.7044 -3.0022
12336TIP3    H258500   3.929   1.368  14.769  0.5044  0.8210 -2.6558
12337TIP3   OH258501   4.468   2.884  11.823  0.1237  0.0755  0.1001
12337TIP3    H158502   4.384   2.888  11.776 -0.1562 -1.3208  0.4302
12337TIP3    H258503   4.445   2.853  11.910  0.8561  0.9056  0.6011
12338TIP3   OH258504   6.482   6.799   4.565 -0.1717  0.1006 -0.0380
12338TIP3    H158505   6.463   6.890   4.587  1.7538  0.9610 -1.6746
12338TIP3    H258506   6.426   6.780   4.490 -1.3255 -0.4597  0.9173
12339TIP3   OH258507   4.078   3.540   4.647  0.0536 -0.7617 -0.0333
12339TIP3    H158508   4.053   3.514   4.558  2.1421  0.2985 -0.9894
12339TIP3    H258509   4.105   3.458   4.690 -2.7258 -1.5842  0.3267
12340TIP3   OH258510   6.420   3.288   0.354  0.4952  0.7815 -0.3543
12340TIP3    H158511   6.399   3.267   0.445  0.7913  1.9277 -0.0059
12340TIP3    H258512   6.339   3.328   0.320  0.0278 -0.5852 -0.9300
12341TIP3   OH258513   2.200   2.182   2.305 -0.0106  0.1509  0.1330
12341TIP3    H158514   2.176   2.212   2.392  0.1918 -0.7322  0.5120
12341TIP3    H258515   2.206   2.086   2.314 -0.4952  0.0011 -0.9685
12342TIP3   OH258516   4.444   4.560  11.523  0.1982  0.0170  0.1631
12342TIP3    H158517   4.419   4.573  11.431  0.0629  1.6160  0.3909
12342TIP3    H258518   4.435   4.647  11.562 -1.2584 -0.9102  2.0624
12343TIP3   OH258519   1.653   1.725   0.520  0.3739  0.2196 -0.1080
12343TIP3    H158520   1.744   1.744   0.544 -0.4413  1.4937  2.3761
12343TIP3    H258521   1.602   1.793   0.564 -1.8428 -0.8329 -0.8850
12344TIP3   OH258522   5.826   6.419   5.270 -0.8285 -0.3438 -0.1637
12344TIP3    H158523   5.768   6.382   5.336 -2.1370 -1.9105 -2.0916
12344TIP3    H258524   5.802   6.376   5.189  2.1686 -0.0936 -1.3329
12345TIP3   OH258525   4.184   6.713  13.375  0.3237 -0.0965 -0.5394
12345TIP3    H158526   4.134   6.766  13.312  1.3692 -0.5365 -1.7721
12345TIP3    H258527   4.168   6.623  13.348  1.3236 -0.2607 -0.6250
12346TIP3   OH258528   4.302   2.522   1.163  0.2694 -0.2093 -0.2569
12346TIP3    H158529   4.335   2.436   1.138  2.0938  0.3260  0.1243
12346TIP3    H258530   4.231   2.504   1.225 -0.8338 -1.4384 -1.8085
12347TIP3   OH258531   0.652   1.275  11.723 -0.2543  0.2586 -0.0333
12347TIP3    H158532   0.691   1.272  11.811 -0.2355  0.4506 -0.0352
12347TIP3    H258533   0.610   1.361  11.718 -1.7231 -0.3958  0.4123
12348TIP3   OH258534   4.049   0.620  11.363 -0.4061 -0.4240 -0.1066
12348TIP3    H158535   4.017   0.572  11.287  0.1741  0.6173 -1.0506
12348TIP3    H258536   4.018   0.570  11.439 -2.8635 -0.3239 -0.9646
12349TIP3   OH258537   3.381   1.267   4.929  0.1098  0.1711  0.0224
12349TIP3    H158538   3.333   1.210   4.870 -0.3121 -0.8420  1.3103
12349TIP3    H258539   3.468   1.227   4.937  0.4393  0.7529 -0.5242
12350TIP3   OH258540   4.771   0.484   3.799 -1.0017  0.1536  0.1799
12350TIP3    H158541   4.712   0.545   3.755  0.4514  1.0826 -0.5897
12350TIP3    H258542   4.827   0.540   3.853 -0.6699 -0.6634  0.6896
12351TIP3   OH258543   6.368   5.070  13.869  0.0613  0.0470 -0.1966
12351TIP3    H158544   6.284   5.060  13.914 -0.1805 -0.2898 -0.7130
12351TIP3    H258545   6.430   5.020  13.921  0.3495  1.8284  1.2583
12352TIP3   OH258546   3.878   3.588   2.331  0.5415  0.0094 -0.3599
12352TIP3    H158547   3.880   3.683   2.321  0.1287 -0.0588 -1.1721
12352TIP3    H258548   3.854   3.555   2.244 -0.0296 -0.7988  0.0904
12353TIP3   OH258549   6.061   3.997   3.887  0.2286  0.1980  0.2462
12353TIP3    H158550   6.055   3.903   3.901  1.0720 -0.1079 -1.1405
12353TIP3    H258551   6.110   4.030   3.962  3.9575 -1.2058 -1.3435
12354TIP3   OH258552   3.631   3.734   0.320  0.3673  0.3046  0.1216
12354TIP3    H158553   3.611   3.654   0.369  2.2886 -1.5789 -1.9297
12354TIP3    H258554   3.638   3.802   0.387 -0.0811 -1.4956  2.0967
12355TIP3   OH258555   6.446   4.946   4.909  0.3795 -0.3901  0.2657
12355TIP3    H158556   6.436   4.863   4.862  0.6919  1.3824 -3.2332
12355TIP3    H258557   6.540   4.963   4.907  0.2375  0.4198  0.2113
12356TIP3   OH258558   3.742   6.444   5.828  0.1737  0.2209  1.0910
12356TIP3    H158559   3.724   6.537   5.814 -0.6801 -0.3750 -2.6514
12356TIP3    H258560   3.656   6.402   5.830  0.6156 -0.7722  0.0269
12357TIP3   OH258561   3.744   5.072  12.539  0.7584  0.3916 -0.1418
12357TIP3    H158562   3.662   5.120  12.548  0.1623 -0.4581 -0.8674
12357TIP3    H258563   3.772   5.088  12.449  2.0898  1.7326  0.4767
12358TIP3   OH258564   3.350   5.489   2.230  0.1639 -0.0762 -0.4345
12358TIP3    H158565   3.354   5.552   2.302  0.6865 -0.4615 -0.1083
12358TIP3    H258566   3.398   5.531   2.158  0.1151  0.0844 -0.3729
12359TIP3   OH258567   5.620   6.544   0.323 -0.4822 -0.3046 -0.1735
12359TIP3    H158568   5.679   6.476   0.292 -1.6323 -1.6482  0.4283
12359TIP3    H258569   5.634   6.547   0.418 -1.1905 -0.4794 -0.0537
12360TIP3   OH258570   6.056   2.325  12.391  0.1966  0.1890 -0.2916
12360TIP3    H158571   6.138   2.354  12.430  0.9798  0.3370 -1.9514
12360TIP3    H258572   6.028   2.399  12.336 -1.0329  0.1174  0.1926
12361TIP3   OH258573   4.999   6.080  15.048 -0.1662 -0.5113 -0.1444
12361TIP3    H158574   4.939   6.155  15.044  1.1112  0.5812  0.4393
12361TIP3    H258575   4.963   6.024  15.117 -1.3946 -0.7023 -0.9055
12362TIP3   OH258576   0.742   5.438   3.020 -0.5988 -0.7345 -0.6999
12362TIP3    H158577   0.660   5.388   3.026 -1.7026  1.0067 -0.4359
12362TIP3    H258578   0.782   5.430   3.106 -2.3705  1.3209  0.4229
12363TIP3   OH258579   0.698   1.689  10.428 -0.2496 -0.6953 -0.1606
12363TIP3    H158580   0.696   1.733  10.513 -1.5092 -0.4590 -0.2913
12363TIP3    H258581   0.790   1.665  10.416  0.1155  0.1090  0.8311
12364TIP3   OH258582   1.389   4.363  17.164 -0.2504 -0.0013  0.3500
12364TIP3    H158583   1.329   4.437  17.150  0.1163  0.2198 -0.0836
12364TIP3    H258584   1.471   4.391  17.124 -0.4868 -1.1750 -1.0455
12365TIP3   OH258585   0.854   6.729  17.035 -0.2228 -0.3449  0.1778
12365TIP3    H158586   0.885   6.656  16.981  0.7019 -0.9201  1.4374
12365TIP3    H258587   0.931   6.758  17.084 -0.6202  1.3703 -0.1485
12366TIP3   OH258588   6.796   4.403   4.940  0.7240  0.2269  0.3161
12366TIP3    H158589   6.731   4.393   4.871  1.9932  2.1544 -1.2887
12366TIP3    H258590   6.760   4.355   5.015 -1.4067 -0.6922 -1.2079
12367TIP3   OH258591   1.890   1.225   2.390 -0.4099 -0.0874  0.1353
12367TIP3    H158592   1.857   1.135   2.385 -1.3397  0.2623 -0.2331
12367TIP3    H258593   1.985   1.216   2.384 -0.3953 -1.1477  1.4711
12368TIP3   OH258594   5.215   2.447   0.253 -0.0135 -0.1600 -0.3006
12368TIP3    H158595   5.135   2.399   0.233  0.1801  0.1293 -1.8583
12368TIP3    H258596   5.249   2.474   0.168  0.7927  1.2698  0.4345
12369TIP3   OH258597   6.470   3.673  12.163  0.3134  0.0722 -0.6924
12369TIP3    H158598   6.401   3.660  12.098 -1.7692  1.4899  1.0826
12369TIP3    H258599   6.498   3.763  12.150  1.8913 -0.4977 -1.4031
12370TIP3   OH258600   6.377   4.875  11.123  0.4903  0.3894  0.5412
12370TIP3    H158601   6.347   4.917  11.042  1.4518  2.4285  1.1680
12370TIP3    H258602   6.454   4.824  11.097  0.8896  1.1630  0.1766
12371TIP3   OH258603   1.086   0.939  13.219 -0.3014  0.0100 -0.3738
12371TIP3    H158604   1.031   0.976  13.288  2.0734  0.8385  1.2016
12371TIP3    H258605   1.118   0.856  13.255  2.8652  1.5353  0.7191
12372TIP3   OH258606   1.566   4.153  12.417 -0.2799  0.3854 -0.7637
12372TIP3    H158607   1.527   4.240  12.432 -0.4176 -0.0276  1.6746
12372TIP3    H258608   1.516   4.094  12.474  2.3437 -0.5708  0.7314
12373TIP3   OH258609   4.947   1.415  13.867 -0.1724 -1.0582  0.4596
12373TIP3    H158610   4.913   1.342  13.921 -0.9113 -1.6225 -0.7293
12373TIP3    H258611   5.007   1.373  13.806  1.5260 -0.2668  1.5028
12374TIP3   OH258612   4.786   5.346  11.998  0.3141  0.2825  0.0660
12374TIP3    H158613   4.843   5.275  12.027  0.1996 -0.2265 -0.9184
12374TIP3    H258614   4.756   5.387  12.079  0.2289 -0.9101  0.6599
12375TIP3   OH258615   3.685   3.753  14.979 -0.1190  0.4000  0.7516
12375TIP3    H158616   3.610   3.808  15.002  0.7620  1.2208  1.7817
12375TIP3    H258617   3.681   3.680  15.041 -0.2848  0.2384  0.5512
12376TIP3   OH258618   5.859   1.496  11.815  0.1486 -0.1574 -0.0852
12376TIP3    H158619   5.852   1.427  11.881  0.3906  0.7989  0.9839
12376TIP3    H258620   5.950   1.490  11.784 -0.1563 -1.0423 -0.8479
12377TIP3   OH258621   4.854   5.281   1.634  0.6084 -0.0610  0.3207
12377TIP3    H158622   4.903   5.201   1.613 -3.0790 -2.0941 -1.4300
12377TIP3    H258623   4.829   5.317   1.549  0.6308  2.0328  1.1223
12378TIP3   OH258624   1.570   4.317  11.110  0.0460 -0.4667  0.1990
12378TIP3    H158625   1.474   4.311  11.108  0.0141 -1.4264  2.1466
12378TIP3    H258626   1.590   4.348  11.198  1.5727 -1.7979  0.3541
12379TIP3   OH258627   4.365   3.086   4.253 -0.2447  0.1939 -0.2659
12379TIP3    H158628   4.385   3.174   4.286  0.1908  0.1431 -0.3942
12379TIP3    H258629   4.272   3.091   4.228 -0.2485  0.5904 -0.1888
12380TIP3   OH258630   0.817   0.648   6.151  0.0596 -0.3834 -0.4162
12380TIP3    H158631   0.789   0.738   6.164 -0.1863 -0.5657  0.3772
12380TIP3    H258632   0.749   0.609   6.095 -0.8009 -0.5527  0.6987
12381TIP3   OH258633   4.742   6.727  16.957  0.1977 -0.3723 -0.0978
12381TIP3    H158634   4.796   6.747  16.881  0.9096 -0.0103  0.4888
12381TIP3    H258635   4.657   6.768  16.939  0.7772  0.8537 -0.1144
12382TIP3   OH258636   6.244   0.486  15.845 -0.0826  0.0484  0.3368
12382TIP3    H158637   6.328   0.495  15.801  0.3610  1.2323  1.3529
12382TIP3    H258638   6.240   0.394  15.871  0.4905 -0.2197 -0.5006
12383TIP3   OH258639   1.929   5.161  14.108 -0.6030  0.5142 -0.3654
12383TIP3    H158640   1.957   5.079  14.066 -1.1523 -0.4136  1.0263
12383TIP3    H258641   2.011   5.204  14.132 -0.3080 -0.4084  0.3398
12384TIP3   OH258642   5.215   6.699  16.894 -0.3507  0.0995  0.4265
12384TIP3    H158643   5.159   6.736  16.963  1.3448  1.9379  0.9257
12384TIP3    H258644   5.176   6.614  16.875 -3.2556  1.2157  0.7552
12385TIP3   OH258645   6.239   3.742  16.518  0.4379  0.1266 -0.1211
12385TIP3    H158646   6.279   3.712  16.600  0.9180 -1.9865 -1.0572
12385TIP3    H258647   6.147   3.759  16.541  0.8038  0.5869  1.0572
12386TIP3   OH258648   2.549   1.213  17.138  0.9023  0.2102  0.1781
12386TIP3    H158649   2.527   1.220  17.046 -1.1400  2.7316  0.7389
12386TIP3    H258650   2.539   1.120  17.158 -0.8559 -0.0638 -1.6504
12387TIP3   OH258651   0.779   4.506  14.361 -0.2539 -0.1540 -0.5977
12387TIP3    H158652   0.867   4.509  14.398 -0.4727  2.9100 -0.1003
12387TIP3    H258653   0.787   4.448  14.285  1.9906 -0.4908 -0.1732
12388TIP3   OH258654   5.049   4.526   1.377 -0.5075 -0.3770 -0.0095
12388TIP3    H158655   5.016   4.437   1.387  0.7298 -0.9087 -0.4901
12388TIP3    H258656   5.067   4.534   1.283  0.1374  0.1011  0.1542
12389TIP3   OH258657   5.962   3.246  15.484  1.1960  0.3557 -0.2643
12389TIP3    H158658   5.955   3.342  15.484 -0.4091  0.2780 -1.1013
12389TIP3    H258659   5.920   3.220  15.402  1.0813 -1.0959  0.2351
12390TIP3   OH258660   1.238   0.561  11.388 -0.2071  0.2811 -0.6932
12390TIP3    H158661   1.240   0.493  11.321  0.3008 -0.1449 -0.2534
12390TIP3    H258662   1.290   0.525  11.461  0.2471  1.2141 -0.5390
12391TIP3   OH258663   5.096   0.868  12.934 -0.6480  0.0141 -0.0290
12391TIP3    H158664   5.032   0.927  12.973 -1.8775 -1.5464  0.3506
12391TIP3    H258665   5.050   0.827  12.860 -0.5673 -2.0974  1.0270
12392TIP3   OH258666   1.562   5.451  16.143  0.2454  0.6846 -0.1793
12392TIP3    H158667   1.471   5.440  16.173  0.1722 -1.1474 -0.9318
12392TIP3    H258668   1.615   5.434  16.221 -0.0334  0.5970 -0.0077
12393TIP3   OH258669   4.396   4.267  14.198 -0.5763  0.7231  0.4825
12393TIP3    H158670   4.344   4.345  14.218 -1.9675  0.3481 -1.4404
12393TIP3    H258671   4.450   4.293  14.123 -1.3075 -0.2481 -0.3968
12394TIP3   OH258672   6.689   1.880   2.782  0.2525  0.1053 -0.7231
12394TIP3    H158673   6.723   1.965   2.812  2.6598 -0.3217 -1.9552
12394TIP3    H258674   6.681   1.891   2.687 -1.4050 -0.4579 -0.6856
12395TIP3   OH258675   0.486   5.874   0.303 -0.1339  0.3740 -0.5092
12395TIP3    H158676   0.581   5.873   0.313 -0.0982 -1.9132 -0.3778
12395TIP3    H258677   0.471   5.863   0.209 -0.1991 -1.5856 -0.3073
12396TIP3   OH258678   0.616   6.532   1.446  0.1437 -0.6895 -0.1667
12396TIP3    H158679   0.698   6.490   1.418 -1.2781 -3.4107 -0.6764
12396TIP3    H258680   0.591   6.483   1.525 -1.1662 -0.1700 -0.2477
12397TIP3   OH258681   3.242   1.167   0.079 -0.2492  0.1041 -0.0440
12397TIP3    H158682   3.314   1.104   0.082 -1.4909 -1.3151  0.9987
12397TIP3    H258683   3.191   1.141   0.002 -0.3697  0.2982 -0.0310
12398TIP3   OH258684   4.307   5.483   4.497 -0.5687  0.9718 -0.4601
12398TIP3    H158685   4.347   5.406   4.537 -2.0703 -1.0315 -2.5760
12398TIP3    H258686   4.380   5.546   4.489  0.9752 -0.6283  0.3109
12399TIP3   OH258687   0.009   2.819  15.703  0.2760  0.0480 -0.2011
12399TIP3    H158688  -0.013   2.910  15.723  0.4146  0.3590 -1.3806
12399TIP3    H258689  -0.004   2.772  15.785  0.1595  1.1266  0.4106
12400TIP3   OH258690   5.304   1.084   1.061 -0.3074  0.6083 -0.1254
12400TIP3    H158691   5.327   1.053   0.974 -0.4439 -0.9036  0.3484
12400TIP3    H258692   5.301   1.180   1.053 -1.4139  0.4641 -2.0559
12401TIP3   OH258693   6.155   1.783  14.537 -0.3890  0.9646  0.5550
12401TIP3    H158694   6.241   1.774  14.579 -0.0152  0.7814 -0.2164
12401TIP3    H258695   6.092   1.785  14.609  0.3357  2.0957  1.1822
12402TIP3   OH258696   6.415   5.840   3.739 -0.6365 -0.4417 -0.2768
12402TIP3    H158697   6.381   5.832   3.828 -4.4563  3.7321 -1.0085
12402TIP3    H258698   6.372   5.770   3.690  0.4287 -1.8984  0.7726
12403TIP3   OH258699   4.586   5.403  16.807 -0.3377  0.3246 -0.5628
12403TIP3    H158700   4.582   5.439  16.895 -2.1464 -1.6174  0.2398
12403TIP3    H258701   4.551   5.314  16.816 -0.7269  0.1233 -3.2676
12404TIP3   OH258702   6.842   3.469   2.271  0.0228 -0.3824 -0.1323
12404TIP3    H158703   6.836   3.518   2.189  1.7740  0.3717  0.1411
12404TIP3    H258704   6.934   3.477   2.297  0.0036 -2.5036  0.7682
12405TIP3   OH258705   2.827   4.705  10.483  0.6522  0.5921  0.5798
12405TIP3    H158706   2.804   4.761  10.409 -2.8059 -0.1540  0.9206
12405TIP3    H258707   2.865   4.627  10.442  1.9578  1.5538 -0.1244
12406TIP3   OH258708   0.804   3.671   2.788 -0.2157 -0.0963  0.1133
12406TIP3    H158709   0.734   3.724   2.751  1.2004  2.7833  1.2606
12406TIP3    H258710   0.761   3.620   2.857 -1.2332  1.6421  0.8304
12407TIP3   OH258711   2.809   5.125   1.617 -0.1116  0.1146  0.3608
12407TIP3    H158712   2.765   5.052   1.575  1.2495 -2.1128  2.5432
12407TIP3    H258713   2.743   5.194   1.621 -2.0182 -1.5821 -0.2333
12408TIP3   OH258714   2.121   0.046  14.881  0.0306 -0.0632 -0.2186
12408TIP3    H158715   2.050   0.076  14.824 -1.2725  0.3023  1.5251
12408TIP3    H258716   2.078   0.023  14.963  1.9688  0.3491  0.9678
12409TIP3   OH258717   1.928   5.832  12.117 -0.3017  0.3482 -0.1598
12409TIP3    H158718   1.996   5.845  12.052 -0.7335  1.9415 -0.3259
12409TIP3    H258719   1.891   5.746  12.097 -0.8272  1.0532 -2.3916
12410TIP3   OH258720   3.701   3.198  11.164  0.0843 -0.2537 -0.1744
12410TIP3    H158721   3.673   3.185  11.255  1.4704  1.3714  0.5604
12410TIP3    H258722   3.761   3.125  11.147  1.5809  0.6092  1.0656
12411TIP3   OH258723   2.374   4.990   4.035 -0.0432  0.1142  0.5936
12411TIP3    H158724   2.446   5.050   4.015  0.4309 -0.9667 -1.2659
12411TIP3    H258725   2.299   5.027   3.990 -0.5556  0.9636  2.0994
12412TIP3   OH258726   2.948   4.593   6.164 -0.1576  0.1054 -0.4006
12412TIP3    H158727   2.922   4.681   6.191  3.0844  1.1064 -0.1349
12412TIP3    H258728   3.044   4.593   6.169 -0.0170 -3.4532 -0.4408
12413TIP3   OH258729   4.993   3.271   4.608 -0.3620  0.4784 -0.1882
12413TIP3    H158730   5.077   3.284   4.566  1.0139  1.1686  2.5120
12413TIP3    H258731   4.989   3.176   4.624  0.9156  0.6268  1.3801
12414TIP3   OH258732   3.596   4.757  14.010  0.2270  0.3003 -0.1222
12414TIP3    H158733   3.563   4.702  13.939  1.1244 -1.1958  0.5726
12414TIP3    H258734   3.681   4.718  14.033  1.2022  2.3688 -0.0147
12415TIP3   OH258735   0.686   4.296   0.582  0.6335 -0.1815  0.3013
12415TIP3    H158736   0.666   4.318   0.673  0.8687  0.3686  0.2306
12415TIP3    H258737   0.638   4.216   0.564 -0.3335  0.3231  0.5613
12416TIP3   OH258738   5.418   2.313  13.201  0.4719 -0.7374 -0.1090
12416TIP3    H158739   5.474   2.388  13.222 -1.0179  0.5945 -0.6841
12416TIP3    H258740   5.364   2.302  13.279 -0.3800 -0.1808 -0.6059
12417TIP3   OH258741   6.179   2.764  12.818 -0.3891 -0.1702  0.4269
12417TIP3    H158742   6.112   2.816  12.861 -0.3995 -0.3094  0.5791
12417TIP3    H258743   6.177   2.680  12.863 -0.1681 -0.2027  0.3790
12418TIP3   OH258744   0.594   3.643  15.901  0.6798  0.4019 -0.2055
12418TIP3    H158745   0.531   3.573  15.885  0.8686  0.3761 -0.8364
12418TIP3    H258746   0.561   3.687  15.980  0.1923  0.0275 -0.1977
12419TIP3   OH258747   0.802   4.949  12.370 -0.2528  0.2388 -0.0852
12419TIP3    H158748   0.807   4.934  12.276 -0.3691 -1.1721  0.1142
12419TIP3    H258749   0.823   4.865  12.409  2.7088  1.4705  1.2418
12420TIP3   OH258750   2.869   6.044  16.399 -0.1295  0.1142 -0.0634
12420TIP3    H158751   2.845   5.975  16.461 -0.4200  1.1397  0.9863
12420TIP3    H258752   2.859   6.003  16.313  0.1479 -1.2878  0.5471
12421TIP3   OH258753   5.802   2.876   5.310  0.5608  0.0121 -0.2190
12421TIP3    H158754   5.813   2.782   5.323  0.6017 -0.0363 -0.5907
12421TIP3    H258755   5.853   2.916   5.381 -0.6427 -0.2515  0.8348
12422TIP3   OH258756   5.230   5.953  15.874  0.4083  0.5756  0.3902
12422TIP3    H158757   5.271   5.932  15.958  1.3439 -0.8573 -0.3782
12422TIP3    H258758   5.282   5.904  15.810 -1.1613  0.4961 -0.8658
12423TIP3   OH258759   1.733   6.657   5.810  0.1658  0.1820  0.8552
12423TIP3    H158760   1.788   6.720   5.765  0.6242 -0.0943  1.0158
12423TIP3    H258761   1.725   6.584   5.749  0.3804  0.0175  1.0200
12424TIP3   OH258762   3.665   1.321   0.207  0.1137 -0.3696  0.0442
12424TIP3    H158763   3.623   1.239   0.231  0.6123 -0.9146 -0.8763
12424TIP3    H258764   3.725   1.297   0.136 -0.9693  1.0597 -1.4290
12425TIP3   OH258765   0.065   0.220   3.493 -0.3091 -0.1055 -0.2682
12425TIP3    H158766   0.042   0.128   3.498  0.0905 -0.4243 -2.7032
12425TIP3    H258767  -0.000   0.265   3.546 -1.5061 -1.6495 -0.3706
12426TIP3   OH258768   1.940   3.407  14.172  0.1889  0.6685  0.1648
12426TIP3    H158769   2.023   3.424  14.216  1.2826  0.1018 -1.5605
12426TIP3    H258770   1.916   3.491  14.132 -0.9357  1.2499  1.9614
12427TIP3   OH258771   5.522   1.767  17.030  0.5244  0.8155 -0.3489
12427TIP3    H158772   5.484   1.849  17.062  1.6913  1.3867 -0.3629
12427TIP3    H258773   5.615   1.775  17.050  0.6459 -0.5421 -0.3034
12428TIP3   OH258774   5.981   4.500  14.429 -0.0179 -0.1834 -0.2693
12428TIP3    H158775   6.016   4.492  14.518 -2.1438 -2.5501  0.4874
12428TIP3    H258776   5.932   4.582  14.431  2.1165  1.1672 -0.1659
12429TIP3   OH258777   4.622   1.631  13.215 -0.5576  0.0457 -0.0481
12429TIP3    H158778   4.647   1.707  13.266 -0.6348  0.6127 -0.8416
12429TIP3    H258779   4.693   1.620  13.152 -2.4230  2.0418 -2.7414
12430TIP3   OH258780   4.423   3.304  11.080 -0.6717 -0.1610 -0.0460
12430TIP3    H158781   4.370   3.292  11.001 -0.8075  0.3303 -0.0328
12430TIP3    H258782   4.479   3.379  11.061  0.4012 -0.9926 -0.2502
12431TIP3   OH258783   2.364   6.191  15.814  0.8221  0.2938  0.0386
12431TIP3    H158784   2.326   6.161  15.897  0.2038 -0.3256 -0.4617
12431TIP3    H258785   2.300   6.167  15.748  2.2473 -1.1733 -0.8941
12432TIP3   OH258786   5.375   4.218   0.914 -0.6178  0.1965 -0.1660
12432TIP3    H158787   5.297   4.240   0.965 -0.7530  0.9888 -0.6848
12432TIP3    H258788   5.444   4.273   0.951 -0.8276  1.1431 -1.1214
12433TIP3   OH258789   0.881   3.838   5.917 -0.5865  0.1671 -0.1511
12433TIP3    H158790   0.866   3.911   5.977 -1.4241  0.6949 -0.9530
12433TIP3    H258791   0.976   3.833   5.908 -0.3313 -0.8951  2.3153
12434TIP3   OH258792   5.924   6.739   0.445  0.4450 -0.3420  0.6416
12434TIP3    H158793   6.000   6.772   0.396 -0.2875  0.1432 -0.2014
12434TIP3    H258794   5.962   6.696   0.522  1.6144 -0.7956 -0.1584
12435TIP3   OH258795   3.643   4.401  14.708  0.1304  0.1339 -0.5724
12435TIP3    H158796   3.634   4.493  14.731 -1.2439 -0.0056 -0.4319
12435TIP3    H258797   3.697   4.401  14.629  1.7579  0.8968  0.4992
12436TIP3   OH258798   4.971   4.413  13.000  0.4101 -0.4843 -0.4065
12436TIP3    H158799   4.987   4.337  13.057  1.3893 -1.0896 -1.4472
12436TIP3    H258800   4.956   4.485  13.060 -0.3562 -1.4642  0.6162
12437TIP3   OH258801   1.072   4.315   1.704 -0.1757  0.4354  0.2222
12437TIP3    H158802   1.099   4.247   1.643  1.7445  0.7025  0.6850
12437TIP3    H258803   1.004   4.275   1.757  0.8318 -1.1212  0.4004
12438TIP3   OH258804   6.396   6.416  14.898 -0.8335  0.0381 -0.3962
12438TIP3    H158805   6.400   6.453  14.986  0.9288 -3.8406  1.4158
12438TIP3    H258806   6.487   6.414  14.869 -0.7133 -3.0817 -0.1077
12439TIP3   OH258807   3.050   0.428   5.973 -1.2174 -0.2781  0.0528
12439TIP3    H158808   3.104   0.470   5.906 -1.2567 -0.7701 -0.2878
12439TIP3    H258809   3.108   0.362   6.012 -1.9115 -1.6193 -1.1094
12440TIP3   OH258810   2.561   5.309   3.528 -0.0194  0.5541 -0.0072
12440TIP3    H158811   2.508   5.323   3.606 -0.2728 -1.1076  0.1518
12440TIP3    H258812   2.511   5.349   3.457  1.4104  4.4520  0.9398
12441TIP3   OH258813   4.071   1.755   3.216  0.0803  0.3408 -0.0699
12441TIP3    H158814   4.012   1.797   3.153 -0.9948 -0.1646  0.5880
12441TIP3    H258815   4.093   1.825   3.278 -2.7195 -0.2521  1.7674
12442TIP3   OH258816   0.361   5.199   4.487 -0.3220 -0.1800  0.2829
12442TIP3    H158817   0.351   5.204   4.582  0.1979  1.6962  0.2749
12442TIP3    H258818   0.329   5.284   4.455  2.4819  0.5299 -0.9092
12443TIP3   OH258819   5.693   0.568  10.262  0.5757 -0.1306 -0.1850
12443TIP3    H158820   5.742   0.598  10.339 -0.6957 -2.3446  1.6331
12443TIP3    H258821   5.619   0.628  10.255  0.7299  0.1209  0.2964
12444TIP3   OH258822   1.452   6.076  12.533  0.1578  0.6132 -0.6223
12444TIP3    H158823   1.536   6.122  12.535 -0.3065  1.4915 -0.8568
12444TIP3    H258824   1.391   6.138  12.494 -0.9013  0.5008  0.7389
12445TIP3   OH258825   4.037   2.521  11.400  0.2471  0.0791 -0.1587
12445TIP3    H158826   4.007   2.446  11.452 -0.1914  0.1010 -0.3786
12445TIP3    H258827   4.105   2.562  11.454  0.8359 -0.7544 -0.2427
12446TIP3   OH258828   3.063   3.714   2.908 -0.1586  0.1936  0.4022
12446TIP3    H158829   2.982   3.719   2.859 -0.1666 -1.1931  0.2384
12446TIP3    H258830   3.104   3.632   2.880 -0.2750 -0.7829  2.8305
12447TIP3   OH258831   6.501   3.211   3.560 -0.0729 -0.1650 -0.2030
12447TIP3    H158832   6.487   3.301   3.588  1.1081  0.1275 -0.4940
12447TIP3    H258833   6.461   3.157   3.628  0.0791  0.5701  0.4778
12448TIP3   OH258834   3.985   5.805   4.156 -0.6055 -0.0049 -0.2656
12448TIP3    H158835   4.000   5.872   4.223  0.3010  1.5302 -1.9154
12448TIP3    H258836   4.057   5.743   4.167 -0.5579  0.1379  0.2617
12449TIP3   OH258837   5.106   5.696  10.590  0.2932  0.1814 -0.9146
12449TIP3    H158838   5.097   5.790  10.605 -0.7479 -0.0698  0.1422
12449TIP3    H258839   5.071   5.682  10.502  1.9823  0.9810 -1.7727
12450TIP3   OH258840   1.999   5.242   1.133  0.2073  0.2963 -0.4567
12450TIP3    H158841   1.944   5.247   1.212  0.2760 -1.6807 -0.2428
12450TIP3    H258842   1.940   5.265   1.062 -1.1187 -2.2352 -0.2835
12451TIP3   OH258843   0.887   6.805   3.519 -0.1277  0.4007  0.0280
12451TIP3    H158844   0.814   6.811   3.456 -0.6848  0.9605  0.7151
12451TIP3    H258845   0.939   6.883   3.503 -0.7582  1.0046  0.8449
12452TIP3   OH258846   2.294   4.910   1.424 -0.6549 -0.6136  0.3585
12452TIP3    H158847   2.277   4.819   1.399  1.6996 -2.2646  3.9687
12452TIP3    H258848   2.210   4.954   1.412 -1.9030 -3.2082 -1.4560
12453TIP3   OH258849   4.133   2.955  15.325  0.0255  0.5259  0.6934
12453TIP3    H158850   4.209   2.988  15.372 -0.6184  0.3803  1.8612
12453TIP3    H258851   4.060   2.962  15.387 -0.9478  0.7762 -0.4384
12454TIP3   OH258852   3.357   4.164  16.595 -0.6044 -0.4078 -0.0453
12454TIP3    H158853   3.402   4.109  16.660  1.6803 -1.7629 -2.5745
12454TIP3    H258854   3.327   4.102  16.528 -2.2223  1.0191 -0.7249
12455TIP3   OH258855   6.785   2.284  15.882  0.1136  0.1615  0.3576
12455TIP3    H158856   6.763   2.235  15.803 -0.7149  2.3550 -0.8439
12455TIP3    H258857   6.877   2.308  15.872 -0.1533  0.9701 -0.2872
12456TIP3   OH258858   0.718   5.975  16.543 -0.5478  0.0853  0.2952
12456TIP3    H158859   0.643   5.917  16.538 -0.8426  0.5102 -0.4795
12456TIP3    H258860   0.709   6.032  16.467  0.0351  0.7765  0.7289
12457TIP3   OH258861   3.427   5.639  12.757 -0.0508 -0.5958 -0.0157
12457TIP3    H158862   3.518   5.641  12.787  0.7488 -1.3959 -2.2112
12457TIP3    H258863   3.431   5.669  12.667 -1.5420 -3.1879 -1.0577
12458TIP3   OH258864   2.291   0.655   1.325 -0.2470  0.1083  0.2952
12458TIP3    H158865   2.296   0.709   1.246 -0.1506  0.1691  0.3421
12458TIP3    H258866   2.219   0.694   1.376  0.8089  1.1619  1.0414
12459TIP3   OH258867   3.254   3.283   2.683 -0.4078  0.2609 -0.4371
12459TIP3    H158868   3.316   3.353   2.662  1.0308 -1.0442 -0.7184
12459TIP3    H258869   3.214   3.311   2.765 -1.0100  2.1235 -1.2999
12460TIP3   OH258870   1.228   0.395  10.891 -0.2006  0.2402 -0.0292
12460TIP3    H158871   1.311   0.425  10.854  1.5474 -2.8153  1.0137
12460TIP3    H258872   1.195   0.331  10.828 -2.1061  1.6846 -0.6250
12461TIP3   OH258873   3.035   2.452   2.643 -0.1140 -0.1724 -0.0563
12461TIP3    H158874   3.046   2.475   2.551  1.2101  2.3548  0.6437
12461TIP3    H258875   3.108   2.392   2.662  2.1597  2.4508  0.1953
12462TIP3   OH258876   1.028   1.678   4.181 -0.2754  0.8637 -0.3056
12462TIP3    H158877   0.990   1.720   4.104  1.5899 -1.3251 -2.5994
12462TIP3    H258878   0.978   1.596   4.191  1.7748 -0.6617 -1.6204
12463TIP3   OH258879   5.579   0.948   3.892 -0.4402  0.2046 -1.1388
12463TIP3    H158880   5.522   1.006   3.942  0.0029 -1.9958  2.2804
12463TIP3    H258881   5.661   0.996   3.884 -0.9124  1.0816 -0.8316
12464TIP3   OH258882   3.966   0.118  11.803 -0.2539  0.2327 -0.0972
12464TIP3    H158883   3.952   0.030  11.768  0.6211 -0.8371  2.0270
12464TIP3    H258884   4.054   0.141  11.775  0.6232 -0.8099  1.5883
12465TIP3   OH258885   1.913   2.558   2.903  0.2561  0.1426  0.5325
12465TIP3    H158886   1.891   2.490   2.840 -0.3310  0.3468  0.5077
12465TIP3    H258887   1.842   2.555   2.968 -1.1220  2.3086 -0.7451
12466TIP3   OH258888   3.178   0.687  15.587  0.1864 -0.5842 -0.0414
12466TIP3    H158889   3.195   0.705  15.495  0.7521  1.0239  0.3500
12466TIP3    H258890   3.244   0.623  15.612 -0.5055 -1.6874 -0.9407
12467TIP3   OH258891   0.421   2.261  13.532  0.4619  0.0186 -0.4653
12467TIP3    H158892   0.342   2.286  13.580  0.5723 -1.6925  0.7032
12467TIP3    H258893   0.476   2.339  13.533  0.7103 -0.0697  2.7903
12468TIP3   OH258894   4.943   2.238   4.203 -0.6374 -0.0996 -0.4407
12468TIP3    H158895   4.948   2.164   4.263 -1.6600 -0.1990 -0.4637
12468TIP3    H258896   4.856   2.232   4.164  0.2222 -0.4323 -2.4561
12469TIP3   OH258897   4.847   5.343  11.741 -0.0263 -0.1207 -0.1473
12469TIP3    H158898   4.840   5.344  11.836  0.4649  1.3211 -0.0979
12469TIP3    H258899   4.795   5.419  11.713  0.2024 -0.2724 -0.9992
12470TIP3   OH258900   6.402   6.449  14.261  0.6308 -0.2360  0.0145
12470TIP3    H158901   6.416   6.358  14.237  0.5994 -0.2868  0.1832
12470TIP3    H258902   6.338   6.481  14.198 -1.1910 -1.0027  1.3694
12471TIP3   OH258903   4.979   0.633   5.214  0.3241 -0.9164 -0.4386
12471TIP3    H158904   4.922   0.710   5.226  0.1816 -0.5191 -3.1247
12471TIP3    H258905   4.918   0.560   5.207  0.3645 -1.0246  0.2639
12472TIP3   OH258906   4.097   0.111  15.612  0.8835  0.1470 -0.2440
12472TIP3    H158907   4.123   0.166  15.686  1.7902 -0.0107 -0.4280
12472TIP3    H258908   4.139   0.152  15.536  3.0368 -1.7087 -0.1605
12473TIP3   OH258909   0.743   4.379  16.768  0.0325  0.5700 -0.3533
12473TIP3    H158910   0.741   4.304  16.827  0.4847 -0.3053 -1.4235
12473TIP3    H258911   0.683   4.442  16.808 -0.3559 -0.3510  0.5656
12474TIP3   OH258912   1.785   0.968  14.714  0.1292 -0.0120 -0.1609
12474TIP3    H158913   1.824   0.910  14.648  2.8538  0.8813  0.5345
12474TIP3    H258914   1.723   1.022  14.664 -1.3408 -2.4062 -1.0808
12475TIP3   OH258915   4.946   1.289   5.341  0.0090 -0.2170 -0.2863
12475TIP3    H158916   4.903   1.298   5.426  2.6933  2.9931  0.9312
12475TIP3    H258917   5.038   1.270   5.362  0.7401  0.6107 -2.4541
12476TIP3   OH258918   2.240   5.720   0.170 -0.4072  0.4961  0.6574
12476TIP3    H158919   2.168   5.781   0.156 -1.3918 -0.2140  2.2710
12476TIP3    H258920   2.292   5.759   0.240  0.0847  0.4102  0.3483
12477TIP3   OH258921   1.891   3.787   5.095  0.3879 -0.1549 -0.2329
12477TIP3    H158922   1.915   3.761   5.006 -1.1861  1.5262 -1.2115
12477TIP3    H258923   1.905   3.882   5.097 -2.7649  0.4118  0.1547
12478TIP3   OH258924   6.143   0.363  14.337 -0.0394  0.2182 -0.2878
12478TIP3    H158925   6.227   0.316  14.339 -0.1537  0.0222  0.4354
12478TIP3    H258926   6.157   0.435  14.276  0.2671 -0.5319 -1.1141
12479TIP3   OH258927   1.902   1.924  14.107  0.0544 -0.3367 -0.5196
12479TIP3    H158928   1.940   1.837  14.094  2.1554  0.4363 -0.0498
12479TIP3    H258929   1.950   1.979  14.045  0.9797  1.0087  1.2985
12480TIP3   OH258930   2.120   4.496  14.366 -0.2901 -0.0023 -0.2311
12480TIP3    H158931   2.183   4.425  14.379 -0.2986  0.2916  1.6284
12480TIP3    H258932   2.039   4.464  14.407 -1.2003 -0.1124 -2.0321
12481TIP3   OH258933   3.839   5.905  14.883 -0.3170 -0.0422  0.3441
12481TIP3    H158934   3.847   5.940  14.972 -4.0183 -0.5646  1.0241
12481TIP3    H258935   3.765   5.953  14.845 -0.9308 -2.1160 -1.2424
12482TIP3   OH258936   6.016   6.096   0.353  0.5016  0.3311  0.1605
12482TIP3    H158937   6.012   6.031   0.283 -0.0847  0.1840  0.3228
12482TIP3    H258938   6.060   6.050   0.425  0.5120  0.2690  0.1149
12483TIP3   OH258939   0.412   5.284  12.256 -0.1034  0.3285  0.0571
12483TIP3    H158940   0.434   5.192  12.271 -1.1131  0.3763  2.0948
12483TIP3    H258941   0.457   5.306  12.174  0.5252 -1.8357 -0.2407
12484TIP3   OH258942   5.471   2.516  13.496  0.2015  0.0411  0.2239
12484TIP3    H158943   5.415   2.440  13.480  0.0816  0.2622 -0.3992
12484TIP3    H258944   5.501   2.544  13.410  1.5245 -0.2484  0.5589
12485TIP3   OH258945   4.773   6.582  12.349  0.3729  0.1131  0.1037
12485TIP3    H158946   4.748   6.537  12.268 -0.7909 -0.4945  0.7795
12485TIP3    H258947   4.765   6.675  12.327  0.3548 -0.0379 -0.5658
12486TIP3   OH258948   0.866   1.619  14.048 -0.0667 -0.2919  0.5197
12486TIP3    H158949   0.915   1.686  14.001  1.0516 -1.0274  0.6186
12486TIP3    H258950   0.892   1.630  14.139 -1.0098  0.0902  0.7536
12487TIP3   OH258951   4.021   3.509   1.966 -0.0213 -0.3827 -0.1508
12487TIP3    H158952   4.008   3.479   2.056  1.2429 -0.0685  0.1632
12487TIP3    H258953   3.982   3.440   1.912  0.0864 -1.0785  0.6233
12488TIP3   OH258954   1.244   2.437  13.431  0.0132 -0.2946  0.5491
12488TIP3    H158955   1.234   2.511  13.371  1.4268 -0.6448 -0.1548
12488TIP3    H258956   1.334   2.442  13.461  0.5569 -2.4949 -0.5734
12489TIP3   OH258957   4.262   3.044  17.121  0.0016  0.2621  0.3440
12489TIP3    H158958   4.219   3.129  17.136 -1.1255 -0.3706  0.8320
12489TIP3    H258959   4.342   3.049  17.173  0.5407  1.4626 -0.5650
12490TIP3   OH258960   2.494   5.543  14.345 -0.5195  0.6984  0.0523
12490TIP3    H158961   2.542   5.461  14.350 -1.0301  0.1750 -2.4118
12490TIP3    H258962   2.402   5.518  14.351 -0.6339  1.3746  1.6278
12491TIP3   OH258963   1.007   5.781   5.140  0.1371  0.0463 -0.1903
12491TIP3    H158964   0.954   5.813   5.212  0.0546  1.5785 -0.8982
12491TIP3    H258965   0.944   5.760   5.071  0.2108 -1.4665  0.1567
12492TIP3   OH258966   1.955   6.049  14.041 -0.0219 -0.6001 -0.3088
12492TIP3    H158967   1.925   5.963  14.009 -3.0954  0.6444 -1.0851
12492TIP3    H258968   1.993   6.090  13.963 -0.9171 -0.3134 -0.6091
12493TIP3   OH258969   6.296   2.945  13.865  0.0913  0.5789 -0.3462
12493TIP3    H158970   6.390   2.934  13.880  0.2565  1.7502 -0.4340
12493TIP3    H258971   6.256   2.867  13.903  0.9501  0.9255  1.3597
12494TIP3   OH258972   3.750   3.597   1.810 -0.1040 -0.2437 -0.1258
12494TIP3    H158973   3.659   3.577   1.834  0.3675 -0.6607  1.3661
12494TIP3    H258974   3.775   3.669   1.868  0.6161 -0.3105 -0.3449
12495TIP3   OH258975   4.201   5.842   6.342 -0.2193  0.1690 -0.2512
12495TIP3    H158976   4.210   5.922   6.393 -0.4591  0.8653 -1.2721
12495TIP3    H258977   4.216   5.771   6.405 -0.6383  0.9932  0.7917
12496TIP3   OH258978   3.948   0.524   2.215 -0.3216 -0.3171 -0.1038
12496TIP3    H158979   3.938   0.610   2.254  1.5126  0.2443 -0.7714
12496TIP3    H258980   3.982   0.468   2.286  0.1064 -0.0505 -0.0928
12497TIP3   OH258981   5.748   0.806  15.561 -0.0928  0.4681 -0.3885
12497TIP3    H158982   5.698   0.724  15.558  2.4566 -1.1573 -2.3738
12497TIP3    H258983   5.767   0.818  15.654 -0.3602 -1.3228 -0.0518
12498TIP3   OH258984   4.294   5.000  15.546  0.1457  0.4102 -0.2229
12498TIP3    H158985   4.323   5.031  15.632  1.3971  0.8382 -0.7816
12498TIP3    H258986   4.373   5.000  15.492 -0.6311  0.2102 -1.4035
12499TIP3   OH258987   0.681   1.093   2.836 -0.4189  0.4513 -0.1840
12499TIP3    H158988   0.621   1.042   2.780 -0.0135 -0.4105  0.1505
12499TIP3    H258989   0.754   1.034   2.852  1.3537  2.0325 -1.9378
12500TIP3   OH258990   6.401   4.054   1.204  0.1176  0.3148  0.7954
12500TIP3    H158991   6.399   4.097   1.290 -2.0146 -0.7022  1.3324
12500TIP3    H258992   6.404   4.127   1.141  1.6963  1.0717  1.7035
12501TIP3   OH258993   0.404   4.123  14.621 -0.1097 -0.0548 -0.2614
12501TIP3    H158994   0.351   4.044  14.609 -0.7645  0.5075 -1.1317
12501TIP3    H258995   0.416   4.158  14.533 -1.4174  1.8554  0.2576
12502TIP3   OH258996   2.722   1.365  12.951 -0.3647  0.1606  0.0676
12502TIP3    H158997   2.742   1.441  13.005 -0.9955  1.5274 -1.5558
12502TIP3    H258998   2.640   1.386  12.908 -0.4435 -1.3517 -0.5978
12503TIP3   OH258999   6.414   2.317  11.081 -0.1960  0.7145  0.4373
12503TIP3    H159000   6.336   2.370  11.067  0.0089  0.6381 -1.1402
12503TIP3    H259001   6.389   2.229  11.051  0.4411  0.6536  0.0739
12504TIP3   OH259002   5.771   2.923   5.886  0.1093  0.0228 -0.4458
12504TIP3    H159003   5.758   2.876   5.968 -2.2849  1.1468 -0.0988
12504TIP3    H259004   5.750   2.859   5.818  0.2413 -0.3795 -0.1108
12505TIP3   OH259005   2.818   0.846  11.966 -0.2487  0.7642 -0.0941
12505TIP3    H159006   2.738   0.881  11.928  1.1813  2.6243 -1.6212
12505TIP3    H259007   2.866   0.924  11.995  1.6364 -0.1741 -0.5619
12506TIP3   OH259008   5.040   2.186   3.915  0.1817 -0.2211 -0.0484
12506TIP3    H159009   5.035   2.160   4.007  0.8454 -0.7427 -0.1590
12506TIP3    H259010   5.085   2.114   3.872  1.9239  1.0262 -0.3929
12507TIP3   OH259011   0.495   2.581   4.914 -0.0536  0.0437 -0.2834
12507TIP3    H159012   0.514   2.667   4.877  1.6754  0.9401  2.3767
12507TIP3    H259013   0.573   2.528   4.893  1.3772  0.8222  2.4542
12508TIP3   OH259014   5.659   1.985   3.825  0.0673 -0.2055 -0.4887
12508TIP3    H159015   5.629   2.073   3.801  1.4225  0.3113 -0.3589
12508TIP3    H259016   5.589   1.927   3.795 -1.3386  0.9849  0.3296
12509TIP3   OH259017   0.016   2.275  16.668  0.1226  0.3493  0.7013
12509TIP3    H159018  -0.005   2.272  16.575  0.0992  2.8809  0.5591
12509TIP3    H259019   0.096   2.222  16.676  0.8692  1.1259 -1.0150
12510TIP3   OH259020   0.699   2.686   3.081  0.7019 -0.3378 -0.2991
12510TIP3    H159021   0.785   2.694   3.122  0.9405 -1.3510 -0.5626
12510TIP3    H259022   0.711   2.619   3.014  0.1863  0.8979 -1.6725
12511TIP3   OH259023   1.353   1.906  14.224 -0.4146  0.2056 -0.4690
12511TIP3    H159024   1.292   1.832  14.222 -0.2687  0.0985 -1.1290
12511TIP3    H259025   1.296   1.983  14.237 -0.6566  0.0771 -0.7622
12512TIP3   OH259026   6.819   5.776   3.269 -0.6839  0.1927  0.1448
12512TIP3    H159027   6.774   5.857   3.290  1.7928  2.0792 -1.3621
12512TIP3    H259028   6.785   5.750   3.184 -0.8682  0.0912  0.2480
12513TIP3   OH259029   3.004   4.489  10.401 -0.0951  0.2020  0.2654
12513TIP3    H159030   2.998   4.451  10.314  0.8418 -0.3105  0.4041
12513TIP3    H259031   3.092   4.464  10.432  0.3585  2.0234  0.5795
12514TIP3   OH259032   2.233   1.182   6.078  0.7283 -0.1325 -0.0681
12514TIP3    H159033   2.264   1.271   6.064 -0.1379  0.4741  1.5833
12514TIP3    H259034   2.312   1.133   6.104  0.8628  0.6603  1.0758
12515TIP3   OH259035   2.933   1.907   0.479  0.9899 -0.3080 -0.1248
12515TIP3    H159036   2.927   1.885   0.386  0.2390 -0.0207 -0.1511
12515TIP3    H259037   2.852   1.953   0.498  0.9839 -0.6647  0.7605
12516TIP3   OH259038   4.145   2.496  12.128 -0.6318 -0.0943 -0.0494
12516TIP3    H159039   4.160   2.407  12.162 -0.9104  0.5305  1.8589
12516TIP3    H259040   4.183   2.553  12.195 -0.9669  1.2454 -0.9735
12517TIP3   OH259041   1.899   5.635  12.650  0.0007  0.0487 -0.5463
12517TIP3    H159042   1.813   5.660  12.617 -0.5593 -1.2737 -0.1402
12517TIP3    H259043   1.893   5.643  12.745  0.1585 -0.5240 -0.4822
12518TIP3   OH259044   3.767   2.263   5.346 -0.1888  0.3425  0.2408
12518TIP3    H159045   3.741   2.203   5.276 -1.6221  0.4029  0.6901
12518TIP3    H259046   3.815   2.332   5.301  1.2687 -0.9642 -0.3282
12519TIP3   OH259047   5.392   4.626   1.827  0.5992  0.0208  0.3464
12519TIP3    H159048   5.328   4.554   1.828 -0.0249  0.5670  0.6631
12519TIP3    H259049   5.342   4.703   1.854  1.0250  0.7882 -0.9557
12520TIP3   OH259050   3.744   5.457  14.933 -0.3702 -0.3178 -0.7937
12520TIP3    H159051   3.797   5.535  14.945 -1.5837  0.1928  1.9784
12520TIP3    H259052   3.664   5.489  14.890 -0.9950  0.0765  0.6103
12521TIP3   OH259053   6.793   5.147   2.051  0.0667 -0.3693  0.0344
12521TIP3    H159054   6.773   5.220   1.993 -1.8560 -0.4870  0.4812
12521TIP3    H259055   6.833   5.187   2.128  0.1552  0.0719 -0.2395
12522TIP3   OH259056   4.630   6.668   0.697 -0.5770 -0.1607 -0.0858
12522TIP3    H159057   4.553   6.688   0.750  0.6208 -0.1646  1.7500
12522TIP3    H259058   4.685   6.613   0.753  0.4404 -0.7751 -1.6102
12523TIP3   OH259059   6.376   2.991   2.089  0.7852 -0.0023 -0.1528
12523TIP3    H159060   6.408   3.076   2.118  0.0306  0.1964  0.1167
12523TIP3    H259061   6.329   2.956   2.164  0.4685 -0.3296 -0.4994
12524TIP3   OH259062   1.677   3.854   0.767 -0.3199 -0.4070 -0.0857
12524TIP3    H159063   1.585   3.848   0.790 -0.0465 -0.9259  0.9607
12524TIP3    H259064   1.709   3.930   0.815 -0.3196  0.1150 -0.8978
12525TIP3   OH259065   0.161   6.285   2.295  0.6001  0.3430  0.3220
12525TIP3    H159066   0.134   6.329   2.375 -0.0144  0.9547 -0.2146
12525TIP3    H259067   0.186   6.356   2.236 -0.7229  0.0172 -0.6692
12526TIP3   OH259068   6.576   4.641  15.998 -0.3381  0.4338 -0.4298
12526TIP3    H159069   6.585   4.628  15.904  1.0276 -0.0435 -0.2517
12526TIP3    H259070   6.608   4.560  16.037 -3.1898 -0.4095  0.4204
12527TIP3   OH259071   6.410   5.188  15.342  0.0244  0.2963  0.1812
12527TIP3    H159072   6.505   5.200  15.342 -0.1365  1.8068 -0.3543
12527TIP3    H259073   6.397   5.095  15.360  1.5220  0.4840  2.6238
12528TIP3   OH259074   2.470   1.702   0.858 -1.1100  0.0741  0.1637
12528TIP3    H159075   2.467   1.797   0.848 -0.1250 -0.0401 -1.5980
12528TIP3    H259076   2.469   1.688   0.953  0.8371  1.9296  0.5321
12529TIP3   OH259077   4.526   6.229  14.301  0.1203 -0.2802 -0.0901
12529TIP3    H159078   4.539   6.314  14.258  2.4477 -0.6884 -0.3098
12529TIP3    H259079   4.491   6.173  14.232 -0.1094  0.1303 -0.3151
12530TIP3   OH259080   1.015   5.197   3.623  0.0584  0.1508 -0.0729
12530TIP3    H159081   0.934   5.146   3.622  1.2389 -1.8814  0.9246
12530TIP3    H259082   1.057   5.175   3.540  1.0333 -1.4041  0.7806
12531TIP3   OH259083   5.704   4.253  16.526 -0.4492 -0.0756  0.0723
12531TIP3    H159084   5.724   4.222  16.438 -0.6381  2.2006 -0.8362
12531TIP3    H259085   5.790   4.268  16.566 -0.3686 -0.7810  0.1904
12532TIP3   OH259086   0.176   1.425   0.224 -0.2573  0.0640 -0.3499
12532TIP3    H159087   0.255   1.405   0.274 -0.9809 -1.0729  0.4231
12532TIP3    H259088   0.105   1.417   0.288 -0.9987  1.1350 -1.0030
12533TIP3   OH259089   0.636   5.353   4.455  0.1903 -0.4382  0.1578
12533TIP3    H159090   0.584   5.331   4.378  0.2178  0.7792 -0.2310
12533TIP3    H259091   0.572   5.361   4.526 -0.1563  0.8596 -0.2774
12534TIP3   OH259092   2.221   5.223   5.636 -0.5635  0.2946 -0.4164
12534TIP3    H159093   2.167   5.231   5.714  0.7053  0.1347  0.5092
12534TIP3    H259094   2.268   5.307   5.631  0.1711 -0.1062 -0.3706
12535TIP3   OH259095   5.993   1.704  13.693 -0.0120 -0.4524 -0.6864
12535TIP3    H159096   6.010   1.635  13.629  0.7940 -1.2064  0.3162
12535TIP3    H259097   5.901   1.692  13.717 -0.4578  0.1221 -2.0078
12536TIP3   OH259098   6.326   6.150   0.762  0.3398  0.1813 -0.1304
12536TIP3    H159099   6.360   6.060   0.763  1.7974  0.6811 -1.2945
12536TIP3    H259100   6.250   6.145   0.703  0.9880 -0.1167 -0.9635
12537TIP3   OH259101   2.797   0.355   0.528 -0.2293 -0.2391 -0.2348
12537TIP3    H159102   2.886   0.369   0.560  0.0015  0.4614 -1.1222
12537TIP3    H259103   2.744   0.417   0.578 -0.1995 -0.5494  0.1869
12538TIP3   OH259104   1.932   3.550   4.321 -0.1221  0.3489  0.5771
12538TIP3    H159105   1.885   3.529   4.240  1.7573  0.9322 -0.7347
12538TIP3    H259106   1.939   3.646   4.320  2.9343  0.2359 -0.4824
12539TIP3   OH259107   1.285   1.237  16.936 -0.0996 -0.5562  0.4402
12539TIP3    H159108   1.296   1.242  17.031 -2.1063  1.2985  0.6619
12539TIP3    H259109   1.366   1.272  16.899 -0.3299  1.2537  1.5639
12540TIP3   OH259110   2.642   2.935   0.972  0.5986 -0.1659  0.5094
12540TIP3    H159111   2.597   2.982   1.041  1.1962  0.9576  0.1636
12540TIP3    H259112   2.620   2.982   0.892  3.3936  1.2998  0.4702
12541TIP3   OH259113   4.999   2.405  13.803  0.3572 -0.0222 -0.4943
12541TIP3    H159114   4.976   2.316  13.776  0.7617  0.1152 -1.3294
12541TIP3    H259115   4.931   2.461  13.766 -1.0605 -0.1440  1.7362
12542TIP3   OH259116   1.624   2.057   6.526  0.0123  0.3872  0.2034
12542TIP3    H159117   1.580   2.062   6.610 -0.3760  0.8066 -0.0175
12542TIP3    H259118   1.568   2.108   6.467 -0.2574 -0.7250 -0.5384
12543TIP3   OH259119   0.042   1.370   2.806  0.2722  0.2963 -0.1793
12543TIP3    H159120  -0.027   1.314   2.772 -0.2864  0.5083  0.5838
12543TIP3    H259121   0.005   1.458   2.804  1.2142  0.7080 -1.5696
12544TIP3   OH259122   1.789   1.006  12.840  0.0905  0.0368  0.2799
12544TIP3    H159123   1.741   1.000  12.756 -0.3656 -1.4752  0.6185
12544TIP3    H259124   1.735   1.064  12.893  0.1070  0.5908 -0.2903
12545TIP3   OH259125   0.370   3.120   3.178 -0.3307  0.3538  0.2455
12545TIP3    H159126   0.355   3.167   3.260 -2.6644 -0.7315  0.5111
12545TIP3    H259127   0.416   3.040   3.205  2.2641  1.6338 -0.0331
12546TIP3   OH259128   1.578   4.954  11.892  0.0384  0.5745  0.0462
12546TIP3    H159129   1.564   4.972  11.985 -2.2801  1.1926 -0.3648
12546TIP3    H259130   1.500   4.906  11.865  1.2034 -0.6211 -1.3505
12547TIP3   OH259131   6.622   5.356  12.436 -0.1484  0.2983 -0.0052
12547TIP3    H159132   6.535   5.390  12.416 -0.8051  0.0249  2.0907
12547TIP3    H259133   6.613   5.318  12.524  2.5282  1.9166  1.1027
12548TIP3   OH259134   1.133   1.372  15.258 -0.3139  0.2787 -0.8645
12548TIP3    H159135   1.067   1.324  15.307 -0.5642 -1.1416 -2.4829
12548TIP3    H259136   1.095   1.383  15.171  0.8474  1.0541 -1.3001
12549TIP3   OH259137   1.033   1.987   0.048  0.0351 -0.0431 -0.1396
12549TIP3    H159138   1.000   1.898   0.037  2.5024 -1.6213  3.3006
12549TIP3    H259139   0.975   2.027   0.112  0.9460 -0.5363  1.0356
12550TIP3   OH259140   1.378   5.435  15.228 -0.5687  0.1444  0.4564
12550TIP3    H159141   1.468   5.452  15.256 -0.3429  0.6995 -0.5558
12550TIP3    H259142   1.347   5.519  15.194 -1.4202 -0.0816  0.6548
12551TIP3   OH259143   5.342   1.112  12.646 -0.0336  0.6870  0.3775
12551TIP3    H159144   5.279   1.081  12.582 -0.8663  1.3560  0.8569
12551TIP3    H259145   5.385   1.186  12.604 -0.2825  0.8616  0.4308
12552TIP3   OH259146   1.892   5.298  16.765  0.5239  0.0579  0.2543
12552TIP3    H159147   1.937   5.355  16.827  1.0291 -0.5537  0.4664
12552TIP3    H259148   1.899   5.210  16.804 -0.6234 -0.0951  0.1563
12553TIP3   OH259149   1.152   3.043  16.674  0.2550  0.1108 -0.2262
12553TIP3    H159150   1.238   3.069  16.705  0.3953 -1.6984  1.1108
12553TIP3    H259151   1.116   2.989  16.745 -1.5528 -0.0322 -1.1731
12554TIP3   OH259152   6.292   2.095  14.789  0.7907 -0.3514  0.2517
12554TIP3    H159153   6.340   2.100  14.706 -0.8520  0.8293 -0.6781
12554TIP3    H259154   6.349   2.140  14.852  1.0043  0.9155 -0.8006
12555TIP3   OH259155   1.870   1.033  15.682 -0.7282  0.3579  0.6517
12555TIP3    H159156   1.912   1.003  15.601  2.0337  0.5840  1.8770
12555TIP3    H259157   1.856   0.953  15.733 -2.0815  0.2615  0.1749
12556TIP3   OH259158   3.551   6.279   1.771 -0.2411  0.2313 -0.4053
12556TIP3    H159159   3.559   6.375   1.769  1.3784  0.1155 -1.7355
12556TIP3    H259160   3.463   6.263   1.805 -0.4952  2.1833 -0.0107
12557TIP3   OH259161   2.464   5.888   5.042  0.7023  0.5221 -0.1011
12557TIP3    H159162   2.452   5.944   5.119  0.8599 -1.6014  1.5654
12557TIP3    H259163   2.375   5.876   5.008  0.4790  0.5197  0.4705
12558TIP3   OH259164   1.690   2.374  16.401 -0.1501 -0.1845 -0.1115
12558TIP3    H159165   1.634   2.450  16.416 -1.9314 -1.2510 -1.0659
12558TIP3    H259166   1.775   2.399  16.439 -0.4493  2.5310 -1.0042
12559TIP3   OH259167   1.454   2.989   4.645 -0.1317 -0.5628  0.2136
12559TIP3    H159168   1.391   3.053   4.678  0.7786  0.4774 -0.0042
12559TIP3    H259169   1.516   2.976   4.716  0.7926  0.3019 -0.3995
12560TIP3   OH259170   3.081   0.832   5.291 -0.1933 -0.7383  0.1829
12560TIP3    H159171   3.036   0.750   5.310  0.6107 -0.9044  1.5048
12560TIP3    H259172   3.022   0.900   5.322  0.3302 -0.9451  1.6879
12561TIP3   OH259173   5.868   1.739   1.401  0.4388 -0.1147 -0.0481
12561TIP3    H159174   5.895   1.827   1.374  0.6575  0.3731  1.6171
12561TIP3    H259175   5.949   1.695   1.426  0.1284  0.0750  1.4244
12562TIP3   OH259176   0.114   2.523   0.416 -0.5195  0.3230 -0.7123
12562TIP3    H159177   0.036   2.492   0.463  0.1861 -0.7221 -0.1846
12562TIP3    H259178   0.095   2.614   0.395 -1.3817  0.4531  0.5153
12563TIP3   OH259179   0.308   5.925   3.835 -0.0903  0.0858 -0.1277
12563TIP3    H159180   0.361   6.000   3.810 -0.9287  1.0103  0.8069
12563TIP3    H259181   0.362   5.849   3.812  0.7541  0.9573 -1.1075
12564TIP3   OH259182   1.101   6.124  14.303  0.3466  0.2568 -0.4388
12564TIP3    H159183   1.029   6.064  14.282 -0.6452  0.3424  2.2620
12564TIP3    H259184   1.063   6.211  14.295  0.4393  0.3414  0.0228
12565TIP3   OH259185   3.000   5.253   3.960 -0.0209  0.1082 -0.2714
12565TIP3    H159186   3.066   5.187   3.978 -1.1461 -1.3242 -1.1304
12565TIP3    H259187   2.944   5.213   3.893 -0.4793  2.1245 -1.1570
12566TIP3   OH259188   5.501   5.005   5.379  0.6047  0.4882 -0.4018
12566TIP3    H159189   5.563   4.966   5.318  2.0693  2.1694 -0.0765
12566TIP3    H259190   5.431   5.039   5.324  0.0974 -1.1246 -0.8012
12567TIP3   OH259191   5.968   3.834   1.559  0.3999 -0.0461 -0.2063
12567TIP3    H159192   5.950   3.924   1.532 -1.9845  0.0764  1.4881
12567TIP3    H259193   5.923   3.780   1.495 -0.2444  0.0516  0.1622
12568TIP3   OH259194   1.517   0.445   4.971 -0.0423  0.3768 -0.0186
12568TIP3    H159195   1.472   0.408   5.047 -1.4180  0.8033 -0.5984
12568TIP3    H259196   1.533   0.370   4.914  1.4034 -0.0193  0.8580
12569TIP3   OH259197   5.937   0.149   2.755  0.0402  0.3106 -0.9533
12569TIP3    H159198   5.996   0.163   2.681 -0.6450 -0.8842 -1.7498
12569TIP3    H259199   5.865   0.211   2.740 -1.0658 -1.2281 -2.3884
12570TIP3   OH259200   1.992   1.752   1.572 -0.2354  0.7234 -0.3344
12570TIP3    H159201   1.997   1.665   1.610  0.6882  1.1158  0.4977
12570TIP3    H259202   2.015   1.740   1.479 -0.1083  0.0907 -0.2226
12571TIP3   OH259203   1.129   0.785   3.107  0.2499 -0.4944  0.3816
12571TIP3    H159204   1.060   0.848   3.127 -0.1268 -1.0493  0.8797
12571TIP3    H259205   1.164   0.814   3.023 -0.2724  0.0721  0.3494
12572TIP3   OH259206   1.635   1.254  11.048 -0.3990  0.0007  0.0645
12572TIP3    H159207   1.588   1.316  10.991 -1.6880 -0.2232  0.8566
12572TIP3    H259208   1.636   1.296  11.134 -0.6297 -0.7412  0.4378
12573TIP3   OH259209   1.820   3.893   1.545 -0.1732  0.3618  0.0952
12573TIP3    H159210   1.826   3.941   1.628 -2.1275 -0.2939  0.6727
12573TIP3    H259211   1.852   3.805   1.565 -1.1662  0.0394  0.3329
12574TIP3   OH259212   0.285   3.104  13.251  0.4859  0.0835 -0.2330
12574TIP3    H159213   0.281   3.017  13.211 -0.0065 -1.1662  2.3531
12574TIP3    H259214   0.202   3.146  13.227  0.2038 -0.6128 -0.4808
12575TIP3   OH259215   3.243   4.942  14.035  0.2922  0.4233 -0.7212
12575TIP3    H159216   3.246   4.857  14.079  1.1083  1.2609  0.9303
12575TIP3    H259217   3.178   4.992  14.084  1.1268  1.3379 -0.5051
12576TIP3   OH259218   0.842   3.569   3.865 -0.1530 -0.2420 -0.2358
12576TIP3    H159219   0.749   3.575   3.844  0.5189  0.5707 -3.5714
12576TIP3    H259220   0.877   3.655   3.842  1.5198 -0.6727  0.5392
12577TIP3   OH259221   1.174   3.168  12.209 -0.3391  0.1997  0.0883
12577TIP3    H159222   1.227   3.098  12.246  0.0548  0.6247  0.3349
12577TIP3    H259223   1.088   3.157  12.250 -0.0591  0.3310  0.7270
12578TIP3   OH259224   0.721   1.611   4.823  0.7715  0.2236 -0.2734
12578TIP3    H159225   0.680   1.683   4.869 -0.3792 -0.3482 -0.3679
12578TIP3    H259226   0.734   1.544   4.890 -0.4048 -0.3982 -0.6298
12579TIP3   OH259227   6.349   2.037  14.052  0.5227  0.0299  0.1402
12579TIP3    H159228   6.379   2.017  13.963 -0.1132  1.2888 -0.3898
12579TIP3    H259229   6.254   2.051  14.042  0.1259 -1.5261  1.3419
12580TIP3   OH259230   2.336   1.797   2.803 -0.0880 -0.0352 -0.3939
12580TIP3    H159231   2.352   1.705   2.824 -0.5190  0.0804  0.4830
12580TIP3    H259232   2.400   1.818   2.736  0.3262 -0.8460 -0.2623
12581TIP3   OH259233   2.637   3.287   5.314  0.3113  0.7643 -0.4951
12581TIP3    H159234   2.592   3.203   5.313 -0.5731  1.2248 -0.5403
12581TIP3    H259235   2.678   3.293   5.227  1.9474 -0.4197  0.1542
12582TIP3   OH259236   2.715   6.375  16.680  0.1381  0.3235 -0.9259
12582TIP3    H159237   2.629   6.357  16.644 -0.4150  0.0781  0.4485
12582TIP3    H259238   2.765   6.295  16.665 -0.4476 -0.2019 -0.1623
12583TIP3   OH259239   5.981   6.659  13.151 -0.0899  1.0674  0.6408
12583TIP3    H159240   5.945   6.713  13.080  1.1043  1.8389  0.6017
12583TIP3    H259241   5.914   6.664  13.220 -0.8983  0.9604 -0.1103
12584TIP3   OH259242   0.852   6.837   4.309 -0.1988 -0.0873  0.3257
12584TIP3    H159243   0.928   6.781   4.294  0.8763  1.5506 -0.6469
12584TIP3    H259244   0.803   6.833   4.227  0.9022  1.8128 -0.4941
12585TIP3   OH259245   3.072   4.936   6.083  0.4951  0.1881  0.5647
12585TIP3    H159246   2.980   4.926   6.056 -0.5309 -0.4156  3.8595
12585TIP3    H259247   3.107   5.002   6.023 -1.7076 -0.3709 -1.5299
12586TIP3   OH259248   4.950   5.665   3.501  0.2959  0.4820 -0.7078
12586TIP3    H159249   4.935   5.751   3.462 -1.1120  0.7279  0.3117
12586TIP3    H259250   4.945   5.604   3.428 -0.8236  1.0754 -1.1442
12587TIP3   OH259251   6.172   4.874  16.166 -0.0943 -0.2178  0.1213
12587TIP3    H159252   6.168   4.969  16.162 -2.1785 -0.1631  1.7202
12587TIP3    H259253   6.233   4.855  16.237  0.2425 -0.0879 -0.1314
12588TIP3   OH259254   3.164   3.661  16.366  0.2323 -0.1297 -0.0992
12588TIP3    H159255   3.242   3.606  16.364 -0.9582 -1.9474  0.5801
12588TIP3    H259256   3.146   3.681  16.274  0.4880 -1.2302 -0.4043
12589TIP3   OH259257   6.527   4.135  16.228 -0.2346 -0.1415 -0.0398
12589TIP3    H159258   6.510   4.088  16.147 -0.7644  0.2862 -0.1817
12589TIP3    H259259   6.504   4.073  16.297 -0.4234 -0.2705 -0.2192
12590TIP3   OH259260   3.353   0.752   5.710  0.4846 -0.3237 -0.4461
12590TIP3    H159261   3.383   0.716   5.627 -0.9308 -0.8092 -0.7673
12590TIP3    H259262   3.430   0.797   5.746  1.2392 -0.5028 -1.7866
12591TIP3   OH259263   4.743   2.738  11.951  0.2523  0.3333  0.3353
12591TIP3    H159264   4.811   2.704  11.893 -1.1970 -1.0729 -0.6420
12591TIP3    H259265   4.668   2.754  11.894 -0.7371  0.3497  1.5835
12592TIP3   OH259266   1.357   6.215   5.893  0.3255  0.0168 -0.6068
12592TIP3    H159267   1.451   6.224   5.911  1.0117 -0.6230 -3.3872
12592TIP3    H259268   1.335   6.128   5.927  0.6861  0.1880  0.1015
12593TIP3   OH259269   4.984   3.298  13.977 -0.3358  0.4923  0.3135
12593TIP3    H159270   5.063   3.266  14.019 -1.4324 -1.2928  1.1108
12593TIP3    H259271   4.989   3.394  13.986  1.8397  0.4508  0.0603
12594TIP3   OH259272   6.410   2.370   1.036  0.0562  0.3259  0.1979
12594TIP3    H159273   6.480   2.367   0.971 -0.6501  1.9426 -0.6687
12594TIP3    H259274   6.398   2.278   1.062  1.7382 -0.1058 -0.4214
12595TIP3   OH259275   3.073   3.647   2.581 -0.4473  0.9060 -0.0380
12595TIP3    H159276   3.021   3.725   2.562 -0.1966  0.8929 -0.7997
12595TIP3    H259277   3.013   3.574   2.563 -0.1093  0.8846 -1.1486
12596TIP3   OH259278   5.854   3.483   2.440 -0.9601 -0.6934 -0.2890
12596TIP3    H159279   5.946   3.471   2.417 -0.7117 -0.0174  0.3234
12596TIP3    H259280   5.808   3.477   2.357 -0.2525  0.0678 -0.7516
12597TIP3   OH259281   2.318   6.273   2.155  0.0705  0.5168  0.3650
12597TIP3    H159282   2.274   6.195   2.121 -0.6867  1.1421 -0.1504
12597TIP3    H259283   2.337   6.253   2.246 -1.0852  0.1214  0.5365
12598TIP3   OH259284   2.283   3.151  13.147 -0.2583  0.1542 -0.0809
12598TIP3    H159285   2.280   3.057  13.164 -0.3268  0.4988  2.2439
12598TIP3    H259286   2.221   3.188  13.210  0.0360  1.7839 -0.7072
12599TIP3   OH259287   4.806   3.032  14.814 -0.1376 -0.1740  0.2764
12599TIP3    H159288   4.776   2.948  14.847  0.8382 -0.1053  1.4099
12599TIP3    H259289   4.898   3.037  14.840  0.5890  0.1038 -2.0806
12600TIP3   OH259290   2.586   4.523  16.265 -0.1810 -0.4931  0.4096
12600TIP3    H159291   2.668   4.489  16.229 -0.2694  0.3043 -0.5793
12600TIP3    H259292   2.536   4.550  16.189 -0.6441  0.6668  1.1009
12601TIP3   OH259293   3.612   4.043  11.134 -0.6344  0.5586 -0.1076
12601TIP3    H159294   3.610   4.099  11.056  1.2694  1.9390  0.7403
12601TIP3    H259295   3.592   3.956  11.102  0.3824  1.0426 -2.2299
12602TIP3   OH259296   0.751   6.257  16.575 -0.2587  0.6339 -0.4597
12602TIP3    H159297   0.713   6.304  16.501 -2.3367 -0.1130  0.0561
12602TIP3    H259298   0.767   6.169  16.542 -0.9517  0.3703 -0.1156
12603TIP3   OH259299   1.207   0.910   1.133  0.0561 -0.0777  0.2094
12603TIP3    H159300   1.139   0.848   1.162 -0.0093 -0.1447 -0.0840
12603TIP3    H259301   1.250   0.937   1.214  0.5623 -1.0563  0.2855
12604TIP3   OH259302   4.259   3.828   0.728  0.0701  0.5447 -0.4997
12604TIP3    H159303   4.209   3.787   0.658 -0.8496  1.1827 -0.2307
12604TIP3    H259304   4.293   3.909   0.690 -1.9338  1.8122  0.2669
12605TIP3   OH259305   2.218   6.406  12.156  0.0734  0.5384 -0.4183
12605TIP3    H159306   2.136   6.418  12.203  0.3914 -1.3601  0.7119
12605TIP3    H259307   2.202   6.335  12.095  0.6382  0.7507 -0.8324
12606TIP3   OH259308   4.367   6.367  15.080  0.8198  1.0897  0.1434
12606TIP3    H159309   4.437   6.307  15.056 -0.1863  0.4296 -1.2777
12606TIP3    H259310   4.365   6.365  15.176  0.6948 -1.2939  0.1447
12607TIP3   OH259311   3.216   1.588   3.582  0.1175 -0.0210 -0.0229
12607TIP3    H159312   3.263   1.617   3.504 -1.9697  1.7971 -0.6940
12607TIP3    H259313   3.257   1.635   3.654  2.2813 -1.9609  0.1375
12608TIP3   OH259314   0.899   6.392   1.853 -0.3133  0.0276  0.3773
12608TIP3    H159315   0.946   6.343   1.786  2.2197  3.7645 -0.9006
12608TIP3    H259316   0.957   6.392   1.929  1.3111  3.3467 -0.6781
12609TIP3   OH259317   6.658   1.539  13.695 -0.2424  0.0643  0.3217
12609TIP3    H159318   6.746   1.553  13.731 -0.6148  1.1733  0.8487
12609TIP3    H259319   6.607   1.614  13.726 -0.2824  1.9587 -3.6574
12610TIP3   OH259320   3.844   0.943   5.975 -0.0850  0.3357 -0.1625
12610TIP3    H159321   3.843   1.038   5.976  1.2271  0.4004  2.1153
12610TIP3    H259322   3.934   0.920   5.950 -0.1833 -0.2579  0.0070
12611TIP3   OH259323   2.070   3.600  17.077 -0.2332  0.3472  0.6997
12611TIP3    H159324   2.152   3.551  17.073  0.5661  1.7013 -0.6881
12611TIP3    H259325   2.072   3.643  17.162 -0.1037 -0.5951  1.1881
12612TIP3   OH259326   3.263   5.593   0.377  0.0812 -0.9458  0.4055
12612TIP3    H159327   3.241   5.606   0.285 -1.2074  3.9205  1.0763
12612TIP3    H259328   3.196   5.533   0.410 -1.4455 -0.2425 -1.2529
12613TIP3   OH259329   4.067   4.745   5.150  0.9394 -0.0124  0.8459
12613TIP3    H159330   3.992   4.748   5.210 -0.4747  0.9264 -0.8446
12613TIP3    H259331   4.061   4.827   5.101 -0.9733 -2.5594 -3.8739
12614TIP3   OH259332   4.478   4.434   2.471  0.4062  0.6581 -0.4172
12614TIP3    H159333   4.517   4.519   2.450 -0.8710  2.0235  2.2442
12614TIP3    H259334   4.530   4.402   2.544  0.8767 -0.9392 -1.4032
12615TIP3   OH259335   4.757   1.856  13.298 -0.6326  0.4971 -0.3470
12615TIP3    H159336   4.727   1.907  13.373  0.4352  0.1018  0.3671
12615TIP3    H259337   4.852   1.851  13.308 -0.6732 -1.4500 -0.4815
12616TIP3   OH259338   3.494   1.487  15.650  0.5063 -0.0275 -0.3603
12616TIP3    H159339   3.450   1.534  15.722 -0.2369 -0.3608 -0.5863
12616TIP3    H259340   3.514   1.555  15.586 -0.7729 -0.0143 -0.7883
12617TIP3   OH259341   1.905   6.674  15.698  0.3103 -0.0094 -0.3054
12617TIP3    H159342   1.918   6.765  15.723  0.2275 -0.2915  0.8258
12617TIP3    H259343   1.813   6.656  15.721  0.4866 -0.5351  0.0060
12618TIP3   OH259344   0.426   3.494   3.207  0.0444  0.0193 -0.2730
12618TIP3    H159345   0.365   3.441   3.258 -0.3076  0.5910 -0.0941
12618TIP3    H259346   0.503   3.502   3.263  0.5792 -1.2776 -0.7741
12619TIP3   OH259347   0.033   0.092  16.582  0.1091  0.1708  0.0696
12619TIP3    H159348   0.117   0.138  16.580 -0.2062  0.7181 -1.6046
12619TIP3    H259349  -0.004   0.104  16.495 -1.2881 -0.8749  0.4757
12620TIP3   OH259350   1.426   1.364   0.289 -0.5645  0.5145 -0.7253
12620TIP3    H159351   1.408   1.432   0.354 -0.2568 -0.1611  0.0919
12620TIP3    H259352   1.499   1.399   0.238 -0.3843  0.7956 -0.2893
12621TIP3   OH259353   2.156   3.687   3.139 -0.2765 -0.8237 -0.0235
12621TIP3    H159354   2.203   3.760   3.099 -1.7379 -0.4820 -1.2182
12621TIP3    H259355   2.064   3.714   3.135 -0.6786 -1.9323  1.2443
12622TIP3   OH259356   2.741   5.088  14.156 -0.3264  0.0770  0.0632
12622TIP3    H159357   2.759   5.135  14.074 -2.1921  1.0646  0.1531
12622TIP3    H259358   2.702   5.005  14.128  2.6314 -1.3934 -0.0844
12623TIP3   OH259359   4.811   0.628  15.178  0.0999  0.1947  0.0046
12623TIP3    H159360   4.773   0.581  15.103  1.9571 -2.1253  0.3810
12623TIP3    H259361   4.739   0.679  15.213 -1.5922 -0.9177 -1.6337
12624TIP3   OH259362   2.105   1.908   0.843  0.5148 -0.1704 -0.5993
12624TIP3    H159363   2.076   1.823   0.874  1.2856 -0.3414 -0.3185
12624TIP3    H259364   2.201   1.905   0.850  0.5663  0.6342 -0.7948
12625TIP3   OH259365   4.047   0.785   2.105 -0.9566 -0.0579 -0.4317
12625TIP3    H159366   3.984   0.808   2.174 -0.7960  0.8156 -0.5676
12625TIP3    H259367   4.106   0.723   2.146 -2.7671 -2.0985 -0.7130
12626TIP3   OH259368   1.451   6.207   1.839  0.0183 -0.1811  0.1348
12626TIP3    H159369   1.501   6.288   1.850  1.4734 -0.9248 -0.7432
12626TIP3    H259370   1.475   6.153   1.914 -0.8681  0.1339  0.6619
12627TIP3   OH259371   0.197   3.122  11.971  0.2328  0.5090  0.1578
12627TIP3    H159372   0.291   3.128  11.989 -0.1097  0.3491  2.3479
12627TIP3    H259373   0.191   3.060  11.898  1.7338 -1.6725  1.7433
12628TIP3   OH259374   5.991   4.119   2.650  0.2757 -0.4093  0.3146
12628TIP3    H159375   5.955   4.063   2.718  0.3389 -2.7035 -1.4006
12628TIP3    H259376   5.975   4.071   2.569  2.7436  0.8023 -1.0101
12629TIP3   OH259377   2.351   3.584  11.130  0.3075  0.1468 -0.2507
12629TIP3    H159378   2.275   3.609  11.183  0.7336  0.5954  0.1587
12629TIP3    H259379   2.421   3.569  11.194  0.8944  0.9276 -0.6984
12630TIP3   OH259380   0.560   0.214  16.601 -0.5497 -0.3878  0.7101
12630TIP3    H159381   0.564   0.249  16.690 -1.1279  0.4809  0.4080
12630TIP3    H259382   0.651   0.200  16.577 -0.2322  1.4622  0.6479
12631TIP3   OH259383   3.236   5.895   3.869  0.1790 -0.0137 -0.0966
12631TIP3    H159384   3.318   5.943   3.857 -1.0468  2.2429 -0.1023
12631TIP3    H259385   3.256   5.830   3.935  1.4992  1.8182  1.4259
12632TIP3   OH259386   5.548   1.676   0.493 -0.5843  0.4834 -0.3133
12632TIP3    H159387   5.497   1.625   0.556 -1.8544  0.9385 -0.9135
12632TIP3    H259388   5.621   1.619   0.469 -0.1782  0.2257  1.3932
12633TIP3   OH259389   2.730   2.768  14.718  0.3077 -0.3818  0.4866
12633TIP3    H159390   2.745   2.820  14.797 -0.0484 -0.4316  0.5863
12633TIP3    H259391   2.663   2.816  14.670  0.0562 -0.6907  0.5256
12634TIP3   OH259392   5.653   1.881  13.926  0.0423  0.5078 -0.4301
12634TIP3    H159393   5.653   1.788  13.903 -1.3651  0.5791 -0.7562
12634TIP3    H259394   5.746   1.901  13.942  0.4707 -0.7365 -1.1942
12635TIP3   OH259395   0.549   3.166  13.123 -0.0933 -0.7913  0.0810
12635TIP3    H159396   0.575   3.118  13.202 -0.7333 -2.1356 -0.4847
12635TIP3    H259397   0.453   3.167  13.126 -0.1352  2.2534  1.0744
12636TIP3   OH259398   6.829   5.625   0.115 -0.4767  0.0577  0.0041
12636TIP3    H159399   6.902   5.563   0.110  0.7748  1.0063  3.3405
12636TIP3    H259400   6.872   5.710   0.128 -2.0658  0.6135  2.3660
12637TIP3   OH259401   5.180   2.316  12.617 -0.2953 -0.1503 -0.1660
12637TIP3    H159402   5.122   2.240  12.609 -0.8872  0.1342  1.2442
12637TIP3    H259403   5.267   2.280  12.601 -0.5998 -1.0850  0.1783
12638TIP3   OH259404   5.612   0.547  15.944 -0.9587  0.3091 -0.3585
12638TIP3    H159405   5.701   0.521  15.922  0.1664  3.1217  0.4656
12638TIP3    H259406   5.569   0.558  15.858  0.2597  1.2783 -0.8740
12639TIP3   OH259407   0.006   5.310  14.196 -0.0333 -0.3091 -0.0313
12639TIP3    H159408  -0.077   5.349  14.170  0.8289  1.5165 -0.2314
12639TIP3    H259409   0.005   5.223  14.158 -1.4201  0.0563 -0.8954
12640TIP3   OH259410   5.809   4.317  15.865 -0.4371  0.2440  0.0039
12640TIP3    H159411   5.720   4.350  15.857 -0.5466 -0.2673 -1.0842
12640TIP3    H259412   5.842   4.356  15.946 -1.7638  0.1332  0.6141
12641TIP3   OH259413   1.207   0.141   3.045 -0.5710  0.1352 -0.3972
12641TIP3    H159414   1.197   0.119   2.952 -0.6185  0.1024 -0.3840
12641TIP3    H259415   1.242   0.230   3.044  0.7783 -0.3812 -0.4615
12642TIP3   OH259416   1.564   5.228   4.891  0.2933  0.2250  0.2698
12642TIP3    H159417   1.484   5.233   4.839 -1.3129 -0.1783  2.5118
12642TIP3    H259418   1.604   5.314   4.884 -1.1140  0.8859  0.1954
12643TIP3   OH259419   2.199   3.259  14.182 -0.5679 -0.5542  0.3331
12643TIP3    H159420   2.183   3.246  14.275 -0.8498  0.3712  0.4183
12643TIP3    H259421   2.146   3.191  14.139 -1.2924 -0.2975  0.8027
12644TIP3   OH259422   2.608   1.578  16.061 -0.1689 -0.2790  0.5051
12644TIP3    H159423   2.679   1.573  15.997 -0.0071 -1.1812  0.7377
12644TIP3    H259424   2.631   1.513  16.127 -0.5546  0.3369  1.2622
12645TIP3   OH259425   3.955   0.372  16.015  0.2735  0.1787  0.3834
12645TIP3    H159426   3.984   0.450  16.062  0.5482 -0.7887  1.8957
12645TIP3    H259427   3.932   0.310  16.084 -0.7605 -0.7937 -0.7772
12646TIP3   OH259428   4.502   0.149   5.564  0.4346 -0.0454 -0.2197
12646TIP3    H159429   4.437   0.149   5.634  1.9752 -0.9918  1.3224
12646TIP3    H259430   4.452   0.160   5.484 -1.6185 -0.8921  0.8659
12647TIP3   OH259431   1.866   0.486  16.443  0.3906 -0.1421  0.6514
12647TIP3    H159432   1.841   0.569  16.484 -0.2790  1.3348 -2.4431
12647TIP3    H259433   1.941   0.509  16.387 -0.3341 -1.3826 -0.8933
12648TIP3   OH259434   2.007   5.342   5.837  0.0362 -0.1106  0.0275
12648TIP3    H159435   2.069   5.306   5.901  2.3353  1.3803 -1.1876
12648TIP3    H259436   1.997   5.434   5.864  0.5280  0.3628 -1.2975
12649TIP3   OH259437   0.765   0.846  14.073  0.2332 -0.2116  0.1776
12649TIP3    H159438   0.765   0.877  14.164 -1.7536  0.3982  0.0195
12649TIP3    H259439   0.857   0.853  14.045  1.1207 -1.5352  2.4741
12650TIP3   OH259440   1.305   2.971  10.260 -0.6264 -0.1634 -0.4085
12650TIP3    H159441   1.316   2.976  10.355 -1.9447 -1.1271 -0.1853
12650TIP3    H259442   1.212   2.951  10.248 -0.3890 -0.4334 -1.8971
12651TIP3   OH259443   1.824   4.033  14.413 -0.1834 -0.2591 -0.1825
12651TIP3    H159444   1.786   4.054  14.328 -0.4390 -1.0510 -0.2642
12651TIP3    H259445   1.842   4.119  14.452 -0.8693  0.1149 -0.6665
12652TIP3   OH259446   0.664   6.292  11.225 -0.0415 -0.6281  0.2158
12652TIP3    H159447   0.644   6.291  11.131  0.3650  0.1991  0.1089
12652TIP3    H259448   0.722   6.218  11.238  1.1252  0.1346 -0.4850
12653TIP3   OH259449   2.155   3.028   3.153  0.6863 -0.8110 -0.1167
12653TIP3    H159450   2.073   3.052   3.197  1.7063  1.7899  0.5035
12653TIP3    H259451   2.128   3.005   3.064 -0.7276 -0.1888  0.1207
12654TIP3   OH259452   6.192   2.896   2.906 -0.3134  0.4412 -0.0160
12654TIP3    H159453   6.205   2.842   2.828  1.0918  1.8268 -0.7973
12654TIP3    H259454   6.156   2.978   2.873 -1.5799  0.3353  1.0422
12655TIP3   OH259455   4.984   4.738   2.361  0.2821  0.1131  0.0183
12655TIP3    H159456   4.906   4.702   2.320 -0.6984  1.0780  0.9502
12655TIP3    H259457   5.028   4.787   2.291  0.0792 -0.4568 -0.5158
12656TIP3   OH259458   5.034   0.511  14.876  0.0956 -0.5327 -0.3321
12656TIP3    H159459   4.960   0.451  14.867 -0.2912 -0.8266  3.3427
12656TIP3    H259460   5.062   0.527  14.786 -2.7723 -2.4412 -1.7410
12657TIP3   OH259461   0.570   3.384  16.095  0.2492  0.2648  0.1000
12657TIP3    H159462   0.629   3.459  16.094 -0.1703  0.6048  0.1962
12657TIP3    H259463   0.497   3.410  16.038  0.4041 -0.3248 -0.3806
12658TIP3   OH259464   3.378   0.481  14.700  0.5683  0.5602  0.2266
12658TIP3    H159465   3.385   0.385  14.701  1.3474  0.5767 -1.0500
12658TIP3    H259466   3.285   0.498  14.689  0.3389 -0.0239  1.1080
12659TIP3   OH259467   5.729   0.835   1.039 -0.0815 -0.1310 -0.3456
12659TIP3    H159468   5.769   0.917   1.009  2.2857 -0.9787  0.2764
12659TIP3    H259469   5.785   0.766   1.004 -2.0288 -1.5557 -0.8711
12660TIP3   OH259470   1.141   6.718   1.559  0.3604  0.8953 -0.5117
12660TIP3    H159471   1.052   6.689   1.578  0.2669  1.1948 -0.4870
12660TIP3    H259472   1.147   6.715   1.463 -0.4401  3.0747 -0.6657
12661TIP3   OH259473   2.140   6.835  13.479 -0.1414 -0.2421  0.4809
12661TIP3    H159474   2.222   6.884  13.471 -0.6150  0.3103 -1.8314
12661TIP3    H259475   2.162   6.760  13.534  2.2893 -0.8575 -1.1777
12662TIP3   OH259476   6.104   2.754  16.071  0.4471  0.9723 -0.3506
12662TIP3    H159477   6.107   2.671  16.025  1.0874  0.5362  0.4584
12662TIP3    H259478   6.074   2.817  16.005 -1.6472 -0.1571 -0.5508
12663TIP3   OH259479   6.213   0.294   3.534  0.1863  0.1388  0.3349
12663TIP3    H159480   6.130   0.266   3.494  0.4147 -0.4669  0.2670
12663TIP3    H259481   6.280   0.254   3.478  0.5755  2.2990 -0.8405
12664TIP3   OH259482   0.837   4.301   5.982 -0.2047  0.6216  0.1974
12664TIP3    H159483   0.930   4.313   5.959 -0.3611  0.5679 -0.5007
12664TIP3    H259484   0.835   4.304   6.077  0.5091  0.6947  0.2166
12665TIP3   OH259485   1.625   5.372   1.104  0.0772  0.1190 -0.4810
12665TIP3    H159486   1.689   5.369   1.033 -0.2339  0.3025 -0.7674
12665TIP3    H259487   1.612   5.465   1.121 -0.5268  0.0908 -0.7929
12666TIP3   OH259488   0.686   5.034  14.603 -0.5332 -0.6961 -0.0320
12666TIP3    H159489   0.698   4.995  14.517  0.1736 -0.5252 -0.0137
12666TIP3    H259490   0.611   5.092  14.593 -0.6455 -0.9081 -0.4498
12667TIP3   OH259491   6.417   3.424   5.312 -0.1520 -0.6959  0.0323
12667TIP3    H159492   6.413   3.504   5.260  1.9572 -0.4343  0.1968
12667TIP3    H259493   6.427   3.353   5.248 -0.3050 -0.6607 -0.0312
12668TIP3   OH259494   2.842   4.005   1.564 -0.8644  0.2759 -0.1854
12668TIP3    H159495   2.930   3.970   1.579 -1.3162 -1.2031 -0.8040
12668TIP3    H259496   2.793   3.981   1.643 -1.0806 -0.1533 -0.4499
12669TIP3   OH259497   6.604   0.132  12.690 -0.2787  0.1986 -0.5409
12669TIP3    H159498   6.567   0.046  12.672  0.7687 -0.0614 -1.6531
12669TIP3    H259499   6.547   0.193  12.643 -1.5512  0.2231  0.9996
12670TIP3   OH259500   2.459   3.366   3.459 -0.0724  0.3279  0.3578
12670TIP3    H159501   2.474   3.297   3.395 -0.3789  1.0394 -0.5027
12670TIP3    H259502   2.545   3.382   3.498  0.6877  1.6654 -1.7251
12671TIP3   OH259503   4.595   4.844  13.190  0.2628 -0.1738  0.8419
12671TIP3    H159504   4.670   4.899  13.214  0.1535 -0.3183  1.5241
12671TIP3    H259505   4.521   4.904  13.186  0.5654  0.1370 -0.7465
12672TIP3   OH259506   1.570   6.696   4.298 -0.2526  0.3341 -0.4175
12672TIP3    H159507   1.616   6.636   4.239 -1.2585 -0.8602 -0.0283
12672TIP3    H259508   1.478   6.687   4.275 -0.8488 -1.1834  2.1405
12673TIP3   OH259509   3.994   3.635  12.733 -0.2527  0.6440 -0.2402
12673TIP3    H159510   4.013   3.668  12.821 -1.2833 -0.9841  0.6590
12673TIP3    H259511   4.079   3.605  12.700  0.1863  1.5035  0.0956
12674TIP3   OH259512   4.700   1.381   1.551  0.1470  0.0654 -0.7206
12674TIP3    H159513   4.631   1.441   1.523 -0.3793 -0.9124 -1.6334
12674TIP3    H259514   4.776   1.404   1.497  0.8287  1.6644  0.8383
12675TIP3   OH259515   3.419   5.792   0.532 -0.0334  0.3047  0.0708
12675TIP3    H159516   3.356   5.830   0.471 -0.1072 -0.4554 -0.3478
12675TIP3    H259517   3.371   5.721   0.575  0.6771 -0.6719 -0.6761
12676TIP3   OH259518   2.463   2.037   6.556 -0.2546 -0.6351 -0.5589
12676TIP3    H159519   2.545   2.025   6.508  1.2755  1.3594  1.3516
12676TIP3    H259520   2.446   2.131   6.552 -0.3554 -0.4357  2.1687
12677TIP3   OH259521   3.678   5.600  15.442  0.5349  0.3405  0.6868
12677TIP3    H159522   3.734   5.633  15.512  1.1059  0.1856  0.3102
12677TIP3    H259523   3.732   5.536  15.396  0.4332  0.9843 -0.3616
12678TIP3   OH259524   0.361   0.331   3.090  0.3441  0.0004 -0.0173
12678TIP3    H159525   0.454   0.317   3.074  0.8371  0.9925  1.7973
12678TIP3    H259526   0.333   0.257   3.144  0.5304  0.6459  0.9802
12679TIP3   OH259527   0.639   3.432   2.397  0.0671 -0.1790 -0.7877
12679TIP3    H159528   0.555   3.389   2.414 -0.9932  2.3260  0.9419
12679TIP3    H259529   0.637   3.455   2.304 -1.0662 -0.3273 -0.8036
12680TIP3   OH259530   6.483   2.905   3.643 -0.1201  0.0310  0.3798
12680TIP3    H159531   6.448   2.936   3.560  0.8789 -0.2886 -0.1831
12680TIP3    H259532   6.506   2.813   3.627  1.3426  0.3356  0.5664
12681TIP3   OH259533   3.632   5.385  15.249  0.2866 -0.4071  0.4267
12681TIP3    H159534   3.649   5.479  15.250  3.8002 -0.9172  0.2084
12681TIP3    H259535   3.657   5.356  15.161 -0.1841 -1.6591  0.6728
12682TIP3   OH259536   0.603   6.047   3.443  0.4930 -0.2676 -0.4880
12682TIP3    H159537   0.636   6.131   3.474  1.5724  0.0093 -2.2773
12682TIP3    H259538   0.546   6.069   3.369  0.0803 -1.0725 -0.4301
12683TIP3   OH259539   1.526   1.171  17.136  0.4307  0.7910  0.4474
12683TIP3    H159540   1.449   1.129  17.176  0.8478  1.0631  1.5502
12683TIP3    H259541   1.592   1.171  17.205  1.0686  1.5513 -0.1538
12684TIP3   OH259542   3.255   1.203   2.229 -0.0824 -0.2789 -0.3687
12684TIP3    H159543   3.249   1.161   2.143 -1.9762  0.1322 -0.4852
12684TIP3    H259544   3.262   1.131   2.291  0.3488 -0.6120 -0.8006
12685TIP3   OH259545   0.068   5.073  11.794  0.3797 -0.8248  0.4116
12685TIP3    H159546   0.074   5.110  11.706  2.2923 -3.2345 -0.5919
12685TIP3    H259547   0.124   5.129  11.848 -0.7285  0.6092  0.1190
12686TIP3   OH259548   4.677   1.907   2.404  0.4386 -0.2194 -0.6593
12686TIP3    H159549   4.626   1.885   2.326 -1.9989 -0.6132  0.9185
12686TIP3    H259550   4.683   2.003   2.402 -1.6254 -0.0173 -0.2627
12687TIP3   OH259551   3.792   5.571  17.125 -0.0848 -0.3110 -0.1378
12687TIP3    H159552   3.773   5.659  17.158  1.8882 -0.1286  0.6274
12687TIP3    H259553   3.760   5.512  17.194 -0.7033 -0.1755 -0.3005
12688TIP3   OH259554   1.546   5.122  16.646 -0.6699  0.4806  0.0363
12688TIP3    H159555   1.501   5.180  16.708 -1.4661  0.9623 -0.9628
12688TIP3    H259556   1.498   5.039  16.653  1.1337 -0.4664  2.2504
12689TIP3   OH259557   5.474   0.381   1.296  0.5309 -0.1410 -0.0442
12689TIP3    H159558   5.412   0.452   1.278 -0.2971 -1.2239 -1.6950
12689TIP3    H259559   5.432   0.329   1.365 -0.4685 -0.9002 -1.1914
12690TIP3   OH259560   6.649   6.579  13.574  0.3329  0.5502 -0.1028
12690TIP3    H159561   6.689   6.664  13.559  1.7897 -0.0631  0.1554
12690TIP3    H259562   6.722   6.521  13.596 -0.8448 -0.2016  2.2464
12691TIP3   OH259563   6.713   1.138   5.566 -0.3995 -0.2696 -0.8724
12691TIP3    H159564   6.738   1.230   5.572  1.5544 -0.8701  1.2307
12691TIP3    H259565   6.689   1.126   5.473 -0.9805  2.3673 -1.1362
12692TIP3   OH259566   4.865   2.523  12.488  0.0983 -0.5168  0.3553
12692TIP3    H159567   4.877   2.606  12.442 -0.8933 -0.6897 -0.2489
12692TIP3    H259568   4.822   2.466  12.424 -1.8960 -0.5661  1.6729
12693TIP3   OH259569   4.821   0.271  10.961  0.1869 -0.0475 -0.5927
12693TIP3    H159570   4.739   0.289  11.006  0.8318 -0.1369  0.6753
12693TIP3    H259571   4.848   0.355  10.925 -0.8104 -0.1643 -1.6465
12694TIP3   OH259572   0.981   1.938  12.330 -0.2714 -0.4309  0.2890
12694TIP3    H159573   1.075   1.950  12.315 -0.7380  5.0209 -0.4658
12694TIP3    H259574   0.945   1.929  12.242 -0.5635 -4.0776  0.6283
12695TIP3   OH259575   5.513   4.364   4.868 -0.2114 -0.0677 -0.2046
12695TIP3    H159576   5.514   4.423   4.943 -0.1708  1.7409 -1.5709
12695TIP3    H259577   5.420   4.345   4.854 -0.2347 -0.2297  0.1499
12696TIP3   OH259578   1.759   4.958  16.139 -0.2367  0.5998  0.3242
12696TIP3    H159579   1.834   4.899  16.133 -1.4944 -1.2853  1.8743
12696TIP3    H259580   1.698   4.927  16.073 -1.2461 -0.4554  1.6873
12697TIP3   OH259581   0.134   6.828  15.684  0.3346  0.2571  0.1103
12697TIP3    H159582   0.062   6.834  15.747  0.5121 -0.5749  0.4141
12697TIP3    H259583   0.201   6.776  15.729  0.4952 -0.2883 -0.7339
12698TIP3   OH259584   3.409   6.395   2.732 -0.1893  0.2630  0.2097
12698TIP3    H159585   3.443   6.336   2.799 -0.8108  0.9083  1.1146
12698TIP3    H259586   3.427   6.350   2.649 -1.7243 -1.8077  0.8982
12699TIP3   OH259587   6.086   4.065   0.691  0.3190 -0.9100  0.5922
12699TIP3    H159588   6.112   4.151   0.724  1.0910 -1.0484  0.3863
12699TIP3    H259589   6.154   4.043   0.627 -0.9388 -0.8056 -0.8399
12700TIP3   OH259590   5.614   4.160   2.612 -0.3252 -0.1019 -0.4831
12700TIP3    H159591   5.650   4.139   2.697 -0.8488 -2.2688 -0.7430
12700TIP3    H259592   5.644   4.250   2.594  0.3067  0.1546  1.6631
12701TIP3   OH259593   5.153   0.276   3.986  0.3090  0.3854 -0.3670
12701TIP3    H159594   5.193   0.214   4.047 -0.3529 -0.1964 -0.5118
12701TIP3    H259595   5.065   0.242   3.971  0.1963  0.9463 -1.0483
12702TIP3   OH259596   2.549   4.834  15.786 -0.3347  0.0257  0.4240
12702TIP3    H159597   2.581   4.796  15.868  0.8274  0.8491  0.3849
12702TIP3    H259598   2.568   4.768  15.720  1.4143  0.4912  0.3991
12703TIP3   OH259599   4.488   6.638  14.188 -0.1605  0.4663 -0.1765
12703TIP3    H159600   4.473   6.550  14.153  1.6631  0.2581 -0.5063
12703TIP3    H259601   4.412   6.689  14.158 -1.6125 -1.1458  0.6437
12704TIP3   OH259602   5.219   4.081  10.725  0.4344  0.2141 -0.8592
12704TIP3    H159603   5.232   4.157  10.783  0.2934  1.0924 -1.9457
12704TIP3    H259604   5.126   4.083  10.704  0.3512 -0.5134 -0.5661
12705TIP3   OH259605   6.720   4.954   1.224 -0.6900  0.3036  0.3544
12705TIP3    H159606   6.740   4.910   1.306  1.6820 -1.4540 -1.0274
12705TIP3    H259607   6.784   5.025   1.217 -1.0524  0.6187  0.1333
12706TIP3   OH259608   5.524   5.549   4.420 -0.4436  0.2586 -0.1880
12706TIP3    H159609   5.570   5.624   4.459 -2.3183  1.3552  0.0482
12706TIP3    H259610   5.546   5.554   4.327 -0.3121  0.9415 -0.1293
12707TIP3   OH259611   1.517   3.435  11.841  0.3481 -0.0329 -0.4357
12707TIP3    H159612   1.516   3.358  11.783 -0.6514  1.8699 -3.1562
12707TIP3    H259613   1.426   3.464  11.844  0.7930  1.4082  0.0292
12708TIP3   OH259614   0.602   4.893   3.093 -0.5780 -0.0669  0.2626
12708TIP3    H159615   0.533   4.957   3.072  0.4795  0.6792 -1.1396
12708TIP3    H259616   0.666   4.904   3.023  0.2009 -1.8827  0.6423
12709TIP3   OH259617   2.782   3.135   2.094  0.0671 -0.6193  0.3995
12709TIP3    H159618   2.771   3.180   2.178  2.3793 -0.3080  0.5819
12709TIP3    H259619   2.722   3.061   2.099 -1.6358  0.7346  1.3046
12710TIP3   OH259620   0.372   3.971   3.741  0.9553 -0.1505 -0.0377
12710TIP3    H159621   0.451   3.922   3.762 -0.2101 -1.3301  1.8608
12710TIP3    H259622   0.339   4.001   3.826 -0.8209 -0.0217 -0.7312
12711TIP3   OH259623   3.890   3.880  11.684 -0.0790 -0.0703  0.2612
12711TIP3    H159624   3.871   3.946  11.750 -0.6421  1.1043 -1.0337
12711TIP3    H259625   3.980   3.898  11.657  0.3588 -0.9187  1.0799
12712TIP3   OH259626   3.419   1.272  11.204 -0.2112 -0.3829  0.5469
12712TIP3    H159627   3.437   1.342  11.268  1.2229  1.3952 -1.6484
12712TIP3    H259628   3.331   1.242  11.226 -0.4174  1.3151  2.3247
12713TIP3   OH259629   2.469   3.973  12.004 -0.3778 -0.4510 -0.2128
12713TIP3    H159630   2.558   3.967  12.039 -1.5227 -0.9471  2.8554
12713TIP3    H259631   2.435   3.884  12.008 -2.0837  0.2080  1.9190
12714TIP3   OH259632   2.882   1.588   3.226  0.6002 -0.0209  0.4859
12714TIP3    H159633   2.858   1.547   3.143  1.4743  0.5314 -0.0571
12714TIP3    H259634   2.810   1.566   3.285 -0.6441  0.5864 -0.7450
12715TIP3   OH259635   2.744   4.218  16.425 -0.2747  0.3747  0.2599
12715TIP3    H159636   2.810   4.155  16.395 -0.4832  0.7080 -0.9951
12715TIP3    H259637   2.778   4.250  16.509  0.3310 -0.6582  0.4287
12716TIP3   OH259638   3.260   5.203  16.234  0.5284 -0.0704  0.7781
12716TIP3    H159639   3.337   5.178  16.183  0.3996 -0.2454  0.6702
12716TIP3    H259640   3.295   5.254  16.307  0.5736  2.0848 -0.6535
12717TIP3   OH259641   4.050   5.870   5.643  0.1648 -0.0267  0.5610
12717TIP3    H159642   4.137   5.910   5.643  1.1877 -2.1471  0.4932
12717TIP3    H259643   4.060   5.789   5.693 -1.6555 -0.5880  0.0962
12718TIP3   OH259644   4.552   0.419  13.271  0.1415  0.1938 -0.0115
12718TIP3    H159645   4.602   0.348  13.232  0.0229 -1.5021  2.6819
12718TIP3    H259646   4.461   0.399  13.249  0.0221 -1.0641  1.4144
12719TIP3   OH259647   2.304   1.075  11.280 -0.1273 -0.3700 -0.0509
12719TIP3    H159648   2.398   1.087  11.264  0.1628 -2.8470 -0.7189
12719TIP3    H259649   2.270   1.044  11.196 -0.8250 -2.6831  0.9926
12720TIP3   OH259650   5.071   2.191  10.780 -0.2137 -0.6434 -0.0217
12720TIP3    H159651   5.023   2.187  10.698 -1.2885 -1.1741  0.6190
12720TIP3    H259652   5.149   2.138  10.764  0.1490  0.1576 -1.0385
12721TIP3   OH259653   2.002   0.829   5.003  0.0990  0.6556 -0.3346
12721TIP3    H159654   2.024   0.837   5.096  0.1392  3.0994 -0.4917
12721TIP3    H259655   1.918   0.783   5.002  0.7857 -0.7215  0.7781
12722TIP3   OH259656   6.264   4.797   4.467 -0.3325 -0.0582  0.3505
12722TIP3    H159657   6.220   4.882   4.461  1.0802  0.8924  2.2461
12722TIP3    H259658   6.211   4.747   4.528 -0.9359 -0.4171 -0.4477
12723TIP3   OH259659   2.802   0.101  10.901 -0.8668 -0.0887 -0.0328
12723TIP3    H159660   2.717   0.061  10.881 -0.3160 -1.0891 -0.4832
12723TIP3    H259661   2.781   0.190  10.928 -2.0599 -0.3217 -0.1245
12724TIP3   OH259662   6.556   2.750   0.233 -0.2613 -0.0082 -0.8060
12724TIP3    H159663   6.509   2.688   0.289  0.8661 -0.0263  0.1764
12724TIP3    H259664   6.512   2.834   0.247 -0.9196 -0.3137 -1.0545
12725TIP3   OH259665   3.250   2.967   1.421 -0.0672 -0.0639  0.0368
12725TIP3    H159666   3.277   2.952   1.331  2.3309  2.6368  0.1609
12725TIP3    H259667   3.312   2.916   1.474  1.0874  1.4324  0.1851
12726TIP3   OH259668   0.441   1.745   3.177  0.2943 -0.3901 -0.2635
12726TIP3    H159669   0.452   1.651   3.194 -1.3574 -0.7391 -0.9861
12726TIP3    H259670   0.462   1.755   3.085  0.0735 -0.1157 -0.2840
12727TIP3   OH259671   4.461   2.630   2.281  0.1976 -0.0229  0.3058
12727TIP3    H159672   4.377   2.604   2.243  0.4435  1.8038 -1.6142
12727TIP3    H259673   4.526   2.607   2.215  0.7224  2.5439 -0.1691
12728TIP3   OH259674   3.701   0.493   1.534  0.0098  0.2156 -0.6142
12728TIP3    H159675   3.649   0.560   1.492 -0.2091 -0.3423 -1.2463
12728TIP3    H259676   3.716   0.427   1.466  1.4591  0.3155 -0.4305
12729TIP3   OH259677   3.987   2.692  15.724 -0.4147 -0.3203 -0.6092
12729TIP3    H159678   3.967   2.724  15.812 -2.5870  1.3034 -1.5975
12729TIP3    H259679   3.952   2.603  15.721  0.9693 -0.9463  0.5530
12730TIP3   OH259680   6.014   2.994  14.175  0.3379  0.3649  0.5975
12730TIP3    H159681   6.041   3.040  14.096 -0.1063 -3.4428 -2.0745
12730TIP3    H259682   5.919   2.987  14.168  0.3793 -0.8448  0.8985
12731TIP3   OH259683   3.800   2.555   4.175  0.1210  0.1294 -0.3520
12731TIP3    H159684   3.890   2.558   4.207  0.0582  0.5361 -0.2054
12731TIP3    H259685   3.787   2.640   4.133 -0.2494  0.1405 -0.2210
12732TIP3   OH259686   5.881   3.373  16.057 -0.4490  0.5014  0.0715
12732TIP3    H159687   5.856   3.416  16.138  0.9761 -0.2804  0.9620
12732TIP3    H259688   5.833   3.421  15.989 -2.5645  0.4592  1.4372
12733TIP3   OH259689   2.356   5.274   5.302 -0.5906  0.3360  0.3626
12733TIP3    H159690   2.404   5.339   5.354  1.1531 -0.5288 -0.0873
12733TIP3    H259691   2.359   5.194   5.355 -0.2659 -0.1063 -0.3043
12734TIP3   OH259692   6.231   3.752  12.703  0.3860 -0.3359  0.5160
12734TIP3    H159693   6.280   3.828  12.671  0.5656 -0.1277  1.2726
12734TIP3    H259694   6.287   3.677  12.684 -0.3679 -0.4751 -1.4885
12735TIP3   OH259695   5.262   3.828   4.028 -0.6906 -0.0758 -0.0074
12735TIP3    H159696   5.325   3.757   4.044  0.4203  1.1001  1.0101
12735TIP3    H259697   5.259   3.835   3.932  0.9123 -0.0150 -0.0850
12736TIP3   OH259698   6.188   3.139   4.852  0.3085  0.7355 -0.1314
12736TIP3    H159699   6.270   3.090   4.859 -0.6528 -0.8792  0.2987
12736TIP3    H259700   6.165   3.160   4.942  0.0607  0.8694 -0.2253
12737TIP3   OH259701   3.993   2.394   0.509 -0.6498  0.0548  0.2291
12737TIP3    H159702   4.006   2.454   0.435  0.6491 -1.4096 -0.8129
12737TIP3    H259703   4.011   2.447   0.587 -0.1120  1.1644 -0.6195
12738TIP3   OH259704   0.251   4.791   1.054  0.2807  0.3759 -0.3514
12738TIP3    H159705   0.213   4.710   1.020  0.7286  0.5305 -1.2338
12738TIP3    H259706   0.271   4.771   1.145  0.5348 -0.5609 -0.6013
12739TIP3   OH259707   4.228   3.350  16.463 -0.1764  0.0413  0.3941
12739TIP3    H159708   4.231   3.442  16.487  0.6367  0.0348  0.3332
12739TIP3    H259709   4.248   3.303  16.544  2.2631  0.0118 -0.1454
12740TIP3   OH259710   2.228   3.244  12.529 -0.4738 -0.2016  0.3264
12740TIP3    H159711   2.309   3.225  12.575 -1.0520  0.2633  1.6038
12740TIP3    H259712   2.226   3.183  12.456  1.3189  0.2036 -0.0974
12741TIP3   OH259713   0.898   5.706   4.447  0.1740  0.1032 -1.0200
12741TIP3    H159714   0.952   5.725   4.371  3.8224 -1.1355  1.0150
12741TIP3    H259715   0.900   5.611   4.456 -0.9988  0.1520  0.0871
12742TIP3   OH259716   6.642   1.088  14.196 -0.0606 -0.5044 -0.3778
12742TIP3    H159717   6.631   1.177  14.162 -0.0199 -1.2726 -2.5636
12742TIP3    H259718   6.553   1.061  14.221 -0.0061  0.2782  0.7401
12743TIP3   OH259719   3.957   1.827   6.048  0.4726  0.2232 -0.2267
12743TIP3    H159720   4.030   1.765   6.056  0.1989 -0.3080 -1.5014
12743TIP3    H259721   3.962   1.857   5.957 -1.5222 -0.6591 -0.6945
12744TIP3   OH259722   6.571   4.569   2.014 -0.1814  0.0511 -0.3573
12744TIP3    H159723   6.654   4.530   1.984  0.1379 -0.2209  0.8250
12744TIP3    H259724   6.568   4.549   2.107 -1.8578 -0.4166 -0.4830
12745TIP3   OH259725   4.225   4.257  16.578  0.1298  0.1849  0.3097
12745TIP3    H159726   4.252   4.302  16.498 -1.4914 -2.1050 -1.6837
12745TIP3    H259727   4.129   4.258  16.575  0.0274 -2.0565  0.8950
12746TIP3   OH259728   6.372   5.732   2.654 -0.0126  0.6295  0.2408
12746TIP3    H159729   6.365   5.756   2.561 -3.3291 -0.9263 -0.0844
12746TIP3    H259730   6.343   5.810   2.701  1.6921  1.4305  0.0388
12747TIP3   OH259731   1.745   4.766  11.004 -0.3803  0.0834  0.1050
12747TIP3    H159732   1.763   4.772  10.910 -0.6449 -0.0933  0.0403
12747TIP3    H259733   1.653   4.740  11.009 -0.4893  0.5227  0.4201
12748TIP3   OH259734   2.547   2.814   5.816 -0.2357  0.4192  0.4961
12748TIP3    H159735   2.546   2.810   5.911 -0.3494  3.2075  0.6774
12748TIP3    H259736   2.456   2.833   5.791 -0.0751  0.4122 -0.1170
12749TIP3   OH259737   6.822   1.600  11.329  0.0611  0.0652  0.2369
12749TIP3    H159738   6.825   1.672  11.391  1.0526  0.0654  0.1973
12749TIP3    H259739   6.883   1.625  11.259  0.6000 -0.9050  0.3419
12750TIP3   OH259740   4.778   3.976   4.677  0.4386  0.1015  0.6265
12750TIP3    H159741   4.688   3.949   4.697 -0.4748  2.1014 -0.4561
12750TIP3    H259742   4.819   3.898   4.642 -1.9401 -0.0975 -2.0523
12751TIP3   OH259743   6.264   0.501  13.614  0.2410 -0.2109 -0.1408
12751TIP3    H159744   6.235   0.422  13.659  0.9130  0.3090  1.2642
12751TIP3    H259745   6.187   0.532  13.566 -0.8340 -0.2298  1.4871
12752TIP3   OH259746   5.461   4.366   2.402 -0.0804 -0.1419  0.3612
12752TIP3    H159747   5.548   4.327   2.401 -0.3298 -0.7932  1.6821
12752TIP3    H259748   5.474   4.450   2.447 -0.1110 -0.1818  0.4445
12753TIP3   OH259749   2.319   2.101  10.924 -0.2837 -0.2850 -0.3137
12753TIP3    H159750   2.236   2.058  10.945  0.2045 -1.1242 -0.0288
12753TIP3    H259751   2.333   2.163  10.996 -0.1629 -0.8878  0.1957
12754TIP3   OH259752   5.881   1.343  15.444 -0.1411  0.0770  0.4724
12754TIP3    H159753   5.807   1.372  15.392 -1.6589 -1.9057  1.4053
12754TIP3    H259754   5.843   1.292  15.515  2.0406  0.1074  1.7706
12755TIP3   OH259755   2.162   2.526   2.788  0.3566 -0.2336 -0.1152
12755TIP3    H159756   2.099   2.549   2.719 -0.6098 -0.4215  0.6706
12755TIP3    H259757   2.109   2.524   2.868  1.1456 -1.4959  0.4039
12756TIP3   OH259758   2.471   2.078   2.193 -0.1147  0.7770  0.2584
12756TIP3    H159759   2.484   2.170   2.168  0.0408  0.6840 -0.0023
12756TIP3    H259760   2.380   2.074   2.222  0.1829  1.2578  1.3248
12757TIP3   OH259761   0.324   1.370  16.650  0.3209 -0.2410 -0.3345
12757TIP3    H159762   0.316   1.425  16.572 -1.2283  0.3041  0.1679
12757TIP3    H259763   0.249   1.310  16.645  0.0604 -0.0378  0.8336
12758TIP3   OH259764   5.261   5.896   2.311 -0.0817  0.3643 -0.0897
12758TIP3    H159765   5.249   5.856   2.224 -1.7791  0.9330 -0.1456
12758TIP3    H259766   5.191   5.961   2.317  1.3398  1.8749  0.8567
12759TIP3   OH259767   3.607   6.226   6.052 -0.5221  0.1087 -0.5605
12759TIP3    H159768   3.624   6.183   6.136 -1.5370 -2.0605 -1.4166
12759TIP3    H259769   3.619   6.319   6.071  1.3783 -0.4530  1.4632
12760TIP3   OH259770   3.969   6.192  11.371 -0.0065  0.4066  0.4013
12760TIP3    H159771   3.946   6.101  11.354 -1.2665  0.6914  0.4473
12760TIP3    H259772   4.041   6.210  11.310 -0.8802 -0.1402 -0.8577
12761TIP3   OH259773   1.802   6.439  14.128 -0.6505  0.0659  0.1001
12761TIP3    H159774   1.858   6.431  14.050 -0.0134  1.6326  0.3665
12761TIP3    H259775   1.716   6.463  14.093 -0.7307 -0.6337 -0.1998
12762TIP3   OH259776   5.101   2.419  15.122 -0.7555  0.3124  0.2420
12762TIP3    H159777   5.089   2.448  15.031  1.1636  1.8428  0.4023
12762TIP3    H259778   5.110   2.324  15.116  1.4403  0.5521 -1.4864
12763TIP3   OH259779   2.268   3.736   4.325  0.0231 -0.1394 -0.3035
12763TIP3    H159780   2.357   3.760   4.302 -1.0469  4.3942 -0.5353
12763TIP3    H259781   2.240   3.677   4.255  1.9499  0.5418 -1.7179
12764TIP3   OH259782   4.022   6.054   3.335  0.3295  0.4183  0.6170
12764TIP3    H159783   4.103   6.087   3.296 -0.3080  1.2455 -0.0505
12764TIP3    H259784   3.956   6.066   3.266 -0.2800 -0.6607  0.9827
12765TIP3   OH259785   4.601   1.642   2.428 -0.2905 -0.1244  0.0379
12765TIP3    H159786   4.595   1.606   2.340  0.6899 -0.3806  0.0576
12765TIP3    H259787   4.629   1.732   2.415  1.5053 -0.6298  0.1117
12766TIP3   OH259788   0.854   2.383  14.660  0.0176 -0.3290 -0.1340
12766TIP3    H159789   0.787   2.440  14.623 -0.4063  0.4301  1.7004
12766TIP3    H259790   0.814   2.296  14.661  0.1777 -0.4507 -1.7240
12767TIP3   OH259791   6.389   4.561  15.033 -0.2693  0.3826  0.2918
12767TIP3    H159792   6.440   4.630  15.075 -0.8468  0.8999  0.1586
12767TIP3    H259793   6.454   4.496  15.005  0.1578  0.2036  1.6329
12768TIP3   OH259794   1.327   1.579  13.223  0.1903 -0.3814 -0.1834
12768TIP3    H159795   1.306   1.643  13.155  1.0649  0.6469  0.4794
12768TIP3    H259796   1.363   1.504  13.175  0.0552  0.0051 -0.9087
12769TIP3   OH259797   6.459   1.929   5.935 -0.5630  0.4033 -0.1535
12769TIP3    H159798   6.398   1.903   6.004  1.9308 -3.6255  0.8616
12769TIP3    H259799   6.539   1.953   5.982  0.1917  0.7948 -1.5958
12770TIP3   OH259800   0.061   5.843   3.704 -0.1851  0.2415  0.1550
12770TIP3    H159801   0.032   5.766   3.753  0.2708 -0.9093 -1.2986
12770TIP3    H259802   0.153   5.854   3.728  0.0867 -0.4274 -0.5200
12771TIP3   OH259803   4.748   0.232  13.698  0.3641  0.6974 -0.1641
12771TIP3    H159804   4.816   0.171  13.726 -2.5534 -2.6987  0.2076
12771TIP3    H259805   4.722   0.277  13.778  0.1183 -0.2498  0.3004
12772TIP3   OH259806   3.447   5.754  16.329 -0.4120 -0.4519  0.1889
12772TIP3    H159807   3.515   5.807  16.369 -1.4702  1.0004  0.1409
12772TIP3    H259808   3.491   5.674  16.301  0.9885 -0.0978  1.3233
12773TIP3   OH259809   4.475   4.656   5.745  0.2422 -0.6009 -0.5569
12773TIP3    H159810   4.505   4.710   5.819 -0.1486 -1.0559 -0.0616
12773TIP3    H259811   4.440   4.719   5.682  2.7514  0.0234 -1.4351
12774TIP3   OH259812   3.227   1.284  14.505 -0.4916  0.3749 -0.1430
12774TIP3    H159813   3.278   1.203  14.508 -1.3379 -0.1992 -0.5605
12774TIP3    H259814   3.146   1.262  14.552 -0.1807  1.4003  0.9068
12775TIP3   OH259815   2.109   3.855   6.468  0.0548 -0.1461  0.3147
12775TIP3    H159816   2.018   3.835   6.493  0.0939 -0.1669  0.4429
12775TIP3    H259817   2.130   3.934   6.517  0.7328 -1.1776  1.7698
12776TIP3   OH259818   1.380   4.650  12.159  0.7240  0.0714  0.1093
12776TIP3    H159819   1.304   4.592  12.156  1.9846 -1.6478  0.0482
12776TIP3    H259820   1.348   4.733  12.125 -0.9181 -0.8595 -0.7345
12777TIP3   OH259821   0.162   0.298   1.174  0.6479  0.7691  0.5118
12777TIP3    H159822   0.112   0.338   1.102  1.8683  2.3693  0.5191
12777TIP3    H259823   0.105   0.307   1.250 -0.5295 -0.6626 -0.1288
12778TIP3   OH259824   2.061   2.398  14.490  0.2933  0.2728  0.4882
12778TIP3    H159825   2.040   2.324  14.433 -2.2635  1.3401 -0.0793
12778TIP3    H259826   2.049   2.363  14.579  0.5307 -0.3751  0.2716
12779TIP3   OH259827   0.798   1.730   2.789 -0.1113 -0.5162  0.3501
12779TIP3    H159828   0.833   1.673   2.721 -0.3833  0.3889 -0.5672
12779TIP3    H259829   0.874   1.773   2.827  0.0702 -1.2593  0.8572
12780TIP3   OH259830   0.621   6.074   6.335  0.0393  0.1873 -0.4522
12780TIP3    H159831   0.530   6.105   6.342  0.4790  1.3203  0.4761
12780TIP3    H259832   0.638   6.032   6.419 -0.0983 -1.4471 -1.1959
12781TIP3   OH259833   2.022   0.170  13.836  0.1518 -0.3117 -0.6605
12781TIP3    H159834   1.948   0.110  13.850  0.4742 -0.6992 -0.6156
12781TIP3    H259835   2.094   0.114  13.808  1.0727 -0.2385  1.3632
12782TIP3   OH259836   6.719   6.698  14.192 -0.1012 -0.2454  0.3839
12782TIP3    H159837   6.690   6.612  14.222  3.3447 -2.2598 -1.4657
12782TIP3    H259838   6.778   6.729  14.261 -0.5717  0.2029  0.5917
12783TIP3   OH259839   2.523   3.954  15.603 -0.2956 -0.2354 -0.0806
12783TIP3    H159840   2.606   3.976  15.561 -0.2288 -1.6009 -0.7382
12783TIP3    H259841   2.473   4.036  15.603  0.6481  0.3570 -0.6124
12784TIP3   OH259842   1.634   6.750   6.082  0.3343  0.1066  0.1613
12784TIP3    H159843   1.659   6.841   6.096 -1.0449  0.7210 -1.1623
12784TIP3    H259844   1.665   6.730   5.993  1.3765 -1.0122  0.7380
12785TIP3   OH259845   3.651   6.706  14.757 -0.0350 -0.0269 -0.1215
12785TIP3    H159846   3.681   6.624  14.717  2.6006  2.0400 -2.7422
12785TIP3    H259847   3.573   6.730  14.707 -1.8502 -1.5876  1.7388
12786TIP3   OH259848   6.046   4.558   4.391 -0.5360 -0.1923 -0.1034
12786TIP3    H159849   6.126   4.559   4.338 -0.5578  0.9748 -0.1456
12786TIP3    H259850   6.033   4.466   4.413  1.8037 -0.2781  1.3762
12787TIP3   OH259851   5.119   4.282  16.796  0.5363  0.1491 -0.1067
12787TIP3    H159852   5.147   4.370  16.822  0.0924  0.2486  0.0438
12787TIP3    H259853   5.150   4.226  16.866 -1.5444  0.5463  1.2216
12788TIP3   OH259854   1.186   5.801   3.892  1.6352  0.1265 -0.4431
12788TIP3    H159855   1.205   5.840   3.806  2.2291 -0.4962 -0.6092
12788TIP3    H259856   1.189   5.874   3.953  2.8256  0.3478 -0.7360
12789TIP3   OH259857   3.880   1.580   0.579 -0.1146 -0.2273 -0.5702
12789TIP3    H159858   3.945   1.612   0.516 -0.2484 -0.2715 -0.7315
12789TIP3    H259859   3.802   1.562   0.526  0.1395 -1.3740 -0.5734
12790TIP3   OH259860   4.036   1.950   0.908 -0.7122  0.6714  0.5552
12790TIP3    H159861   4.046   1.857   0.925 -1.0143  0.8548  1.7867
12790TIP3    H259862   4.003   1.954   0.818 -0.3679 -0.3827  0.3657
12791TIP3   OH259863   3.531   1.184   1.054 -0.1065  0.1179  0.5558
12791TIP3    H159864   3.506   1.211   1.143 -0.7397  0.3622  0.3080
12791TIP3    H259865   3.479   1.240   0.996  1.5344  1.1290  0.0099
12792TIP3   OH259866   0.296   1.531   6.218 -0.1904  0.6212  0.0982
12792TIP3    H159867   0.224   1.594   6.212  0.8167  1.8661  0.6940
12792TIP3    H259868   0.254   1.446   6.202 -1.6624  1.3737 -0.2622
12793TIP3   OH259869   2.891   6.272   2.474  0.3290  0.0396  0.3811
12793TIP3    H159870   2.981   6.290   2.446  0.1981  1.6320  0.9238
12793TIP3    H259871   2.843   6.353   2.457 -0.7418 -0.3855  1.2188
12794TIP3   OH259872   5.952   4.432   4.953  0.1173 -0.1536  0.3193
12794TIP3    H159873   5.959   4.443   4.858 -1.9277  0.8551  0.2385
12794TIP3    H259874   5.936   4.338   4.964 -0.4062 -0.1638 -0.4088
12795TIP3   OH259875   2.873   1.901  13.163  0.1486  0.3284 -0.8345
12795TIP3    H159876   2.845   1.865  13.247  0.8883  0.2988 -0.5885
12795TIP3    H259877   2.962   1.934  13.180  0.5691 -0.2858 -1.7686
12796TIP3   OH259878   6.472   1.188  17.161 -0.1038  0.3197  0.6003
12796TIP3    H159879   6.512   1.111  17.202 -0.9253  0.3610  1.5256
12796TIP3    H259880   6.443   1.242  17.235  0.7302  1.6823 -0.0261
12797TIP3   OH259881   6.280   1.000  15.376  0.6932  0.1055  0.2621
12797TIP3    H159882   6.324   1.084  15.362 -0.6239  0.6111 -1.0469
12797TIP3    H259883   6.187   1.019  15.365  0.0358 -0.8993  3.1058
12798TIP3   OH259884   3.294   6.780   2.935 -0.3502 -0.1236 -0.1411
12798TIP3    H159885   3.333   6.858   2.975  0.0240 -0.0778 -0.5787
12798TIP3    H259886   3.221   6.814   2.883 -1.2386 -0.2513  0.9903
12799TIP3   OH259887   1.883   1.797   4.974  0.3615 -0.2328  0.7227
12799TIP3    H159888   1.947   1.739   4.934 -0.0360 -0.2429  0.0914
12799TIP3    H259889   1.888   1.776   5.068  1.0560 -0.4468  0.6437
12800TIP3   OH259890   1.639   2.600   0.134  0.1580  0.2440  0.5191
12800TIP3    H159891   1.632   2.514   0.174  0.4186  0.9207  2.0765
12800TIP3    H259892   1.683   2.584   0.050  0.5148 -1.0895  0.9403
12801TIP3   OH259893   6.721   2.052   5.581  0.3405  0.3495 -0.0131
12801TIP3    H159894   6.782   2.064   5.654 -0.8328  2.7764  0.6572
12801TIP3    H259895   6.762   2.098   5.507  0.1966  0.3455 -0.0965
12802TIP3   OH259896   2.006   1.875   3.209 -0.2864 -0.3224 -0.8774
12802TIP3    H159897   2.058   1.822   3.148 -0.4218 -0.0906 -1.1953
12802TIP3    H259898   1.946   1.924   3.153 -0.4405 -0.1396 -0.5531
12803TIP3   OH259899   6.291   1.310   5.201  0.0291  0.1598 -0.4382
12803TIP3    H159900   6.354   1.327   5.130  0.8882 -1.8615 -0.2155
12803TIP3    H259901   6.330   1.239   5.251 -2.4854 -1.2339 -0.3347
12804TIP3   OH259902   5.863   0.612  14.469  0.3834 -0.6761  0.2717
12804TIP3    H159903   5.819   0.602  14.553 -1.2325 -0.7671 -0.5632
12804TIP3    H259904   5.909   0.529  14.456 -2.3849 -2.1985 -0.6050
12805TIP3   OH259905   5.209   5.900   5.701 -0.6665 -0.2651  0.5713
12805TIP3    H159906   5.203   5.944   5.786 -2.7536 -1.0037  0.8729
12805TIP3    H259907   5.303   5.897   5.682 -0.3003  2.3875  1.5137
12806TIP3   OH259908   4.590   5.865  13.456  0.4684 -0.2177 -0.0821
12806TIP3    H159909   4.527   5.797  13.433  0.2335  0.5469 -1.9077
12806TIP3    H259910   4.656   5.862  13.387  0.5567  1.2493 -0.1026
12807TIP3   OH259911   3.753   3.405  16.994 -0.3358  0.4353 -0.1472
12807TIP3    H159912   3.793   3.339  16.937 -1.1016 -0.4393  0.2884
12807TIP3    H259913   3.821   3.471  17.007  0.5920 -0.4803 -0.2689
12808TIP3   OH259914   0.755   4.543   3.816  0.4055  0.2082 -0.1142
12808TIP3    H159915   0.738   4.631   3.850  1.2791  0.7084 -0.9219
12808TIP3    H259916   0.702   4.536   3.737 -0.1378 -0.2368  0.2783
12809TIP3   OH259917   0.591   4.422   3.613  0.6830 -0.4220  0.2518
12809TIP3    H159918   0.497   4.441   3.615  0.4854 -1.3734  1.8004
12809TIP3    H259919   0.595   4.326   3.604  1.5312 -0.3164 -0.6285
12810TIP3   OH259920   2.005   1.493  16.338 -0.0730 -0.9631 -0.5556
12810TIP3    H159921   2.062   1.542  16.396 -1.5114 -1.2161  1.1499
12810TIP3    H259922   2.040   1.404  16.337  0.6485 -0.6824 -1.0671
12811TIP3   OH259923   0.346   0.372  11.127  0.2618 -0.4185 -0.3976
12811TIP3    H159924   0.366   0.285  11.161 -1.4435 -0.0279  1.8551
12811TIP3    H259925   0.313   0.357  11.039  1.6313 -1.8442 -0.7072
12812TIP3   OH259926   5.013   1.847   0.015 -0.0769 -0.3395 -0.4335
12812TIP3    H159927   5.079   1.834   0.083 -1.2350 -1.1717  0.5849
12812TIP3    H259928   5.033   1.933  -0.022  0.4600  0.2365  1.1275
12813TIP3   OH259929   6.065   3.737  12.158 -0.0355  0.1525 -0.6534
12813TIP3    H159930   6.092   3.819  12.200  1.4794  0.8221 -2.7165
12813TIP3    H259931   5.987   3.760  12.108  0.1063  0.2223 -0.8450
12814TIP3   OH259932   2.250   4.333   1.278 -0.1728 -0.1093  0.3001
12814TIP3    H159933   2.283   4.373   1.198 -0.6349  0.4049  0.3601
12814TIP3    H259934   2.328   4.305   1.325  0.1048 -0.3650 -0.3037
12815TIP3   OH259935   5.296   4.870   1.824 -0.0768  0.6241  0.2262
12815TIP3    H159936   5.206   4.877   1.792  0.1740  0.0629 -0.6406
12815TIP3    H259937   5.350   4.904   1.752  0.4712 -0.0857  0.2900
12816TIP3   OH259938   1.841   2.801   2.274 -0.2522 -0.5981  0.3697
12816TIP3    H159939   1.841   2.823   2.181 -2.1355  3.9821  1.2091
12816TIP3    H259940   1.924   2.834   2.308 -1.1595  1.3134  0.8599
12817TIP3   OH259941   4.165   4.264   4.561  0.0159 -0.8142  0.4645
12817TIP3    H159942   4.080   4.300   4.585 -1.2753 -3.0158 -0.5049
12817TIP3    H259943   4.163   4.258   4.465  1.9894  0.6828  0.2644
12818TIP3   OH259944   3.834   5.830   3.708 -0.3017  0.2395  0.0958
12818TIP3    H159945   3.826   5.813   3.801 -0.5833  2.1454  0.4444
12818TIP3    H259946   3.766   5.776   3.667 -1.4174  0.8238  1.1560
12819TIP3   OH259947   6.095   5.707  13.532 -0.2302  0.3845 -0.0951
12819TIP3    H159948   6.001   5.724  13.520 -0.0222  0.1928 -2.5204
12819TIP3    H259949   6.102   5.611  13.524 -0.0067  0.1942  1.9228
12820TIP3   OH259950   6.615   6.636   2.768 -0.6181  0.3172 -0.9282
12820TIP3    H159951   6.522   6.648   2.787 -0.1471  1.6005  0.8541
12820TIP3    H259952   6.619   6.559   2.711 -2.7032 -0.2122 -0.4183
12821TIP3   OH259953   5.117   3.161  12.786 -0.4102  0.6464  0.4318
12821TIP3    H159954   5.074   3.075  12.793  2.3874 -0.7533  2.5718
12821TIP3    H259955   5.057   3.221  12.831 -2.4269 -0.1168 -1.1040
12822TIP3   OH259956   5.197   2.123  11.194  0.1557 -0.2419  0.0996
12822TIP3    H159957   5.214   2.075  11.275 -1.0433 -0.0675  0.4795
12822TIP3    H259958   5.227   2.212  11.212 -1.4914  0.1899  0.9421
12823TIP3   OH259959   6.755   6.461   5.564 -0.2092  0.9034 -0.1984
12823TIP3    H159960   6.778   6.545   5.524 -1.8870  1.1158 -0.8199
12823TIP3    H259961   6.682   6.482   5.623 -0.4894 -0.0694 -0.1827
12824TIP3   OH259962   2.373   2.484   5.228  0.6158  0.1331 -0.0764
12824TIP3    H159963   2.451   2.456   5.275  1.3060  0.8175 -0.7653
12824TIP3    H259964   2.375   2.436   5.145 -0.7731 -1.3224  0.6934
12825TIP3   OH259965   2.891   3.416  16.740  0.6199  0.2329 -0.2870
12825TIP3    H159966   2.881   3.323  16.758  0.8585  0.0354 -1.1489
12825TIP3    H259967   2.913   3.421  16.647  0.0484  1.1850 -0.3847
12826TIP3   OH259968   0.993   1.965   4.413 -0.0256  0.4385 -0.4208
12826TIP3    H159969   0.968   2.057   4.406 -0.0496  0.6942  1.9364
12826TIP3    H259970   0.916   1.917   4.384 -0.5434  1.1829 -0.3131
12827TIP3   OH259971   1.112   4.669   6.459  0.7405 -0.0120  0.0268
12827TIP3    H159972   1.059   4.746   6.477 -0.3902 -0.7192 -0.1395
12827TIP3    H259973   1.200   4.692   6.488  0.7610  1.8605 -1.3920
12828TIP3   OH259974   1.842   5.507  15.745 -0.4552 -0.2555  0.0641
12828TIP3    H159975   1.915   5.446  15.730 -1.7429 -1.1395 -3.3533
12828TIP3    H259976   1.790   5.464  15.813  0.5789 -1.1271  0.3466
12829TIP3   OH259977   4.179   1.146   1.693 -0.6598 -0.4193  0.0325
12829TIP3    H159978   4.157   1.111   1.607  2.1591 -0.2727 -0.8516
12829TIP3    H259979   4.244   1.214   1.675  1.2023 -1.4537  2.3129
12830TIP3   OH259980   3.360   6.297  13.715  0.1992  0.3195 -0.0001
12830TIP3    H159981   3.376   6.250  13.633  0.5605  0.9840 -0.3175
12830TIP3    H259982   3.346   6.387  13.688 -1.2976  0.2685  0.5243
12831TIP3   OH259983   2.385   6.154   3.158  0.0079  0.5406 -0.4448
12831TIP3    H159984   2.291   6.139   3.160  0.2911 -1.5241  2.2358
12831TIP3    H259985   2.424   6.068   3.172  2.3348  1.3851 -1.1338
12832TIP3   OH259986   1.613   2.864   4.450  0.8222 -0.1502  0.3752
12832TIP3    H159987   1.661   2.788   4.485  1.3480  0.7396  1.6408
12832TIP3    H259988   1.551   2.887   4.518  0.6489  0.5431 -0.0105
12833TIP3   OH259989   1.393   1.241   2.406  0.4584  0.4937  0.3735
12833TIP3    H159990   1.440   1.321   2.432  0.3606  0.4476  0.6979
12833TIP3    H259991   1.462   1.179   2.384  0.6063  0.0604  1.9152
12834TIP3   OH259992   3.103   4.412   4.914 -0.2166  0.1319 -0.5578
12834TIP3    H159993   3.145   4.477   4.858 -0.1842  0.3633 -0.2678
12834TIP3    H259994   3.027   4.457   4.951  0.8108  0.6250  1.0955
12835TIP3   OH259995   5.688   1.651  16.286  0.1042  0.6387 -0.2680
12835TIP3    H159996   5.641   1.710  16.345  1.4511  2.4194 -0.8623
12835TIP3    H259997   5.729   1.709  16.222 -0.2089 -1.1273 -2.1858
12836TIP3   OH259998   3.833   6.002  15.196  0.0012  0.0908 -0.5002
12836TIP3    H159999   3.919   6.033  15.166 -0.4314  0.1583 -1.7006
12836TIP3    H260000   3.849   5.912  15.223  0.3329 -0.1132 -1.3279
12837TIP3   OH260001   1.006   5.288  10.954 -0.1515  0.3451  0.4462
12837TIP3    H160002   1.047   5.204  10.936 -0.5686 -0.3348  2.3512
12837TIP3    H260003   0.923   5.285  10.906 -0.4269 -0.6032  0.9478
12838TIP3   OH260004   4.928   2.819   3.526 -0.3611 -0.3960  0.1908
12838TIP3    H160005   4.840   2.805   3.492 -0.3622 -0.1224  0.0734
12838TIP3    H260006   4.982   2.833   3.448 -0.7836  2.6436  0.2948
12839TIP3   OH260007   4.057   4.227   3.578 -0.5557 -0.3413 -0.0833
12839TIP3    H160008   4.128   4.217   3.514  0.0274 -0.4834  0.5826
12839TIP3    H260009   4.084   4.174   3.653 -1.4925 -0.6132  0.0766
12840TIP3   OH260010   1.160   1.417  11.556 -0.4385  0.6266 -0.7569
12840TIP3    H160011   1.171   1.322  11.563 -0.4416  0.5719 -1.4017
12840TIP3    H260012   1.110   1.441  11.634  1.2804  0.4054  0.4747
12841TIP3   OH260013   5.483   4.824   3.707 -0.2662  0.1341 -0.6165
12841TIP3    H160014   5.444   4.737   3.705 -1.8391  0.7717  0.5134
12841TIP3    H260015   5.485   4.847   3.799  0.7211  1.0587 -0.8500
12842TIP3   OH260016   4.701   4.928  11.718 -0.8366 -0.3884  0.0737
12842TIP3    H160017   4.747   4.948  11.800 -0.2354 -2.0114  0.1652
12842TIP3    H260018   4.650   4.850  11.737  0.7210 -1.9023 -1.5396
12843TIP3   OH260019   4.359   0.044  13.128  0.2607  0.1098 -0.6467
12843TIP3    H160020   4.399  -0.025  13.180  1.7722 -0.6041 -2.6264
12843TIP3    H260021   4.269   0.014  13.113  1.1903 -2.1048 -2.4259
12844TIP3   OH260022   5.624   3.238  14.494  0.4314 -0.4915  0.0300
12844TIP3    H160023   5.615   3.285  14.577  0.8689 -1.9707  0.9596
12844TIP3    H260024   5.537   3.241  14.455  0.2844  0.4591  0.4050
12845TIP3   OH260025   5.682   3.636  16.517  0.5936  0.1421  0.4094
12845TIP3    H160026   5.604   3.691  16.528  0.2047  0.0158 -1.3829
12845TIP3    H260027   5.648   3.547  16.509  1.0444 -0.0877  0.9709
12846TIP3   OH260028   4.665   2.627  11.196  0.1968  0.0493 -0.0487
12846TIP3    H160029   4.635   2.708  11.235 -0.6364 -0.0571 -0.4499
12846TIP3    H260030   4.612   2.559  11.237  0.7220 -0.2758  0.1093
12847TIP3   OH260031   0.360   5.655  10.867  0.3183  0.2197 -0.2973
12847TIP3    H160032   0.452   5.635  10.881 -0.1918 -1.4878  0.9085
12847TIP3    H260033   0.358   5.699  10.782  1.9887 -1.8498 -1.5007
12848TIP3   OH260034   3.738   4.989   0.522 -0.3778 -0.1507  0.4460
12848TIP3    H160035   3.682   4.937   0.580 -1.9765 -1.3472 -2.0496
12848TIP3    H260036   3.732   5.078   0.558 -3.2106 -0.3950  0.8204
12849TIP3   OH260037   5.257   2.086   0.559 -0.1579  0.1468 -0.1249
12849TIP3    H160038   5.344   2.053   0.534 -0.0159  0.3258  0.1183
12849TIP3    H260039   5.272   2.178   0.579 -0.0037 -0.2540  1.8032
12850TIP3   OH260040   5.854   6.594   6.181 -0.1227 -0.1662 -0.7334
12850TIP3    H160041   5.845   6.682   6.218 -0.4691  0.2418 -1.7382
12850TIP3    H260042   5.819   6.536   6.248  1.2635  0.3350  0.4728
12851TIP3   OH260043   1.370   0.804   3.785 -0.1951  0.4126 -0.0801
12851TIP3    H160044   1.382   0.792   3.691  1.6126 -1.1058  0.2823
12851TIP3    H260045   1.340   0.894   3.794  1.5232  1.2629 -1.9881
12852TIP3   OH260046   3.466   0.413   0.554  0.1842  0.4835 -0.0059
12852TIP3    H160047   3.558   0.400   0.574  0.3514  0.6988 -0.6141
12852TIP3    H260048   3.455   0.377   0.466 -0.1410  1.1334 -0.2381
12853TIP3   OH260049   5.892   1.258  14.673  0.2077  0.4725  0.1403
12853TIP3    H160050   5.971   1.250  14.727 -1.2069 -0.8874  2.1535
12853TIP3    H260051   5.881   1.352  14.661  3.6358  0.7317 -2.6908
12854TIP3   OH260052   6.377   4.675   4.791  0.3216  0.0096 -0.1076
12854TIP3    H160053   6.414   4.615   4.857 -1.0638 -0.7987 -0.0257
12854TIP3    H260054   6.301   4.714   4.834  1.3068  2.0616 -0.0798
12855TIP3   OH260055   4.508   0.296  17.018 -0.2556 -0.0789  0.2127
12855TIP3    H160056   4.509   0.200  17.017  0.1526 -0.0837  0.6963
12855TIP3    H260057   4.457   0.319  17.096  0.8794  0.0840  0.9295
12856TIP3   OH260058   5.380   1.922   2.703  0.3306 -0.3891  0.0395
12856TIP3    H160059   5.454   1.957   2.754  1.4299  1.1010 -2.3689
12856TIP3    H260060   5.316   1.993   2.701 -0.2730 -0.9150  0.4098
12857TIP3   OH260061   6.720   4.378  12.849  1.0179 -0.3990  0.0435
12857TIP3    H160062   6.701   4.466  12.882  1.9916 -0.5151  0.9829
12857TIP3    H260063   6.779   4.393  12.775 -0.2910 -0.1953 -1.0053
12858TIP3   OH260064   4.535   3.087   0.921  0.0587 -0.0761  0.5789
12858TIP3    H160065   4.507   3.156   0.862  0.5345 -0.6718 -0.3800
12858TIP3    H260066   4.591   3.131   0.986 -1.3787  0.7722  1.3025
12859TIP3   OH260067   4.722   4.368  11.635  0.4121 -0.0548  0.1296
12859TIP3    H160068   4.674   4.358  11.553  0.1616 -1.1100  0.3951
12859TIP3    H260069   4.660   4.410  11.694  0.3233 -0.0265  0.0165
12860TIP3   OH260070   5.710   1.917   2.656  0.0553  0.1639 -0.3713
12860TIP3    H160071   5.699   1.952   2.744  0.1460  1.3330 -0.7946
12860TIP3    H260072   5.711   1.822   2.667  0.2299  0.2952  0.8962
12861TIP3   OH260073   5.440   5.103   3.202 -0.6964 -0.0662  0.1698
12861TIP3    H160074   5.506   5.075   3.265  0.0556  1.0582 -0.0998
12861TIP3    H260075   5.431   5.029   3.142 -0.9357 -0.8847  1.1879
12862TIP3   OH260076   6.243   6.803  13.714  0.3883 -0.4429 -0.2520
12862TIP3    H160077   6.302   6.807  13.789  1.3769 -1.2615 -0.9500
12862TIP3    H260078   6.155   6.797  13.752  0.7784  0.3690  0.8166
12863TIP3   OH260079   2.401   2.583  11.682  0.4865 -0.2919  0.1820
12863TIP3    H160080   2.378   2.671  11.652 -0.1449 -0.2537  0.7506
12863TIP3    H260081   2.437   2.595  11.769  2.3587 -0.4028 -0.5215
12864TIP3   OH260082   3.764   4.597  10.698  0.0922 -0.0685  0.0267
12864TIP3    H160083   3.697   4.532  10.677  0.3503 -0.8848  1.5550
12864TIP3    H260084   3.846   4.561  10.663 -0.4264  1.8515 -3.6485
12865TIP3   OH260085   4.421   5.353   0.536  0.1183  0.1081 -0.2778
12865TIP3    H160086   4.350   5.290   0.541  0.0695  0.2476  2.1303
12865TIP3    H260087   4.416   5.389   0.448 -0.3317 -2.6580 -1.4596
12866TIP3   OH260088   4.541   0.623  17.112 -0.0215 -0.4213  0.2794
12866TIP3    H160089   4.576   0.711  17.130 -2.9288  0.9618 -0.3039
12866TIP3    H260090   4.587   0.595  17.033 -0.3855  1.4345 -0.6406
12867TIP3   OH260091   6.461   5.640  13.653 -0.5326  0.3896 -0.1672
12867TIP3    H160092   6.544   5.625  13.699 -0.8632 -0.2202  0.2411
12867TIP3    H260093   6.487   5.667  13.565  0.2488 -4.2116 -1.6626
12868TIP3   OH260094   2.653   6.464   0.359  0.4130 -0.5082 -0.4385
12868TIP3    H160095   2.668   6.545   0.311  1.7786  0.8291  2.0395
12868TIP3    H260096   2.562   6.471   0.389  1.0258  1.1359  1.3214
12869TIP3   OH260097   4.052   2.503   4.899  0.0890  0.3246  0.1521
12869TIP3    H160098   4.133   2.463   4.866 -0.1460  0.3463 -0.4555
12869TIP3    H260099   3.994   2.507   4.824 -1.1879 -1.4192  0.9800
12870TIP3   OH260100   4.634   3.887  17.016 -0.0432  0.4575 -0.4523
12870TIP3    H160101   4.633   3.855  17.106  1.6310 -0.4702 -0.7244
12870TIP3    H260102   4.661   3.811  16.964  1.0969  1.5188 -1.4810
12871TIP3   OH260103   3.653   2.986   1.950 -0.0566  0.1988  0.5087
12871TIP3    H160104   3.602   2.909   1.974 -1.8851  1.6188  1.3671
12871TIP3    H260105   3.619   3.013   1.865 -0.7092  1.0985  1.0406
12872TIP3   OH260106   1.467   3.816  16.131 -0.3220 -0.8339  0.6044
12872TIP3    H160107   1.562   3.814  16.139 -0.0015 -2.0868 -2.1941
12872TIP3    H260108   1.442   3.905  16.156  1.4618 -0.6585  1.9897
12873TIP3   OH260109   0.733   5.647  11.764  0.0499  0.4306  0.0300
12873TIP3    H160110   0.804   5.710  11.775  0.6768 -0.4805  1.4684
12873TIP3    H260111   0.667   5.673  11.828  0.3234 -0.3535  0.6551
12874TIP3   OH260112   0.299   3.970   3.461 -0.8133 -0.0414 -0.0561
12874TIP3    H160113   0.261   3.888   3.430  0.9750 -0.7633 -0.4707
12874TIP3    H260114   0.292   3.965   3.556  0.7688 -1.4871  0.0330
12875TIP3   OH260115   4.232   5.460   6.497 -0.0421  0.5127  0.3372
12875TIP3    H160116   4.157   5.518   6.490 -0.1734  0.2119 -1.0501
12875TIP3    H260117   4.298   5.512   6.542 -0.7691  1.0952  0.7559
12876TIP3   OH260118   0.415   6.018  14.563 -0.2476  0.5753  0.1438
12876TIP3    H160119   0.448   5.937  14.602 -2.5989 -0.1520  0.8059
12876TIP3    H260120   0.413   6.001  14.469  0.0839  0.1917  0.2055
12877TIP3   OH260121   2.661   4.469   1.595 -0.0663 -0.1801 -0.3844
12877TIP3    H160122   2.718   4.395   1.575  0.3365  0.2245 -0.7544
12877TIP3    H260123   2.615   4.489   1.513 -1.0230 -0.7310  0.0008
12878TIP3   OH260124   2.638   1.203  12.658  0.6767  0.1625  0.0357
12878TIP3    H160125   2.594   1.287  12.668  0.6283  0.1894 -0.3707
12878TIP3    H260126   2.695   1.196  12.735 -1.5866 -0.8347  1.7331
12879TIP3   OH260127   5.510   5.682  12.422 -0.1979  0.3905 -0.4347
12879TIP3    H160128   5.525   5.594  12.387  0.7250  0.5663 -0.5113
12879TIP3    H260129   5.578   5.692  12.489 -1.0054  0.6232  0.3633
12880TIP3   OH260130   3.493   4.531   5.429 -0.5298  0.2156  0.8631
12880TIP3    H160131   3.413   4.510   5.477  0.2186  0.9208  2.5364
12880TIP3    H260132   3.563   4.512   5.492  0.5418  0.7299 -0.1431
12881TIP3   OH260133   5.867   5.634  12.246 -0.3449  0.6373 -0.9427
12881TIP3    H160134   5.943   5.596  12.202 -0.3786  0.5460 -0.9222
12881TIP3    H260135   5.852   5.577  12.322 -1.2429 -0.1322 -1.6726
12882TIP3   OH260136   3.306   1.031   4.772  0.4907  0.2075  0.3979
12882TIP3    H160137   3.386   0.994   4.809  1.0392  0.8484 -0.1111
12882TIP3    H260138   3.251   0.955   4.752  0.8495 -0.2212  1.0216
12883TIP3   OH260139   0.940   1.361  12.181  0.2466  0.4324 -0.0712
12883TIP3    H160140   0.884   1.310  12.123 -0.0553  0.3849  0.2569
12883TIP3    H260141   1.029   1.334  12.158  0.1239  0.3214 -0.4216
12884TIP3   OH260142   4.347   6.776   0.496  0.6971  0.3736  0.8778
12884TIP3    H160143   4.413   6.708   0.507 -1.2691 -1.9266 -0.4196
12884TIP3    H260144   4.281   6.756   0.563  0.7181  1.9043  1.3918
12885TIP3   OH260145   3.523   5.292  11.543  0.0731 -0.4404  0.5691
12885TIP3    H160146   3.432   5.285  11.516  0.2321  0.0791 -0.1440
12885TIP3    H260147   3.556   5.369  11.496  0.9124 -0.7076  0.7072
12886TIP3   OH260148   5.891   2.085   3.583  0.4607  0.5325 -0.3254
12886TIP3    H160149   5.969   2.044   3.547 -0.3957 -1.8747  0.4105
12886TIP3    H260150   5.822   2.020   3.572 -0.4658  0.7617  3.0090
12887TIP3   OH260151   5.105   1.349  11.435 -0.4318 -0.6081 -0.1462
12887TIP3    H160152   5.108   1.365  11.341  1.9186 -0.9069 -0.1877
12887TIP3    H260153   5.054   1.268  11.444  1.0575 -1.7394 -1.4006
12888TIP3   OH260154   3.100   4.716  16.565 -0.1139  0.2389  0.1918
12888TIP3    H160155   3.043   4.710  16.488 -0.6116  0.0258  0.5675
12888TIP3    H260156   3.167   4.649  16.551 -1.4683 -1.3543  0.9584
12889TIP3   OH260157   3.017   4.029  11.363 -0.1499  0.6956 -0.0760
12889TIP3    H160158   2.941   4.000  11.414  1.7800 -0.3515  2.4331
12889TIP3    H260159   3.025   3.965  11.292 -1.4739  0.7322 -0.2786
12890TIP3   OH260160   2.906   3.950  13.763  0.0158  0.2204  0.1440
12890TIP3    H160161   2.992   3.926  13.727 -0.6317 -0.7367 -0.8296
12890TIP3    H260162   2.846   3.884  13.727 -1.5252  2.1678 -1.0286
12891TIP3   OH260163   0.182   5.817   0.715 -1.0882  0.5131 -0.1904
12891TIP3    H160164   0.144   5.869   0.644  1.5308  2.3309 -0.3759
12891TIP3    H260165   0.212   5.737   0.672  0.9158  1.8020 -1.3373
12892TIP3   OH260166   3.605   0.703  13.357  0.6724 -0.7921  0.1352
12892TIP3    H160167   3.582   0.776  13.301  0.3864 -1.0702 -0.1116
12892TIP3    H260168   3.588   0.625  13.304  2.8886 -1.0193 -0.3646
12893TIP3   OH260169   5.744   4.346   1.647  0.6290 -0.5702 -0.1272
12893TIP3    H160170   5.715   4.434   1.622  3.0838  0.3853  0.0699
12893TIP3    H260171   5.729   4.341   1.741 -0.3847 -0.7268 -0.2951
12894TIP3   OH260172   1.384   5.826   3.046  0.3524 -0.5016 -0.5770
12894TIP3    H160173   1.429   5.910   3.039  2.6466 -1.6474 -0.4826
12894TIP3    H260174   1.426   5.782   3.120 -1.7383 -1.2184  0.2467
12895TIP3   OH260175   3.051   0.464   0.634  0.2286  0.1297 -0.7390
12895TIP3    H160176   3.126   0.512   0.600  1.7950 -1.4640  0.2641
12895TIP3    H260177   3.009   0.524   0.696  0.2040  1.2968 -1.8522
12896TIP3   OH260178   1.061   4.626   5.373 -0.0722  0.6761 -0.0320
12896TIP3    H160179   1.036   4.650   5.462 -3.0451 -1.4443 -0.1361
12896TIP3    H260180   1.074   4.709   5.328  0.3060  1.8057  2.0679
12897TIP3   OH260181   0.255   4.908  16.692 -0.6617 -0.2106  0.3276
12897TIP3    H160182   0.204   4.975  16.737 -2.2140 -0.6075 -0.7465
12897TIP3    H260183   0.330   4.955  16.656 -1.2331  0.7811  0.3980
12898TIP3   OH260184   6.300   3.257  16.064  0.1057  0.2932 -0.2952
12898TIP3    H160185   6.378   3.300  16.100 -0.9623  1.7149  0.4370
12898TIP3    H260186   6.254   3.327  16.018  0.9141 -1.2522 -3.7246
12899TIP3   OH260187   1.651   6.108  14.581 -0.3209 -0.0388 -0.0231
12899TIP3    H160188   1.557   6.122  14.594  0.1862  1.5830  2.7359
12899TIP3    H260189   1.679   6.182  14.527 -0.4646  0.0483  0.0227
12900TIP3   OH260190   3.006   6.008  11.515  0.1733  0.2002 -0.4560
12900TIP3    H160191   3.054   5.928  11.537  0.9670  0.7083 -0.3163
12900TIP3    H260192   2.988   6.000  11.421 -2.4131 -1.5382  0.0921
12901TIP3   OH260193   0.708   0.759  11.698  0.3955  0.3796  0.2776
12901TIP3    H160194   0.728   0.835  11.643  1.0220 -0.8562 -1.2893
12901TIP3    H260195   0.613   0.763  11.710 -0.0483 -0.1705 -2.3701
12902TIP3   OH260196   5.675   5.658  15.946  0.7935 -0.0658 -0.3197
12902TIP3    H160197   5.707   5.582  15.995  0.8327 -0.3031 -0.7122
12902TIP3    H260198   5.694   5.638  15.855  0.3193  0.1796 -0.4775
12903TIP3   OH260199   2.717   2.496  14.643 -0.5007  0.1906  0.0834
12903TIP3    H160200   2.670   2.494  14.559 -1.2126 -0.6784  0.4817
12903TIP3    H260201   2.710   2.588  14.672 -0.3516  0.4702 -0.7409
12904TIP3   OH260202   2.009   5.271   3.687  0.3773 -0.1442 -0.0384
12904TIP3    H160203   2.072   5.324   3.637  0.0005 -1.3319 -1.8483
12904TIP3    H260204   1.924   5.310   3.668  0.4151  0.7354  1.4679
12905TIP3   OH260205   6.655   0.530   0.779  0.5461 -0.0802  0.1211
12905TIP3    H160206   6.652   0.620   0.744 -0.4468  0.7041  2.0803
12905TIP3    H260207   6.667   0.476   0.701 -2.1285  1.5142 -1.6068
12906TIP3   OH260208   2.481   6.311   6.099 -0.1880 -0.6008  0.4199
12906TIP3    H160209   2.495   6.389   6.045 -1.2754  0.0881  1.0986
12906TIP3    H260210   2.468   6.345   6.188 -2.7718 -1.3673  0.4053
12907TIP3   OH260211   5.759   5.622  13.092  0.4370  0.3572  0.1084
12907TIP3    H160212   5.762   5.664  13.178 -2.0906  0.7739  0.0587
12907TIP3    H260213   5.682   5.565  13.096  0.2001  0.4660 -1.9121
12908TIP3   OH260214   2.645   0.445  16.137  0.5030 -0.0346  0.1563
12908TIP3    H160215   2.625   0.450  16.043 -1.0728  1.2491  0.5160
12908TIP3    H260216   2.722   0.500  16.148 -1.6863  3.2969  0.1525
12909TIP3   OH260217   2.710   5.361   2.320 -0.2001 -0.8874 -0.1370
12909TIP3    H160218   2.780   5.362   2.385 -0.2409 -1.5337 -0.0726
12909TIP3    H260219   2.642   5.306   2.359 -0.3889 -0.9607 -0.5613
12910TIP3   OH260220   0.926   1.794  16.306  0.0282  0.5174 -0.0135
12910TIP3    H160221   0.871   1.778  16.383 -0.4435  0.9312 -0.2653
12910TIP3    H260222   0.945   1.706  16.272 -1.5192  0.4037 -0.6612
12911TIP3   OH260223   1.977   5.414   4.370 -0.0160 -0.2099  0.5254
12911TIP3    H160224   2.013   5.477   4.433  1.2597 -1.4751  1.1221
12911TIP3    H260225   1.976   5.331   4.417 -2.2064 -0.5833 -0.0533
12912TIP3   OH260226   6.835   4.867   2.579  0.2796 -0.3811  0.6944
12912TIP3    H160227   6.772   4.884   2.649 -0.3401 -0.1261  0.0920
12912TIP3    H260228   6.782   4.832   2.507  0.6406  0.8977 -0.2329
12913TIP3   OH260229   1.122   0.045  10.386  0.6323  0.1799  0.0923
12913TIP3    H160230   1.041   0.031  10.434  0.2235  0.2050 -0.5859
12913TIP3    H260231   1.127  -0.028  10.324  0.7600  0.5768 -0.3687
12914TIP3   OH260232   3.705   0.786   6.166 -0.7081 -0.4165  0.2577
12914TIP3    H160233   3.765   0.833   6.108  1.1395 -2.7126  0.1689
12914TIP3    H260234   3.666   0.855   6.220  1.6169  1.2596 -0.0250
12915TIP3   OH260235   2.188   5.776  11.602 -0.6725  0.2266  0.6685
12915TIP3    H160236   2.217   5.697  11.556 -1.8606 -1.2601  2.3266
12915TIP3    H260237   2.113   5.808  11.552 -0.3008  0.2160  0.0934
12916TIP3   OH260238   3.820   6.397   2.892  0.0335  0.0036  0.4289
12916TIP3    H160239   3.790   6.313   2.858 -0.1640  0.2918 -0.1104
12916TIP3    H260240   3.741   6.437   2.929 -0.1534  0.5198 -0.4941
12917TIP3   OH260241   0.637   2.080   2.064  0.1392  0.1007  0.3868
12917TIP3    H160242   0.656   2.163   2.108  1.5877  0.0011  0.0117
12917TIP3    H260243   0.544   2.066   2.079 -0.1946  1.9047  0.2730
12918TIP3   OH260244   1.829   6.191   1.397 -0.0880 -0.0982  0.6021
12918TIP3    H160245   1.883   6.150   1.465  1.5237 -1.7846 -1.5419
12918TIP3    H260246   1.744   6.148   1.404  0.8531 -2.1778 -0.0431
12919TIP3   OH260247   5.266   1.659  12.667 -0.2623  1.0538 -0.3167
12919TIP3    H160248   5.220   1.580  12.641  0.3785  0.5946 -0.0700
12919TIP3    H260249   5.282   1.648  12.761  1.1104  0.7964 -0.5524
12920TIP3   OH260250   4.607   4.148   4.508 -0.5946 -0.6401  0.9910
12920TIP3    H160251   4.681   4.088   4.520 -0.0098 -0.0201  0.5591
12920TIP3    H260252   4.623   4.219   4.570  1.4148  1.5883 -1.7730
12921TIP3   OH260253   5.490   2.308  11.909  0.4589 -0.4679  0.0008
12921TIP3    H160254   5.462   2.287  11.819 -0.0693  0.6299 -0.1084
12921TIP3    H260255   5.583   2.331  11.900  0.1942  0.4685 -0.4121
12922TIP3   OH260256   0.320   1.779  16.518  0.0503 -0.0932  0.1484
12922TIP3    H160257   0.385   1.827  16.569 -0.0573 -0.3326  0.5219
12922TIP3    H260258   0.354   1.690  16.513  0.7829  0.2389 -1.4787
12923TIP3   OH260259   5.787   0.502  16.509 -0.0223  0.1132  0.1015
12923TIP3    H160260   5.765   0.586  16.468  0.2969 -0.2197 -0.7710
12923TIP3    H260261   5.722   0.441  16.476 -1.5890  0.4020  2.3688
12924TIP3   OH260262   3.912   3.834  14.478 -0.0880  0.0892 -0.5679
12924TIP3    H160263   3.853   3.764  14.505  0.3855 -1.2855 -2.8392
12924TIP3    H260264   3.860   3.889  14.419  0.0252  0.6844 -0.1236
12925TIP3   OH260265   0.827   6.213   0.896  0.5213 -0.7602 -0.0114
12925TIP3    H160266   0.860   6.243   0.811  1.5330 -2.5487 -0.2846
12925TIP3    H260267   0.772   6.137   0.876 -0.3345 -0.3947  0.8380
12926TIP3   OH260268   3.776   0.931   0.518 -0.0977 -0.0838  0.3977
12926TIP3    H160269   3.721   0.926   0.597 -0.5755  0.0188  0.0758
12926TIP3    H260270   3.722   0.892   0.449  0.2455  0.0015  0.0784
12927TIP3   OH260271   1.902   2.853   1.389  0.5812 -0.4868  0.9403
12927TIP3    H160272   1.920   2.825   1.300 -1.8876 -0.0772  0.2650
12927TIP3    H260273   1.982   2.898   1.416  0.9458  0.4553 -1.5026
12928TIP3   OH260274   0.230   6.484  12.443  0.4547 -0.8011 -0.4032
12928TIP3    H160275   0.229   6.566  12.393 -0.5595 -1.5419 -1.6373
12928TIP3    H260276   0.224   6.513  12.534  0.8387  0.5215 -0.7612
12929TIP3   OH260277   4.814   6.769   2.199  0.1153  0.0366 -0.0944
12929TIP3    H160278   4.731   6.744   2.239  0.4795 -1.4957 -0.2447
12929TIP3    H260279   4.802   6.748   2.106  0.2287  1.0284 -0.3418
12930TIP3   OH260280   6.030   3.152   2.397  0.1121  0.4456 -0.8364
12930TIP3    H160281   6.021   3.134   2.490 -0.0799 -2.7322 -1.3622
12930TIP3    H260282   5.940   3.169   2.367  0.2963  2.6128 -0.3303
12931TIP3   OH260283   4.309   0.711  15.655 -0.0567 -0.5645  0.4640
12931TIP3    H160284   4.321   0.696  15.562  0.7572  0.0043  0.4671
12931TIP3    H260285   4.278   0.801  15.661 -0.5669 -0.7544  0.7136
12932TIP3   OH260286   4.528   4.614  16.898 -0.6343 -0.1320 -0.4667
12932TIP3    H160287   4.491   4.540  16.850 -1.4355 -0.0945  0.0704
12932TIP3    H260288   4.452   4.665  16.926 -0.2780 -0.6236  1.5700
12933TIP3   OH260289   0.037   0.818  17.076  0.2610 -0.2267  0.2413
12933TIP3    H160290  -0.008   0.794  16.995 -1.0674 -1.1765  1.1967
12933TIP3    H260291   0.124   0.778  17.069 -0.7402 -2.6162  0.3376
12934TIP3   OH260292   4.164   2.394   1.859 -0.3015 -0.5724  0.5285
12934TIP3    H160293   4.123   2.449   1.926  1.7242  0.3019  1.1261
12934TIP3    H260294   4.129   2.426   1.776 -0.0778  0.8273  0.9488
12935TIP3   OH260295   5.438   3.683  13.093  0.1540  0.0907  0.2755
12935TIP3    H160296   5.425   3.705  13.185 -0.8289  0.1208  0.1421
12935TIP3    H260297   5.475   3.762  13.054  1.2118 -0.1414  0.7633
12936TIP3   OH260298   1.985   0.771   0.717 -0.5641  0.3351 -0.0026
12936TIP3    H160299   1.917   0.828   0.753 -0.5039 -0.1722  0.9433
12936TIP3    H260300   1.941   0.687   0.704  0.0861 -0.2742  1.5097
12937TIP3   OH260301   2.460   2.448  17.019  0.7022 -0.0231 -0.4397
12937TIP3    H160302   2.415   2.528  17.047  0.8208 -0.3685  0.7950
12937TIP3    H260303   2.553   2.466  17.030  0.7780 -0.0108 -1.0630
12938TIP3   OH260304   3.829   5.363  12.762 -0.6279  0.2248  0.2207
12938TIP3    H160305   3.912   5.336  12.722 -0.9269  0.4692 -0.5795
12938TIP3    H260306   3.780   5.282  12.773 -1.1586  0.3007 -1.3401
12939TIP3   OH260307   6.429   4.231  14.003  0.2786  0.1597  0.5581
12939TIP3    H160308   6.455   4.185  13.924 -0.9785  0.5268 -0.0924
12939TIP3    H260309   6.446   4.169  14.074 -1.2289 -1.2927 -0.2821
12940TIP3   OH260310   3.062   5.582   3.709  0.2326 -0.3572 -0.3842
12940TIP3    H160311   3.083   5.660   3.657 -0.9581 -0.6259 -1.3228
12940TIP3    H260312   2.994   5.611   3.769  1.9146  0.0678  1.4315
12941TIP3   OH260313   2.500   4.395   4.492 -0.0354  0.0730 -0.0995
12941TIP3    H160314   2.420   4.435   4.458 -1.3235 -2.0779  0.2722
12941TIP3    H260315   2.511   4.315   4.442  1.4766 -0.0754  0.4036
12942TIP3   OH260316   6.784   1.488  16.115 -0.0601 -0.5627  0.3944
12942TIP3    H160317   6.769   1.551  16.045 -1.4376  0.3198  1.4306
12942TIP3    H260318   6.870   1.449  16.095  1.0064  1.8765 -0.0918
12943TIP3   OH260319   3.653   1.854  13.938 -0.0565 -0.5183 -0.2847
12943TIP3    H160320   3.608   1.783  13.983 -1.7546 -0.0602 -1.1630
12943TIP3    H260321   3.583   1.915  13.914  1.1900  0.7711 -0.7645
12944TIP3   OH260322   2.816   6.324  13.942 -0.2507  0.4314  0.3844
12944TIP3    H160323   2.787   6.389  13.878  0.2583  1.9676  1.6754
12944TIP3    H260324   2.909   6.312  13.924  0.2359  1.9692  1.7378
12945TIP3   OH260325   5.808   0.151   3.302  0.0873 -0.4894  1.0154
12945TIP3    H160326   5.745   0.103   3.356 -1.6071 -0.4866 -0.8491
12945TIP3    H260327   5.790   0.123   3.213  2.7250 -0.4017  0.3861
12946TIP3   OH260328   4.972   2.034   5.862  0.2126 -0.0016  0.1289
12946TIP3    H160329   4.975   1.973   5.789  0.9620 -1.1994  1.1228
12946TIP3    H260330   4.981   1.980   5.940 -0.1394  1.2811  1.1051
12947TIP3   OH260331   3.699   2.445  14.403 -0.2430 -0.4580 -0.4173
12947TIP3    H160332   3.674   2.521  14.351  0.3844 -0.9302 -1.4405
12947TIP3    H260333   3.770   2.476  14.459  0.3860 -0.4160 -1.2260
12948TIP3   OH260334   2.688   1.134   3.493  0.9555 -0.2181 -0.0423
12948TIP3    H160335   2.658   1.204   3.551  0.0832 -0.1655 -0.5443
12948TIP3    H260336   2.756   1.176   3.439  2.1756 -0.4134  1.2774
12949TIP3   OH260337   3.268   4.168   0.564 -0.4394  0.2414 -0.0826
12949TIP3    H160338   3.196   4.196   0.507 -0.0411  0.0778 -0.6813
12949TIP3    H260339   3.348   4.190   0.515 -0.0984 -1.2304 -0.2579
12950TIP3   OH260340   6.589   6.376  16.839 -0.1966 -0.5804 -0.1378
12950TIP3    H160341   6.571   6.465  16.870 -0.3327 -0.0316 -1.6858
12950TIP3    H260342   6.556   6.375  16.749 -1.2382 -2.5702  0.2302
12951TIP3   OH260343   3.075   5.293  13.467  0.1699 -0.4200  0.0961
12951TIP3    H160344   3.069   5.277  13.373  1.6282 -0.0740 -0.0879
12951TIP3    H260345   2.989   5.324  13.492 -0.0314  0.1995 -1.2729
12952TIP3   OH260346   5.428   4.015   0.104  0.6013 -0.2143 -0.3055
12952TIP3    H160347   5.466   3.944   0.052  0.2704  1.2321 -2.6773
12952TIP3    H260348   5.341   3.983   0.129  0.7943 -0.9692 -0.5762
12953TIP3   OH260349   4.933   5.438   6.785  0.3582 -0.0390 -0.1882
12953TIP3    H160350   5.007   5.440   6.725 -1.7386  0.2409 -2.9706
12953TIP3    H260351   4.860   5.474   6.734 -1.4677  0.8051  2.7671
12954TIP3   OH260352   3.211   1.513  16.371 -0.8946 -0.2416  0.0105
12954TIP3    H160353   3.159   1.584  16.334 -0.8352  0.6205  1.4963
12954TIP3    H260354   3.164   1.488  16.451 -0.7780 -1.7159 -0.3406
12955TIP3   OH260355   6.478   5.952  16.768  0.0125 -0.2252  0.0530
12955TIP3    H160356   6.490   6.013  16.842 -0.6231  2.1620 -1.6933
12955TIP3    H260357   6.548   5.887  16.780  1.0126  1.0638  1.8166
12956TIP3   OH260358   5.090   5.017   0.765 -0.0875 -0.3859  1.0031
12956TIP3    H160359   5.123   4.931   0.738 -1.4617 -0.5338 -0.3586
12956TIP3    H260360   5.073   5.063   0.683 -0.0675  0.9279  1.7084
12957TIP3   OH260361   1.233   3.362   1.556 -0.6736  0.7716 -0.1290
12957TIP3    H160362   1.282   3.382   1.477  0.2606 -0.0963  0.2147
12957TIP3    H260363   1.181   3.441   1.573 -1.1257  0.8513 -1.7591
12958TIP3   OH260364   4.751   3.411  14.172  0.2055 -0.3186 -0.5254
12958TIP3    H160365   4.715   3.355  14.241  2.3590 -0.9135  0.2016
12958TIP3    H260366   4.745   3.358  14.092 -1.2757 -0.0608 -0.6043
12959TIP3   OH260367   6.351   5.434  17.124 -0.0276 -0.2294 -0.1157
12959TIP3    H160368   6.431   5.477  17.153 -0.4357 -0.2363  1.0528
12959TIP3    H260369   6.302   5.416  17.204 -0.0415 -2.5376 -0.5571
12960TIP3   OH260370   3.934   2.856  15.039  0.1828  0.4245 -0.9204
12960TIP3    H160371   4.028   2.865  15.026  0.5547 -2.3908 -0.9427
12960TIP3    H260372   3.907   2.790  14.975 -1.3323 -0.4811  0.5496
12961TIP3   OH260373   1.905   2.020  13.713 -0.3183 -0.3468  0.1717
12961TIP3    H160374   1.981   2.033  13.770 -0.3043  0.3686  0.0053
12961TIP3    H260375   1.942   2.023  13.624 -0.6387  0.8934  0.0580
12962TIP3   OH260376   0.624   1.899  15.263  0.6774  0.4338 -0.4321
12962TIP3    H160377   0.719   1.892  15.253  0.6671 -2.2246  0.7477
12962TIP3    H260378   0.612   1.945  15.346  0.9969 -0.9933  0.4350
12963TIP3   OH260379   0.269   1.194   3.382 -0.6086 -0.4702 -0.3559
12963TIP3    H160380   0.249   1.125   3.319 -0.3730  0.7081 -1.7867
12963TIP3    H260381   0.362   1.214   3.367 -0.0848 -1.2395  1.5101
12964TIP3   OH260382   2.474   6.831  13.655 -0.4292  0.3235 -0.0370
12964TIP3    H160383   2.507   6.800  13.571 -0.2540 -2.0655  0.8397
12964TIP3    H260384   2.472   6.926  13.647  0.6473  0.2001 -2.3290
12965TIP3   OH260385   6.208   1.662  12.074 -0.1563  0.0625  0.7233
12965TIP3    H160386   6.236   1.632  11.988 -0.6566  0.8560  0.2644
12965TIP3    H260387   6.176   1.583  12.119 -1.4015 -0.1212 -0.4235
12966TIP3   OH260388   4.705   4.944   2.215 -0.8792  0.0668 -0.3649
12966TIP3    H160389   4.617   4.977   2.193 -1.4267 -1.0802  0.0126
12966TIP3    H260390   4.693   4.896   2.297  0.5108  1.5537  0.7799
12967TIP3   OH260391   3.614   1.102  10.516 -0.1733 -0.0866 -0.1377
12967TIP3    H160392   3.559   1.180  10.511  1.7569  1.6208  2.4250
12967TIP3    H260393   3.700   1.135  10.542  1.1452 -2.9550 -0.4434
12968TIP3   OH260394   1.002   3.323  15.445  0.1089 -0.4047 -0.4074
12968TIP3    H160395   0.920   3.365  15.419 -0.2780 -1.2041 -0.5029
12968TIP3    H260396   1.005   3.243  15.393  1.0233 -0.3074 -0.5064
12969TIP3   OH260397   5.996   1.260  12.031 -0.3444  0.4208 -0.0677
12969TIP3    H160398   6.019   1.331  12.089  2.7154  0.2249 -0.8875
12969TIP3    H260399   6.045   1.185  12.063 -1.1925 -0.5599 -0.9549
12970TIP3   OH260400   2.193   0.794   6.214  0.7058  0.3246  0.1964
12970TIP3    H160401   2.180   0.811   6.308  2.0620  0.8112  0.3305
12970TIP3    H260402   2.121   0.839   6.171  1.5659  2.4994  0.8748
12971TIP3   OH260403   6.704   3.562   3.184 -0.0637  0.1825 -0.1109
12971TIP3    H160404   6.637   3.557   3.115 -0.9719 -0.7977  0.8108
12971TIP3    H260405   6.676   3.498   3.249  1.9294 -0.4251  0.1890
12972TIP3   OH260406   6.833   2.669   5.142  0.2479  0.5509 -0.9184
12972TIP3    H160407   6.919   2.712   5.140 -0.5546  2.2310 -0.5860
12972TIP3    H260408   6.770   2.741   5.138 -1.1682 -0.5230  0.7389
12973TIP3   OH260409   5.606   1.024  11.266  0.4874 -0.1494 -0.2636
12973TIP3    H160410   5.555   1.093  11.226  1.5513  1.4729  1.0227
12973TIP3    H260411   5.605   0.952  11.202  1.3857  1.9377 -2.7990
12974TIP3   OH260412   1.541   0.184  15.018  0.0885  0.8785 -0.8225
12974TIP3    H160413   1.553   0.233  15.100 -0.3976  0.3256 -0.4053
12974TIP3    H260414   1.457   0.139  15.030 -0.8142  2.1041 -2.3194
12975TIP3   OH260415   5.267   1.746   5.492  0.0686  0.7212 -0.0624
12975TIP3    H160416   5.289   1.786   5.408  0.2002 -2.5565 -1.7174
12975TIP3    H260417   5.312   1.800   5.557  3.5640  0.9410 -2.4246
12976TIP3   OH260418   6.607   4.052   3.985  0.0119  0.5017 -0.0290
12976TIP3    H160419   6.646   4.135   3.958  0.5974  0.5906  1.0472
12976TIP3    H260420   6.572   4.069   4.072  0.4630 -0.4704  0.3557
12977TIP3   OH260421   3.163   0.209   4.789  0.2172 -0.5843  0.1021
12977TIP3    H160422   3.256   0.189   4.779  0.3232 -0.6872  1.2045
12977TIP3    H260423   3.121   0.123   4.790 -0.0834 -0.5059 -1.9339
12978TIP3   OH260424   4.605   4.063   1.323  0.2295 -0.4310 -0.2492
12978TIP3    H160425   4.627   4.134   1.263 -0.7986 -0.0672 -0.2222
12978TIP3    H260426   4.689   4.033   1.356  0.8112 -0.5662 -1.7752
12979TIP3   OH260427   6.090   3.022  16.402  0.4132 -0.5007 -0.0758
12979TIP3    H160428   6.180   3.041  16.431  0.0354 -0.2073  0.9302
12979TIP3    H260429   6.078   3.078  16.326  1.8393 -2.1711 -1.6264
12980TIP3   OH260430   4.604   2.988   3.691 -0.3520  0.0076 -0.2330
12980TIP3    H160431   4.669   3.057   3.679  0.2647 -0.4172  0.5793
12980TIP3    H260432   4.656   2.910   3.709 -1.0229 -0.7877 -1.5999
12981TIP3   OH260433   4.836   6.128  16.223 -0.2424  0.5674 -0.3519
12981TIP3    H160434   4.929   6.148  16.231 -0.5291  1.1694  2.5455
12981TIP3    H260435   4.828   6.038  16.255 -0.7783  0.8352  0.2596
12982TIP3   OH260436   4.706   4.783  13.755 -0.2567  0.3357 -0.6615
12982TIP3    H160437   4.714   4.698  13.712 -0.7036  0.8164 -1.7244
12982TIP3    H260438   4.619   4.815  13.730 -1.0466  0.1272  1.5754
12983TIP3   OH260439   3.013   3.860   3.523  0.4224  0.0043 -0.0233
12983TIP3    H160440   3.104   3.860   3.494  0.1588 -0.9074 -0.8894
12983TIP3    H260441   2.990   3.768   3.531 -0.5153  0.2230 -0.0845
12984TIP3   OH260442   5.341   4.966   5.604 -0.4802 -0.4960  0.1290
12984TIP3    H160443   5.252   4.998   5.590 -0.6115 -0.4134  1.0820
12984TIP3    H260444   5.386   4.984   5.521 -1.5356 -1.2273 -0.6244
12985TIP3   OH260445   1.566   0.146  15.519 -0.1262  0.2391  0.3532
12985TIP3    H160446   1.649   0.193  15.515  0.6813 -1.1372  0.1947
12985TIP3    H260447   1.570   0.098  15.602 -0.6419 -0.0406  0.2169
12986TIP3   OH260448   2.874   5.795  14.369 -0.7020 -0.1165 -0.1454
12986TIP3    H160449   2.866   5.740  14.291  1.3095  2.2937 -2.1978
12986TIP3    H260450   2.951   5.849  14.353 -1.9716  2.6530  2.1407
12987TIP3   OH260451   5.517   1.910  16.157 -0.1307 -0.4985 -0.0299
12987TIP3    H160452   5.507   1.866  16.242 -1.4267 -2.2528 -1.0285
12987TIP3    H260453   5.436   1.959  16.145  0.4049  0.4516  0.0855
12988TIP3   OH260454   4.778   0.273  11.378 -0.5361 -0.0090 -0.2344
12988TIP3    H160455   4.827   0.317  11.308  0.1728 -0.1719  0.1550
12988TIP3    H260456   4.778   0.181  11.353 -0.0883 -0.0998  0.0899
12989TIP3   OH260457   3.739   0.277  13.084  0.2461 -0.1456  0.3747
12989TIP3    H160458   3.775   0.222  13.154  0.5816 -0.1364  0.2135
12989TIP3    H260459   3.786   0.360  13.092  0.7776 -0.3703 -0.2784
12990TIP3   OH260460   1.167   4.728   2.225 -0.0303  0.2531  0.5368
12990TIP3    H160461   1.106   4.657   2.242  0.1176 -0.0394 -0.1364
12990TIP3    H260462   1.192   4.717   2.134  1.4335  0.0647  0.9432
12991TIP3   OH260463   2.393   2.533  10.659 -0.1436 -0.5442 -0.2547
12991TIP3    H160464   2.400   2.437  10.658 -1.2686 -0.6371 -0.1740
12991TIP3    H260465   2.476   2.562  10.697 -0.3527 -1.5561  1.0649
12992TIP3   OH260466   2.602   2.319  16.390 -0.3878  0.1894  0.3575
12992TIP3    H160467   2.618   2.230  16.357  1.4211  0.5979  0.0191
12992TIP3    H260468   2.547   2.359  16.322 -0.5592 -0.4247  0.1208
12993TIP3   OH260469   0.856   5.402   1.845  0.2574 -0.2920  0.2397
12993TIP3    H160470   0.777   5.374   1.891 -0.1206 -0.4809 -0.5090
12993TIP3    H260471   0.928   5.383   1.906 -0.1403 -1.4512  0.3523
12994TIP3   OH260472   4.500   0.935   4.113 -0.5184 -0.0377 -0.1122
12994TIP3    H160473   4.516   1.023   4.079  2.5669 -0.4433  0.0634
12994TIP3    H260474   4.510   0.944   4.208 -0.3963 -0.5373 -0.0759
12995TIP3   OH260475   4.009   6.113  13.304  0.0520  0.0547 -0.6274
12995TIP3    H160476   4.081   6.129  13.243  1.9103 -1.5655  0.9949
12995TIP3    H260477   3.990   6.019  13.295 -2.0255  0.4734 -1.1301
12996TIP3   OH260478   0.322   1.531   1.742  0.0303 -0.2695  0.4724
12996TIP3    H160479   0.402   1.555   1.790 -1.1644  0.7740  2.0231
12996TIP3    H260480   0.354   1.506   1.655  2.0637 -0.0357  1.0819
12997TIP3   OH260481   5.516   2.027  13.393 -0.3863  0.3107  0.2480
12997TIP3    H160482   5.533   2.002  13.484 -0.4003  2.7649  0.9750
12997TIP3    H260483   5.601   2.020  13.349 -0.4920 -1.4736  0.2271
12998TIP3   OH260484   4.172   4.606   4.068 -0.3265  0.1260  0.2011
12998TIP3    H160485   4.203   4.542   4.131  0.3115  0.3728  0.1407
12998TIP3    H260486   4.222   4.685   4.087 -2.0273  1.0269  1.1467
12999TIP3   OH260487   2.367   6.460  16.663  0.0621 -0.2365  0.2732
12999TIP3    H160488   2.438   6.503  16.617  0.3194  0.1365  0.9919
12999TIP3    H260489   2.335   6.527  16.724 -1.4914 -0.0916 -0.6479
13000TIP3   OH260490   6.105   2.512   5.242  0.0226 -0.3115  0.5893
13000TIP3    H160491   6.187   2.499   5.289  0.9725  0.4783 -0.7813
13000TIP3    H260492   6.110   2.601   5.208 -0.1632 -1.1210 -1.7565
13001TIP3   OH260493   5.465   5.893   1.760 -0.0643 -0.3957 -0.2887
13001TIP3    H160494   5.378   5.903   1.800  1.8710  2.3812  3.9269
13001TIP3    H260495   5.469   5.964   1.695 -0.1303  1.2265  1.3993
13002TIP3   OH260496   4.300   0.859   5.745  0.0558 -0.1263 -0.3721
13002TIP3    H160497   4.219   0.886   5.789 -0.6314 -0.9371 -1.1164
13002TIP3    H260498   4.369   0.903   5.794 -0.7781 -0.0309  0.7523
13003TIP3   OH260499   6.430   3.140  16.650  0.9178 -0.6513 -0.0160
13003TIP3    H160500   6.342   3.146  16.687  0.2981  0.4555 -1.5651
13003TIP3    H260501   6.418   3.155  16.556  2.4370 -3.2061 -0.7169
13004TIP3   OH260502   0.669   1.062   3.520 -0.3253  0.1242 -0.5435
13004TIP3    H160503   0.746   1.087   3.469 -1.2721  0.3721 -1.8960
13004TIP3    H260504   0.700   0.991   3.576  0.3638 -1.4369 -2.7492
13005TIP3   OH260505   1.637   3.603  14.471 -0.7180  0.5449 -0.0729
13005TIP3    H160506   1.633   3.527  14.413  1.0332  1.4711 -1.5011
13005TIP3    H260507   1.657   3.566  14.557 -1.2168 -0.7055 -0.4737
13006TIP3   OH260508   2.897   6.170  12.796 -0.1766  0.0616  0.0698
13006TIP3    H160509   2.963   6.218  12.745  0.7106 -0.4205  0.7289
13006TIP3    H260510   2.905   6.080  12.767  0.8048 -0.3467  1.4717
13007TIP3   OH260511   6.568   3.672   4.247  0.4550 -0.0499 -0.0907
13007TIP3    H160512   6.483   3.637   4.275  0.1025  0.7106 -0.1691
13007TIP3    H260513   6.550   3.764   4.228  1.5829  0.4490  1.1680
13008TIP3   OH260514   5.104   3.109   2.578  0.2664 -0.0974  0.7501
13008TIP3    H160515   5.131   3.026   2.538  0.0994  0.4339 -0.5177
13008TIP3    H260516   5.185   3.146   2.613  0.8034  0.3045 -0.8130
13009TIP3   OH260517   5.768   3.487   3.571  0.2550 -0.4311  0.2655
13009TIP3    H160518   5.692   3.526   3.613  0.3884 -0.1783  0.2739
13009TIP3    H260519   5.808   3.432   3.638  0.3757 -0.1556  0.4203
13010TIP3   OH260520   6.021   1.752  13.350  0.3084  0.2262  0.4841
13010TIP3    H160521   6.030   1.663  13.385 -1.3972 -0.0147  0.4030
13010TIP3    H260522   6.012   1.740  13.256  0.6488  0.5287  0.4144
13011TIP3   OH260523   4.768   0.061   5.759 -0.6736  0.3902 -0.5289
13011TIP3    H160524   4.733   0.144   5.791 -2.6721 -0.8667  0.7684
13011TIP3    H260525   4.711   0.039   5.685 -1.0191 -0.4332 -0.0325
13012TIP3   OH260526   3.772   4.018  14.355 -0.0005  0.2292  0.3794
13012TIP3    H160527   3.678   4.028  14.363 -0.1125 -0.2332 -0.3469
13012TIP3    H260528   3.807   4.107  14.368 -0.4348  0.2047  1.8840
13013TIP3   OH260529   0.262   5.756  14.831 -0.1235 -0.0216 -0.2339
13013TIP3    H160530   0.295   5.833  14.878 -0.6544  0.4152 -0.5682
13013TIP3    H260531   0.332   5.734  14.770 -0.2882  0.6778 -0.6871
13014TIP3   OH260532   0.578   4.372   3.185 -0.1612  0.1721 -0.0857
13014TIP3    H160533   0.542   4.284   3.187 -2.0767  0.8694 -0.7675
13014TIP3    H260534   0.514   4.422   3.134  0.0986  2.2853  1.5345
13015TIP3   OH260535   4.834   3.693   0.010  0.0833  0.2489  0.1988
13015TIP3    H160536   4.750   3.739   0.013 -1.1391 -1.8590  0.6890
13015TIP3    H260537   4.861   3.686   0.102 -0.4510 -1.1211  0.2821
13016TIP3   OH260538   3.670   5.735   1.884  0.0058  0.5047  0.5468
13016TIP3    H160539   3.647   5.731   1.977  1.4590  0.1891  0.9178
13016TIP3    H260540   3.590   5.766   1.841 -2.1414 -3.3076  1.3236
13017TIP3   OH260541   0.692   1.103  13.078  0.8392  0.3755 -0.1907
13017TIP3    H160542   0.753   1.072  13.011  0.2713  0.8838 -0.9677
13017TIP3    H260543   0.664   1.189  13.046  0.3048  0.4772  0.5407
13018TIP3   OH260544   4.968   3.592   2.502  0.1381 -1.0581  0.3113
13018TIP3    H160545   5.021   3.524   2.544  0.1228 -0.7293  0.8733
13018TIP3    H260546   4.994   3.590   2.410 -0.7968 -2.7164  0.0368
13019TIP3   OH260547   6.125   2.508   1.376 -0.3346  0.1397  0.8257
13019TIP3    H160548   6.065   2.434   1.383  1.2709 -1.1825  1.4675
13019TIP3    H260549   6.075   2.582   1.410 -2.8835 -0.0027 -2.1791
13020TIP3   OH260550   2.631   1.607   4.537 -0.1905  0.0692 -0.3140
13020TIP3    H160551   2.684   1.567   4.605 -1.1713 -0.3953  0.2043
13020TIP3    H260552   2.608   1.694   4.571  0.4713  0.3900 -0.6691
13021TIP3   OH260553   1.707   4.472  13.439  0.1285 -0.0311 -0.0480
13021TIP3    H160554   1.651   4.446  13.366 -1.8986 -0.9287  1.6892
13021TIP3    H260555   1.792   4.431  13.421 -0.3815 -0.4036 -1.7566
13022TIP3   OH260556   3.550   4.924   4.238 -0.1928  0.3474 -0.1987
13022TIP3    H160557   3.506   5.003   4.270  0.8086  1.4482 -1.4376
13022TIP3    H260558   3.548   4.864   4.312 -1.7792  1.1741  0.4930
13023TIP3   OH260559   0.878   4.011   6.123  0.1343 -0.1997  0.1771
13023TIP3    H160560   0.928   4.079   6.169 -1.8927  0.7384  1.1455
13023TIP3    H260561   0.833   3.963   6.193 -0.2782 -1.0479 -0.6488
13024TIP3   OH260562   4.850   1.273   4.841 -0.0905 -0.7265 -0.4523
13024TIP3    H160563   4.840   1.351   4.786 -0.0758 -1.2104 -1.1675
13024TIP3    H260564   4.930   1.289   4.891  0.6548 -0.8294 -1.5629
13025TIP3   OH260565   1.583   3.484   0.255  0.5399 -0.6376  0.3783
13025TIP3    H160566   1.582   3.436   0.172 -0.3705  0.7650 -0.4722
13025TIP3    H260567   1.648   3.553   0.241  0.0517 -0.1150  0.6656
13026TIP3   OH260568   4.648   0.548  16.864 -0.4454 -0.5214 -0.2423
13026TIP3    H160569   4.593   0.549  16.786  0.0197  0.9030 -0.5864
13026TIP3    H260570   4.717   0.612  16.845 -1.5661  1.5718  2.1820
13027TIP3   OH260571   2.611   0.780   0.561  0.5918 -1.0733  0.4322
13027TIP3    H160572   2.618   0.737   0.475 -0.5209  0.3202 -0.4204
13027TIP3    H260573   2.641   0.714   0.623  0.2127 -2.6090 -0.9133
13028TIP3   OH260574   1.203   5.067   1.009 -0.3527  0.2248 -0.0373
13028TIP3    H160575   1.195   5.162   0.999 -0.5403  0.1884 -0.2246
13028TIP3    H260576   1.176   5.050   1.099  1.1685  0.5313  0.5152
13029TIP3   OH260577   2.917   1.211   3.279  0.1028  0.1396  0.1671
13029TIP3    H160578   2.964   1.159   3.344  1.1527 -0.3894 -0.9740
13029TIP3    H260579   2.956   1.298   3.284 -0.7895  0.5085  1.1944
13030TIP3   OH260580   6.807   0.700  11.021 -0.1843  0.0648 -0.7190
13030TIP3    H160581   6.824   0.756  11.097 -2.1763  1.4512 -1.2088
13030TIP3    H260582   6.809   0.760  10.946 -0.7475 -0.8139 -1.4534
13031TIP3   OH260583   3.484   0.102  13.494  0.2588  0.0463  0.0444
13031TIP3    H160584   3.514   0.029  13.439 -2.3972 -0.5506 -0.7840
13031TIP3    H260585   3.390   0.087  13.503  0.0978  1.9033  2.1697
13032TIP3   OH260586   2.509   1.995  11.287  0.0331  0.0103 -0.4165
13032TIP3    H160587   2.552   2.081  11.289  0.8067 -0.3853  0.0802
13032TIP3    H260588   2.557   1.942  11.350 -0.7597 -0.6476 -0.3480
13033TIP3   OH260589   0.199   5.573   2.657 -1.1159  0.6204 -0.0556
13033TIP3    H160590   0.183   5.658   2.699 -1.4661  1.0134 -0.9438
13033TIP3    H260591   0.121   5.558   2.602 -0.7657  0.0412 -0.4089
13034TIP3   OH260592   5.644   0.223  14.284  0.1689  0.2703 -0.0390
13034TIP3    H160593   5.644   0.145  14.340  0.6060  0.1030 -0.2663
13034TIP3    H260594   5.719   0.211  14.226 -1.0291 -0.1661 -1.5290
13035TIP3   OH260595   6.704   2.297   5.024  0.6012  0.2817 -0.1022
13035TIP3    H160596   6.703   2.202   5.035  0.4311  0.4685  1.9684
13035TIP3    H260597   6.764   2.313   4.951  1.1192 -1.3728 -0.0617
13036TIP3   OH260598   4.170   1.468  16.924 -0.2359  0.1989 -0.5892
13036TIP3    H160599   4.172   1.391  16.980  1.0940  1.4712  1.2355
13036TIP3    H260600   4.167   1.433  16.835 -1.3177 -1.8986  0.2075
13037TIP3   OH260601   3.239   3.112  16.561  0.1601 -0.3202  0.2472
13037TIP3    H160602   3.157   3.160  16.551  0.8799  0.5913 -1.9860
13037TIP3    H260603   3.247   3.060  16.481  0.8116 -2.0065  1.3288
13038TIP3   OH260604   1.725   3.159  11.730  0.2635 -0.3853 -0.2054
13038TIP3    H160605   1.738   3.065  11.717  0.3427 -0.3170 -0.6240
13038TIP3    H260606   1.753   3.199  11.648  0.5447  0.0327  0.0864
13039TIP3   OH260607   4.211   3.687  11.118  0.3518  0.1328 -0.0762
13039TIP3    H160608   4.152   3.711  11.045  0.6215 -0.8174 -0.6180
13039TIP3    H260609   4.236   3.771  11.156 -2.8197  0.5456  1.3761
13040TIP3   OH260610   5.116   1.547   5.118  0.1519 -0.1403  0.1489
13040TIP3    H160611   5.028   1.520   5.094  0.2415 -1.8599  1.5677
13040TIP3    H260612   5.140   1.612   5.052 -3.2733  2.6752  1.3639
13041TIP3   OH260613   1.735   2.869  11.905 -0.0128  0.4633  0.0987
13041TIP3    H160614   1.678   2.808  11.952 -0.5200  1.0756  0.2925
13041TIP3    H260615   1.699   2.872  11.816  1.2399 -1.0713 -0.5023
13042TIP3   OH260616   2.431   3.203   1.890  0.0934  0.0969  0.3481
13042TIP3    H160617   2.418   3.211   1.796 -0.4071  0.8316  0.4661
13042TIP3    H260618   2.363   3.142   1.919 -0.2974  0.5203  0.3420
13043TIP3   OH260619   3.438   2.080  17.182 -0.0525  0.0196  0.1056
13043TIP3    H160620   3.485   1.999  17.201  0.2870 -0.3025 -1.9300
13043TIP3    H260621   3.400   2.067  17.096  0.6928  2.3095 -0.6512
13044TIP3   OH260622   4.425   6.202   2.583 -0.2364 -0.0289 -0.0974
13044TIP3    H160623   4.421   6.286   2.629  0.8186 -0.0757  0.1236
13044TIP3    H260624   4.428   6.137   2.653  0.1355 -0.1753 -0.2468
13045TIP3   OH260625   4.463   5.379  15.063  0.3930 -0.1297  0.0405
13045TIP3    H160626   4.457   5.407  14.971  0.8721  1.5953  0.4917
13045TIP3    H260627   4.440   5.286  15.061 -1.5925  0.3264 -1.5472
13046TIP3   OH260628   4.268   6.772  11.156 -0.0535 -0.2253 -0.1925
13046TIP3    H160629   4.265   6.864  11.184 -0.0935  0.3137 -1.8846
13046TIP3    H260630   4.312   6.774  11.071  1.8878 -2.0289  0.6770
13047TIP3   OH260631   0.202   4.626   2.082  0.0146 -0.2820  0.1874
13047TIP3    H160632   0.124   4.670   2.050 -0.6235 -0.3096  1.6318
13047TIP3    H260633   0.203   4.643   2.176  1.8736 -0.0948  0.1735
13048TIP3   OH260634   1.788   0.115   5.167  0.1376  0.7904 -0.3734
13048TIP3    H160635   1.710   0.069   5.136 -0.1433  0.7634  0.3645
13048TIP3    H260636   1.799   0.187   5.105  0.2925  0.0315 -1.2446
13049TIP3   OH260637   2.059   2.576   1.171 -0.1843  0.1880  0.0580
13049TIP3    H160638   2.149   2.545   1.156  0.5814  1.6334  1.3814
13049TIP3    H260639   2.066   2.671   1.164 -1.5932  0.3245  0.3548
13050TIP3   OH260640   2.688   6.555  15.236  0.3383 -0.2333 -0.1618
13050TIP3    H160641   2.732   6.600  15.308 -0.2866 -0.3410  0.3034
13050TIP3    H260642   2.607   6.523  15.275  0.5120 -1.2713 -0.6265
13051TIP3   OH260643   2.779   4.794  11.310  0.0364  0.0003  0.2839
13051TIP3    H160644   2.713   4.793  11.380 -0.2624 -0.2586  0.0049
13051TIP3    H260645   2.805   4.703  11.299 -0.8054 -0.1408 -0.7523
13052TIP3   OH260646   1.374   6.393   1.000  0.6307 -0.3786 -0.5533
13052TIP3    H160647   1.466   6.401   1.024  0.1092  0.6846  1.2994
13052TIP3    H260648   1.329   6.372   1.082 -1.0990  1.9723 -0.7843
13053TIP3   OH260649   2.699   6.405   5.573  0.5987  0.4164  0.1959
13053TIP3    H160650   2.779   6.352   5.578  0.5072 -0.0455 -1.9813
13053TIP3    H260651   2.674   6.400   5.481 -1.5881  1.1009  0.7044
13054TIP3   OH260652   1.838   4.226   1.375  0.2332  0.1958  0.4615
13054TIP3    H160653   1.745   4.221   1.401  0.2993 -2.2953  0.5083
13054TIP3    H260654   1.838   4.283   1.298 -1.2635  0.6766  0.7763
13055TIP3   OH260655   1.195   0.181  11.910  0.0328  0.5560  0.3888
13055TIP3    H160656   1.155   0.268  11.919  0.2825  0.9366 -1.6781
13055TIP3    H260657   1.182   0.159  11.818 -2.8735 -3.0238  1.4433
13056TIP3   OH260658   5.785   2.856  14.270 -0.3363 -0.0163 -0.4702
13056TIP3    H160659   5.829   2.794  14.329 -2.0296 -2.0632 -1.1805
13056TIP3    H260660   5.706   2.882  14.319 -0.0654  0.9511 -0.5298
13057TIP3   OH260661   4.142   6.091  17.012 -0.9614  0.0230  0.2187
13057TIP3    H160662   4.121   6.174  16.968  0.2294  0.1918 -0.0849
13057TIP3    H260663   4.175   6.035  16.942  2.4169  0.8009  1.0064
13058TIP3   OH260664   3.064   2.917  15.579  0.7741  0.2074  0.3498
13058TIP3    H160665   3.013   2.853  15.630 -2.0362  2.2572  0.3307
13058TIP3    H260666   3.058   2.886  15.489 -1.4875  0.9515  0.1878
13059TIP3   OH260667   4.759   6.667   1.943 -0.1159 -0.2925  0.0559
13059TIP3    H160668   4.844   6.640   1.908  0.1040  0.4135  0.0396
13059TIP3    H260669   4.697   6.607   1.901 -0.0335  1.3514 -2.6671
13060TIP3   OH260670   3.999   3.083  16.725  0.0683 -0.3466 -0.9528
13060TIP3    H160671   4.048   3.165  16.730  0.8801 -0.7954 -1.3608
13060TIP3    H260672   4.055   3.018  16.768 -0.9264 -0.5422  0.0986
13061TIP3   OH260673   0.401   0.025  15.537  0.1215  0.0500  0.4578
13061TIP3    H160674   0.444   0.015  15.622 -0.8359 -1.9188  0.7766
13061TIP3    H260675   0.308   0.030  15.558 -0.1222 -0.4309 -0.4689
13062TIP3   OH260676   4.123   5.925   3.786 -0.0133  0.5082 -0.0904
13062TIP3    H160677   4.073   5.863   3.733  0.7339 -2.8083  2.7318
13062TIP3    H260678   4.069   5.937   3.865  1.9120 -0.3425  1.4420
13063TIP3   OH260679   2.633   1.314  14.064 -0.3432 -0.0761  0.0800
13063TIP3    H160680   2.684   1.393  14.080  0.0211 -0.5565  1.3972
13063TIP3    H260681   2.560   1.319  14.126  0.7643 -1.6923  1.6102
13064TIP3   OH260682   4.504   3.591  11.124 -0.2433  0.0133  0.6013
13064TIP3    H160683   4.410   3.598  11.108 -0.0826  0.6307 -0.1594
13064TIP3    H260684   4.519   3.643  11.203 -0.2318  1.8484 -0.5470
13065TIP3   OH260685   0.358   0.433  16.352  0.0061 -0.3797 -0.1227
13065TIP3    H160686   0.377   0.513  16.401  0.2735  0.7165 -1.9186
13065TIP3    H260687   0.287   0.458  16.293  0.9259 -1.0781 -1.5831
13066TIP3   OH260688   4.380   4.400   3.226  0.6377  0.9856 -0.1271
13066TIP3    H160689   4.310   4.362   3.173  0.5383 -0.5089  1.0194
13066TIP3    H260690   4.459   4.351   3.201  0.7468  0.8354  0.4954
13067TIP3   OH260691   4.866   6.729   1.405 -0.0559 -0.5691  0.5396
13067TIP3    H160692   4.821   6.808   1.433  0.8951  0.1384  0.1250
13067TIP3    H260693   4.821   6.658   1.451 -2.5991 -0.1014 -1.0312
13068TIP3   OH260694   2.743   4.705  14.769  0.0103 -0.7474 -0.1975
13068TIP3    H160695   2.697   4.788  14.762 -1.9715 -1.8958 -2.1844
13068TIP3    H260696   2.833   4.725  14.745 -1.3545  0.1879 -6.0230
13069TIP3   OH260697   3.164   2.127  15.982 -0.6690 -0.0247  0.3833
13069TIP3    H160698   3.083   2.091  15.945 -0.4103 -0.0848 -0.1281
13069TIP3    H260699   3.232   2.102  15.920 -0.1119 -0.7407  1.2662
13070TIP3   OH260700   6.434   3.112   5.723  0.5187  0.5529  0.6269
13070TIP3    H160701   6.506   3.119   5.660  0.9089  0.9664  1.1072
13070TIP3    H260702   6.449   3.185   5.784 -0.2271  0.5552  0.8131
13071TIP3   OH260703   5.191   2.158  12.999 -0.0678 -0.5660 -0.9246
13071TIP3    H160704   5.216   2.144  13.091 -0.6937 -1.1869 -0.8376
13071TIP3    H260705   5.226   2.244  12.978 -2.2182  0.8355  0.7429
13072TIP3   OH260706   3.501   1.904   1.932 -0.0082 -0.0028  0.0036
13072TIP3    H160707   3.528   1.995   1.922 -1.7171  0.6388  0.8656
13072TIP3    H260708   3.505   1.888   2.026 -3.2708  0.4103  0.3160
13073TIP3   OH260709   5.765   3.118  16.171  0.3894  0.1763  0.3563
13073TIP3    H160710   5.763   3.214  16.162 -1.5610  0.1643  0.2998
13073TIP3    H260711   5.858   3.098  16.184  0.8780  2.0468  0.1290
13074TIP3   OH260712   4.716   3.528  15.562  0.0534  0.0534  0.1171
13074TIP3    H160713   4.630   3.509  15.600  0.3146 -0.6245  0.3859
13074TIP3    H260714   4.776   3.523  15.636  0.3928  0.0208 -0.1591
13075TIP3   OH260715   1.462   6.330   4.033 -0.2946 -0.0563 -0.1657
13075TIP3    H160716   1.534   6.384   3.999  0.3315 -0.8164 -0.0640
13075TIP3    H260717   1.486   6.311   4.123  0.2434 -1.7449 -0.6287
13076TIP3   OH260718   2.175   6.766   3.515  0.2452 -0.0976  0.1613
13076TIP3    H160719   2.142   6.850   3.545  0.4096 -0.5184  1.5722
13076TIP3    H260720   2.192   6.779   3.422  1.1102  1.6824  0.5328
13077TIP3   OH260721   6.487   0.636   3.795  0.4140 -0.0388 -0.0886
13077TIP3    H160722   6.468   0.664   3.706  0.9864  0.8699  0.0645
13077TIP3    H260723   6.406   0.594   3.825  0.7243 -1.8571 -1.5873
13078TIP3   OH260724   5.170   0.969   2.815  0.2670  0.3141 -0.0712
13078TIP3    H160725   5.234   0.960   2.886  0.1238 -0.5522 -0.0486
13078TIP3    H260726   5.218   1.013   2.745  0.0160  2.6092  1.0666
13079TIP3   OH260727   4.146   4.616  12.467  0.1659  0.4653 -0.3458
13079TIP3    H160728   4.107   4.703  12.455 -0.8573  0.1101  0.2969
13079TIP3    H260729   4.240   4.631  12.456  0.1866  1.9866  1.3725
13080TIP3   OH260730   6.590   4.876  10.389  0.2192 -0.1971 -0.2572
13080TIP3    H160731   6.597   4.797  10.336 -2.1836 -0.0280 -0.9366
13080TIP3    H260732   6.518   4.858  10.450  1.0394  0.6930  1.0457
13081TIP3   OH260733   5.414   1.028  16.258 -0.3583  0.1569  1.0056
13081TIP3    H160734   5.483   1.094  16.250  0.9871 -1.3645 -0.7464
13081TIP3    H260735   5.434   0.982  16.339 -0.9489  1.4346  1.9179
13082TIP3   OH260736   2.325   3.792  15.706 -0.4756  0.0041 -0.8736
13082TIP3    H160737   2.393   3.734  15.741 -1.2767 -1.5360 -1.7287
13082TIP3    H260738   2.373   3.863  15.663  0.5450  0.0238  0.2421
13083TIP3   OH260739   4.312   0.396   3.889  0.1284 -1.1710 -0.4353
13083TIP3    H160740   4.257   0.474   3.881  2.0013  0.0706 -2.1261
13083TIP3    H260741   4.250   0.324   3.902 -1.6778  0.5055  0.8550
13084TIP3   OH260742   1.430   2.868   3.351  0.0518 -0.0606  0.3948
13084TIP3    H160743   1.361   2.834   3.408 -1.0613  0.5525 -0.5364
13084TIP3    H260744   1.482   2.925   3.408 -0.9219  0.3948  0.8564
13085TIP3   OH260745   4.817   1.541   0.649 -0.5429 -0.3815  0.1147
13085TIP3    H160746   4.872   1.577   0.720 -1.7249 -0.3455  1.0417
13085TIP3    H260747   4.822   1.446   0.662 -0.4995 -0.3888  0.0440
13086TIP3   OH260748   2.065   3.854   0.769 -0.0359  0.0395  0.3006
13086TIP3    H160749   2.075   3.922   0.703  0.6588 -1.7451 -1.5638
13086TIP3    H260750   2.132   3.874   0.834 -0.8276  1.9287  0.6000
13087TIP3   OH260751   2.301   2.269   1.332 -0.0856 -0.4618 -0.0290
13087TIP3    H160752   2.338   2.353   1.303  1.9207 -1.4663 -0.5443
13087TIP3    H260753   2.351   2.246   1.410 -0.9249 -0.9643  0.3675
13088TIP3   OH260754   1.239   6.147   5.225 -0.7231  0.2029 -0.2226
13088TIP3    H160755   1.284   6.063   5.238 -2.2183 -0.8295 -1.3617
13088TIP3    H260756   1.187   6.159   5.305  0.2748  0.5934  0.3910
13089TIP3   OH260757   0.133   3.576   3.177 -0.3291  0.1629  0.2135
13089TIP3    H160758   0.038   3.570   3.181 -0.2799 -2.2090 -0.8322
13089TIP3    H260759   0.160   3.508   3.116  1.9808  1.7250 -0.6633
13090TIP3   OH260760   5.655   2.871   5.086 -0.8291  0.2895  0.2716
13090TIP3    H160761   5.582   2.927   5.108  0.9435  1.9482  2.3381
13090TIP3    H260762   5.711   2.872   5.163  3.5550  2.6671 -2.5144
13091TIP3   OH260763   4.849   2.417  15.268  0.4850  0.5662  0.4718
13091TIP3    H160764   4.914   2.486  15.255  0.7123  0.3062  0.2214
13091TIP3    H260765   4.873   2.350  15.205  0.0322  0.4239  0.4521
13092TIP3   OH260766   1.154   2.297   5.447 -0.0422  0.8932 -0.0743
13092TIP3    H160767   1.076   2.285   5.502 -0.0050  0.6003 -0.0888
13092TIP3    H260768   1.162   2.392   5.438 -0.5329  0.9167 -0.2668
13093TIP3   OH260769   2.498   0.974   0.115  0.6607 -0.2978  0.1990
13093TIP3    H160770   2.499   0.907   0.047 -1.5997  0.8711 -1.1329
13093TIP3    H260771   2.429   0.946   0.176  1.1996 -0.2678  0.8305
13094TIP3   OH260772   1.129   2.847  11.050 -0.0621  0.1871  1.3458
13094TIP3    H160773   1.094   2.758  11.053 -0.3951  0.3445  2.7836
13094TIP3    H260774   1.133   2.874  11.141 -0.2491  1.7659  0.9129
13095TIP3   OH260775   5.072   4.466   2.107  0.0217 -0.1053 -0.1956
13095TIP3    H160776   5.120   4.499   2.183 -0.2746 -1.5448  0.6556
13095TIP3    H260777   5.066   4.372   2.121 -0.2596 -0.3803 -1.8968
13096TIP3   OH260778   1.191   3.109  11.501  0.2842 -0.0339 -0.0593
13096TIP3    H160779   1.270   3.154  11.472  0.9505 -0.8768  0.4235
13096TIP3    H260780   1.221   3.025  11.535 -0.5625  0.4340  2.0045
13097TIP3   OH260781   6.650   5.237   4.067 -0.0662 -0.1112 -0.4899
13097TIP3    H160782   6.621   5.295   4.138 -1.1608 -0.4249 -0.6581
13097TIP3    H260783   6.745   5.247   4.065 -0.0565  0.2067  0.7561
13098TIP3   OH260784   6.378   2.633   2.430  0.0616 -0.1677 -0.1377
13098TIP3    H160785   6.442   2.677   2.485 -0.2462  1.3397 -0.9313
13098TIP3    H260786   6.359   2.695   2.359 -4.0983  0.6150  1.3437
13099TIP3   OH260787   4.799   0.774   3.408  0.1332  0.1923  0.1686
13099TIP3    H160788   4.729   0.831   3.376  1.6542  1.4560 -1.0995
13099TIP3    H260789   4.792   0.695   3.355  0.6512  0.9883 -1.1448
13100TIP3   OH260790   5.114   4.833   6.531 -0.5096  0.2198 -0.2033
13100TIP3    H160791   5.131   4.772   6.602  1.3549 -0.4950 -1.1982
13100TIP3    H260792   5.199   4.873   6.511 -1.0790  0.8166 -1.6470
13101TIP3   OH260793   3.125   0.331   0.056 -0.8024 -0.0142 -0.1934
13101TIP3    H160794   3.066   0.256   0.051  0.3324 -1.0011  0.5936
13101TIP3    H260795   3.092   0.384   0.128 -2.6802  1.2518 -1.8919
13102TIP3   OH260796   2.835   3.333   0.876  0.0928 -0.5188  0.1440
13102TIP3    H160797   2.839   3.245   0.913 -0.7665 -1.4257 -1.8320
13102TIP3    H260798   2.896   3.331   0.802  0.2377  0.6225  0.2183
13103TIP3   OH260799   3.313   1.636   5.253 -0.1603  0.1340  0.1706
13103TIP3    H160800   3.388   1.652   5.197  0.7000 -0.0552  1.2384
13103TIP3    H260801   3.308   1.540   5.260  0.8098  0.1650  1.7754
13104TIP3   OH260802   3.535   2.625   5.016 -0.0753 -0.5566  0.3295
13104TIP3    H160803   3.616   2.581   4.991 -0.1724 -0.8547  0.5386
13104TIP3    H260804   3.465   2.565   4.988 -0.1696 -1.5443  2.5170
13105TIP3   OH260805   5.573   6.660  13.947 -0.1547 -0.4315 -0.1869
13105TIP3    H160806   5.544   6.729  14.008  1.3660  0.4264 -0.3853
13105TIP3    H260807   5.503   6.595  13.950 -0.0137 -0.5886  2.7431
13106TIP3   OH260808   5.845   3.674   0.370 -0.4511  0.3378  0.3406
13106TIP3    H160809   5.831   3.594   0.320  1.2917  1.7101 -2.6235
13106TIP3    H260810   5.762   3.721   0.365 -1.0314 -0.5900  0.8764
13107TIP3   OH260811   4.407   4.076   6.501 -0.5149  0.1056 -0.1725
13107TIP3    H160812   4.384   4.132   6.575 -1.2989  1.5917 -1.4968
13107TIP3    H260813   4.461   4.132   6.445  0.4757 -1.1509 -0.5253
13108TIP3   OH260814   6.500   0.821  12.444 -0.3819 -0.3261  0.4595
13108TIP3    H160815   6.454   0.894  12.404  0.1675  0.2221  0.8006
13108TIP3    H260816   6.566   0.862  12.500  1.0952 -1.0523 -0.6454
13109TIP3   OH260817   1.582   3.644   2.566 -0.1533 -0.4641 -0.5275
13109TIP3    H160818   1.647   3.626   2.498 -1.5640 -1.1112 -1.7534
13109TIP3    H260819   1.516   3.575   2.555 -0.7418 -0.1896  1.0817
13110TIP3   OH260820   0.331   0.616   3.627 -0.4839  0.6872  0.8202
13110TIP3    H160821   0.356   0.708   3.625 -0.6793  0.7255 -0.1459
13110TIP3    H260822   0.244   0.615   3.666  0.3652  0.6855  2.8779
13111TIP3   OH260823   6.066   2.551  15.875 -0.4501 -0.2645  0.0821
13111TIP3    H160824   6.118   2.603  15.814 -0.4111 -1.7022 -1.1690
13111TIP3    H260825   5.978   2.548  15.836 -1.4302  1.6869  1.8990
13112TIP3   OH260826   6.466   0.942  13.701 -0.3705 -0.6909 -0.1081
13112TIP3    H160827   6.466   0.955  13.796 -0.6396 -1.2912 -0.0207
13112TIP3    H260828   6.377   0.913  13.681 -0.3211 -0.5459 -0.5517
13113TIP3   OH260829   6.499   3.135   2.605 -0.0081  0.2188  0.0191
13113TIP3    H160830   6.444   3.214   2.600 -0.7840 -0.2314  1.0272
13113TIP3    H260831   6.562   3.155   2.675 -0.3802 -0.1500  0.4658
13114TIP3   OH260832   6.227   2.422   2.033 -0.2586  0.3623 -0.5248
13114TIP3    H160833   6.220   2.516   2.050  0.1269  0.2308  0.4168
13114TIP3    H260834   6.219   2.382   2.120  2.1384 -0.3280 -0.5491
13115TIP3   OH260835   2.142   1.529  16.575  0.5812  0.3068 -0.4507
13115TIP3    H160836   2.222   1.580  16.563  2.7482 -2.7235  0.0607
13115TIP3    H260837   2.165   1.462  16.639 -2.5439 -0.4467  0.0676
13116TIP3   OH260838   2.302   4.529   1.769  0.2946 -0.5024 -0.2423
13116TIP3    H160839   2.268   4.541   1.680 -0.2292 -0.8761 -0.0955
13116TIP3    H260840   2.232   4.484   1.816  0.0099  0.9298  0.7542
13117TIP3   OH260841   5.075   2.795   3.272 -0.0862  0.0992  0.0267
13117TIP3    H160842   5.119   2.720   3.311 -0.3233  0.4872  1.0806
13117TIP3    H260843   5.147   2.851   3.241  0.2769  1.1756  2.5787
13118TIP3   OH260844   4.110   5.832   4.809  0.3227  0.1304 -0.4460
13118TIP3    H160845   4.097   5.890   4.885 -1.5171 -0.8995  0.1019
13118TIP3    H260846   4.132   5.891   4.738 -0.1426  1.3813  0.4050
13119TIP3   OH260847   1.888   1.003   1.031  0.3849  0.4299  0.4489
13119TIP3    H160848   1.844   1.055   1.098 -1.8223 -2.2536  1.2979
13119TIP3    H260849   1.832   1.010   0.954  0.1135 -0.5346  0.5435
13120TIP3   OH260850   3.256   6.172  16.554 -0.0182  0.3224  0.0691
13120TIP3    H160851   3.336   6.171  16.501 -0.2192  2.6508 -0.3977
13120TIP3    H260852   3.185   6.167  16.489 -0.2623 -0.4036  0.3882
13121TIP3   OH260853   2.888   3.018   3.087  0.8170  0.3194  0.3164
13121TIP3    H160854   2.928   2.940   3.050  2.0980  0.1012  2.0357
13121TIP3    H260855   2.810   3.034   3.033  0.9048 -1.7285 -0.4753
13122TIP3   OH260856   0.997   0.516  15.562  0.1896 -0.2614  0.1881
13122TIP3    H160857   1.010   0.520  15.468 -0.6214 -0.0230  0.0810
13122TIP3    H260858   0.915   0.563  15.578 -1.4598 -3.0075  0.6153
13123TIP3   OH260859   6.664   2.514  16.706  0.5212  0.3469 -0.0318
13123TIP3    H160860   6.690   2.579  16.771  3.2099  1.7230 -2.2444
13123TIP3    H260861   6.745   2.469  16.683 -0.4604 -0.6485 -1.8104
13124TIP3   OH260862   0.700   4.527   6.511 -0.0454 -0.2874 -0.7387
13124TIP3    H160863   0.629   4.481   6.466 -0.6721  0.5159 -0.5988
13124TIP3    H260864   0.689   4.618   6.486  1.1458 -0.1954 -0.9659
13125TIP3   OH260865   2.585   4.264  14.207 -0.0186  0.1912  0.0724
13125TIP3    H160866   2.559   4.356  14.218  1.5440  0.6835 -0.0171
13125TIP3    H260867   2.561   4.243  14.117 -2.9924 -0.4356  0.9111
13126TIP3   OH260868   6.334   4.500  14.746 -0.2406 -0.2257  0.4592
13126TIP3    H160869   6.414   4.490  14.798 -0.8837  1.1048  1.7986
13126TIP3    H260870   6.345   4.583  14.699 -0.6819 -0.2023  0.3902
13127TIP3   OH260871   3.690   3.303   1.389 -0.2164 -0.1562  0.6999
13127TIP3    H160872   3.638   3.381   1.367 -0.0248  0.1903  1.4332
13127TIP3    H260873   3.768   3.339   1.432 -0.2720 -0.7753  1.3227
13128TIP3   OH260874   4.610   1.698  11.898 -0.3828  0.5804 -0.4498
13128TIP3    H160875   4.555   1.654  11.834  1.5236  0.2475 -1.9754
13128TIP3    H260876   4.619   1.787  11.864 -1.0518  1.0306  0.5163
13129TIP3   OH260877   3.283   1.034   3.125  0.2286  0.0284 -0.3194
13129TIP3    H160878   3.203   1.086   3.115  0.6879  0.8570  0.1697
13129TIP3    H260879   3.313   1.019   3.035 -2.0716 -2.9395 -0.7493
13130TIP3   OH260880   4.927   6.679   3.083  0.4003 -0.4495  0.3087
13130TIP3    H160881   4.957   6.673   2.993 -0.4337  2.6710 -0.2623
13130TIP3    H260882   4.931   6.772   3.105 -0.6971 -0.9353  3.0515
13131TIP3   OH260883   6.374   1.571   0.421 -0.0812 -0.5567 -0.1284
13131TIP3    H160884   6.360   1.479   0.396 -1.6639 -0.5009  0.4788
13131TIP3    H260885   6.378   1.618   0.337  2.0913 -1.2950 -0.5249
13132TIP3   OH260886   1.683   2.300   2.980 -0.2978  0.0868 -0.4658
13132TIP3    H160887   1.620   2.366   2.951  0.2780  0.7240 -0.2846
13132TIP3    H260888   1.722   2.267   2.898 -0.1234  0.4356 -0.5252
13133TIP3   OH260889   5.026   4.446   3.843 -0.6283 -0.4157 -0.0486
13133TIP3    H160890   4.946   4.493   3.866 -1.0615 -1.4965  0.6975
13133TIP3    H260891   5.088   4.469   3.914 -0.5780 -0.3442 -0.1148
13134TIP3   OH260892   2.378   4.293   2.061  0.1257 -0.3833  0.3375
13134TIP3    H160893   2.351   4.380   2.032  0.0157 -1.1349 -1.9748
13134TIP3    H260894   2.446   4.310   2.127 -0.0885  1.4389  0.1370
13135TIP3   OH260895   0.542   4.182  15.821 -0.0355  0.4800  0.3303
13135TIP3    H160896   0.622   4.233  15.829  0.3784 -0.1527  0.2544
13135TIP3    H260897   0.488   4.233  15.760  1.1582 -0.1132 -1.2954
13136TIP3   OH260898   1.823   3.997  11.770  0.1195 -0.1719 -0.8016
13136TIP3    H160899   1.735   4.027  11.747  0.1561 -0.3460 -1.1840
13136TIP3    H260900   1.879   4.072  11.747  0.2694 -0.6776 -2.2291
13137TIP3   OH260901   4.095   3.893  16.926 -0.0187 -0.3427 -0.0149
13137TIP3    H160902   4.043   3.918  17.002  0.0507  0.4100 -0.2096
13137TIP3    H260903   4.105   3.974  16.875 -1.6108 -1.1602 -1.7665
13138TIP3   OH260904   5.098   5.329   6.149 -0.4511  0.2263  0.1094
13138TIP3    H160905   5.157   5.354   6.078  0.9681 -3.0850 -0.0879
13138TIP3    H260906   5.155   5.313   6.224 -1.6654  1.2684  1.3255
13139TIP3   OH260907   1.446   1.201  13.242  0.3638 -0.6541  0.2058
13139TIP3    H160908   1.459   1.284  13.288 -0.7871  0.0861 -0.7541
13139TIP3    H260909   1.449   1.224  13.149 -2.9189 -1.1225 -0.1072
13140TIP3   OH260910   1.290   0.901  10.915  0.5326 -0.3010 -0.6551
13140TIP3    H160911   1.313   0.847  10.840 -0.1369 -0.3941 -0.8013
13140TIP3    H260912   1.373   0.919  10.958  0.8180 -1.0001 -0.9061
13141TIP3   OH260913   3.717   3.595   2.840  0.1175 -0.2668  0.2504
13141TIP3    H160914   3.761   3.627   2.762  1.5539  0.1401  1.1924
13141TIP3    H260915   3.681   3.674   2.881  2.0376 -0.0305  1.5866
13142TIP3   OH260916   1.536   5.552   2.851  0.2572  0.0165 -0.5743
13142TIP3    H160917   1.532   5.474   2.906 -1.2069  0.5209  0.0939
13142TIP3    H260918   1.569   5.621   2.909  0.6668  0.1071 -0.9085
13143TIP3   OH260919   0.357   0.901  15.685  0.0075  0.0110 -0.0226
13143TIP3    H160920   0.313   0.941  15.610 -4.1490  1.2948  2.7476
13143TIP3    H260921   0.310   0.819  15.699  1.5853 -0.8447  0.4557
13144TIP3   OH260922   2.646   5.199  16.377  0.0819  0.9855 -0.2900
13144TIP3    H160923   2.706   5.266  16.346  0.7547 -0.0861 -1.3798
13144TIP3    H260924   2.651   5.129  16.312  0.4243 -0.7164  1.4630
13145TIP3   OH260925   2.546   4.942  10.977  0.4459 -0.1367  0.2892
13145TIP3    H160926   2.498   4.868  11.014  1.7163 -2.2090 -1.8788
13145TIP3    H260927   2.478   5.004  10.951 -0.9289 -1.9077 -0.5395
13146TIP3   OH260928   6.352   2.683   5.311  0.4919  0.3974  0.1663
13146TIP3    H160929   6.431   2.676   5.364 -0.4723 -0.3183  1.5559
13146TIP3    H260930   6.381   2.731   5.233  1.9755  1.4275  1.2696
13147TIP3   OH260931   6.758   6.423  14.715 -0.6852 -0.0352  0.2470
13147TIP3    H160932   6.852   6.436  14.729 -0.7858  0.4968  0.4458
13147TIP3    H260933   6.720   6.428  14.803 -0.9838  0.4964  0.0942
13148TIP3   OH260934   5.806   2.653  16.241  0.0760 -0.2212  0.2058
13148TIP3    H160935   5.821   2.718  16.309 -0.3444 -1.3604  1.4224
13148TIP3    H260936   5.788   2.704  16.162 -1.3881  1.1627  1.3823
13149TIP3   OH260937   4.021   0.809   0.541  0.4431 -0.2281  0.2571
13149TIP3    H160938   4.031   0.806   0.446  0.3079  0.6534  0.2016
13149TIP3    H260939   3.957   0.879   0.556  0.2471 -0.5527  0.9821
13150TIP3   OH260940   2.353   1.068   6.330  0.2071 -0.3257 -0.1196
13150TIP3    H160941   2.274   1.023   6.360  0.0273  0.2780  0.3381
13150TIP3    H260942   2.356   1.148   6.384  1.1737 -0.3900 -0.0754
13151TIP3   OH260943   0.395   2.783   0.235  0.2715  0.0556 -0.4091
13151TIP3    H160944   0.419   2.717   0.170 -0.6641 -0.2437 -0.4613
13151TIP3    H260945   0.308   2.813   0.208  1.0471  2.0035 -0.9304
13152TIP3   OH260946   4.316   2.220  15.137 -0.3509  0.1670 -0.3311
13152TIP3    H160947   4.349   2.309  15.127 -1.3975  0.8660  1.8495
13152TIP3    H260948   4.222   2.227  15.124 -0.6364 -0.3194  1.2278
13153TIP3   OH260949   1.265   2.334  16.945 -0.4363  0.1750 -0.1116
13153TIP3    H160950   1.244   2.337  17.039 -1.1188  1.7001 -0.2741
13153TIP3    H260951   1.359   2.320  16.942 -0.3829  0.2280  0.8212
13154TIP3   OH260952   0.892   3.675   0.402  0.0516  0.6304  0.2350
13154TIP3    H160953   0.904   3.708   0.313  1.1841 -0.1970  0.0701
13154TIP3    H260954   0.973   3.629   0.422 -0.2271  0.7186  1.6689
13155TIP3   OH260955   2.783   3.194  15.965 -0.2145  0.3873  0.0299
13155TIP3    H160956   2.689   3.206  15.957 -0.1496  0.2039 -1.4431
13155TIP3    H260957   2.820   3.281  15.948 -0.1049  0.4158  0.4014
13156TIP3   OH260958   4.833   4.815  12.664 -0.3206  0.3987 -0.0787
13156TIP3    H160959   4.800   4.899  12.697  0.3013  0.1470  1.2584
13156TIP3    H260960   4.918   4.804  12.707 -2.2642 -3.0212  3.5245
13157TIP3   OH260961   4.231   2.451  14.931  0.3881  0.1876 -0.8316
13157TIP3    H160962   4.288   2.475  14.858  1.8376  1.1645  0.5299
13157TIP3    H260963   4.250   2.517  14.998 -2.4047  0.5499 -0.2903
13158TIP3   OH260964   4.908   3.569   0.236  0.0352  0.4234 -0.2165
13158TIP3    H160965   4.826   3.521   0.229 -0.1192  0.9062 -2.6236
13158TIP3    H260966   4.975   3.507   0.208  0.1306  0.8592 -0.9759
13159TIP3   OH260967   6.426   1.944  15.135 -0.8367 -0.2655 -0.1270
13159TIP3    H160968   6.379   2.027  15.138  0.7826  0.7318 -0.8554
13159TIP3    H260969   6.487   1.947  15.209  1.6144  0.7874 -2.0265
13160TIP3   OH260970   1.291   5.662   1.605 -0.1300  0.2008 -0.2097
13160TIP3    H160971   1.383   5.690   1.611 -0.0921 -0.1086  0.6874
13160TIP3    H260972   1.251   5.696   1.685 -0.6535 -0.2119 -0.2973
13161TIP3   OH260973   1.555   6.679  13.535  0.1569  0.3361  1.0734
13161TIP3    H160974   1.515   6.652  13.453  1.7372 -1.1015  0.7044
13161TIP3    H260975   1.589   6.767  13.518 -1.0869  0.7792  0.7919
13162TIP3   OH260976   1.797   6.637  13.249 -0.2926  0.4903  0.7404
13162TIP3    H160977   1.742   6.601  13.179  1.2018 -0.5118  0.0244
13162TIP3    H260978   1.750   6.714  13.279 -2.3736 -0.6454  0.5813
13163TIP3   OH260979   6.651   3.014  13.508 -0.1325 -0.3096 -0.0585
13163TIP3    H160980   6.672   2.940  13.451 -0.2321 -1.4535  1.3279
13163TIP3    H260981   6.561   3.038  13.484  0.5486  0.6195 -1.8049
13164TIP3   OH260982   5.248   5.501  13.482 -0.8318  0.3583 -0.6268
13164TIP3    H160983   5.214   5.413  13.498  0.3062 -0.0376 -0.2863
13164TIP3    H260984   5.321   5.511  13.544 -0.4316  1.2371 -1.2067
13165TIP3   OH260985   5.178   5.592   5.569 -0.4537 -0.7007  0.0606
13165TIP3    H160986   5.177   5.517   5.510  1.3490 -1.0965  0.4941
13165TIP3    H260987   5.184   5.668   5.511  0.8099 -1.0621 -0.3114
13166TIP3   OH260988   5.438   2.632   4.713 -0.0951 -0.6419  0.5861
13166TIP3    H160989   5.396   2.547   4.715 -0.0808 -0.6416  1.0046
13166TIP3    H260990   5.530   2.613   4.693  0.0966 -0.8090  1.5501
13167TIP3   OH260991   4.929   2.498  12.771 -0.3423  0.5370  0.8815
13167TIP3    H160992   4.890   2.510  12.684 -0.4862 -1.1258  0.6824
13167TIP3    H260993   5.009   2.450  12.754 -0.6376 -0.2711  1.7051
13168TIP3   OH260994   0.775   5.713   1.819  0.3105  0.2033  0.2460
13168TIP3    H160995   0.832   5.779   1.779 -0.2322  0.3641 -0.2810
13168TIP3    H260996   0.829   5.635   1.826  0.1724 -0.1158 -1.6813
13169TIP3   OH260997   2.102   0.811  16.380  0.2989  0.5120  0.2735
13169TIP3    H160998   2.028   0.870  16.392 -0.4181 -0.0739 -1.1266
13169TIP3    H260999   2.111   0.767  16.465  1.1147  2.8533  1.5015
13170TIP3   OH261000   6.694   1.538   1.130 -0.2328 -0.4240  0.3743
13170TIP3    H161001   6.665   1.537   1.038  0.1381 -0.8158  0.2585
13170TIP3    H261002   6.750   1.616   1.136  0.8975 -1.1721 -0.1056
13171TIP3   OH261003   1.412   3.410   0.816  0.3776  0.5646 -0.4357
13171TIP3    H161004   1.318   3.406   0.832  0.3807  0.3270 -0.4719
13171TIP3    H261005   1.440   3.493   0.855 -0.0784  1.3333 -1.6985
13172TIP3   OH261006   5.538   0.942  15.183 -0.0777 -0.0243 -0.8585
13172TIP3    H161007   5.484   0.884  15.236 -0.2992  0.0355 -1.0186
13172TIP3    H261008   5.626   0.932  15.219 -0.3792  0.7282  0.1401
13173TIP3   OH261009   5.136   1.421   2.700  0.1962 -0.4803  0.6451
13173TIP3    H161010   5.130   1.331   2.670 -0.2547 -0.7048  1.3953
13173TIP3    H261011   5.046   1.446   2.721 -0.1436  1.0248 -1.9979
13174TIP3   OH261012   3.813   6.252  15.434  0.0869  0.7524 -0.1217
13174TIP3    H161013   3.777   6.320  15.378  1.3730  0.7661 -0.9846
13174TIP3    H261014   3.814   6.174  15.378 -0.3426  0.2972  0.4949
13175TIP3   OH261015   0.235   4.123  13.427 -0.1891  0.1604  0.2249
13175TIP3    H161016   0.296   4.069  13.477  0.3228 -1.3716 -1.9019
13175TIP3    H261017   0.273   4.211  13.431  0.9023 -0.3154  0.8465
13176TIP3   OH261018   1.346   6.682   4.125  0.1119 -0.6322  0.1254
13176TIP3    H161019   1.376   6.710   4.039  0.2705 -0.5637  0.2020
13176TIP3    H261020   1.293   6.604   4.108 -1.6199  0.5503 -0.2518
13177TIP3   OH261021   5.318   6.057  13.196  0.0176  0.1649  0.4364
13177TIP3    H161022   5.411   6.033  13.195 -0.0579 -0.4101  2.5590
13177TIP3    H261023   5.313   6.132  13.136  1.6932 -0.2806 -0.3307
13178TIP3   OH261024   4.657   2.621   2.056  0.2299 -0.0662  0.1729
13178TIP3    H161025   4.636   2.568   1.980 -0.1661 -1.6296  1.3374
13178TIP3    H261026   4.607   2.702   2.044  0.0172 -0.3782 -1.1070
13179TIP3   OH261027   0.779   0.629   5.444  0.3309  0.4948  0.3273
13179TIP3    H161028   0.786   0.534   5.439 -0.0029  0.5374 -1.2881
13179TIP3    H261029   0.869   0.661   5.438  0.3146  0.3326 -1.1326
13180TIP3   OH261030   2.616   0.447   3.357  0.2294 -0.2356  0.9416
13180TIP3    H161031   2.583   0.488   3.277 -1.6589  0.2091  1.8904
13180TIP3    H261032   2.541   0.398   3.392  1.4632 -1.7241  1.6342
13181TIP3   OH261033   0.072   2.455  11.077 -0.8672  0.0621  0.2246
13181TIP3    H161034   0.113   2.541  11.075 -2.2987  0.7795 -2.0194
13181TIP3    H261035   0.145   2.393  11.084  0.1875  1.4094  1.8589
13182TIP3   OH261036   4.161   4.011  16.674 -0.5346  0.4392 -0.3831
13182TIP3    H161037   4.245   4.058  16.671 -1.5588  2.4556  0.5097
13182TIP3    H261038   4.163   3.954  16.598  2.0251 -0.2795  0.1188
13183TIP3   OH261039   0.423   0.642  14.810 -0.4997  0.2649 -0.2181
13183TIP3    H161040   0.486   0.621  14.879 -3.3537 -1.6258  2.0339
13183TIP3    H261041   0.418   0.738  14.810 -0.3634  0.3396  2.2445
13184TIP3   OH261042   0.662   3.731  12.737  0.4464 -0.2243  0.5479
13184TIP3    H161043   0.730   3.797  12.727 -0.0822  0.2520 -0.0125
13184TIP3    H261044   0.685   3.663  12.673 -0.4889  0.7177 -0.8360
13185TIP3   OH261045   5.250   4.577   3.505 -0.3918 -0.6221  0.1823
13185TIP3    H161046   5.212   4.493   3.479  0.4739 -0.4999 -1.5813
13185TIP3    H261047   5.267   4.566   3.599 -1.7207 -1.8336  0.3252
13186TIP3   OH261048   4.895   4.004   3.234  0.3699  0.1481 -0.1112
13186TIP3    H161049   4.827   3.982   3.298 -0.3293 -0.5837 -1.0928
13186TIP3    H261050   4.908   4.098   3.245 -1.0575  0.3660 -0.1663
13187TIP3   OH261051   5.255   6.124  10.504 -0.2180 -0.2138 -0.7921
13187TIP3    H161052   5.334   6.070  10.507 -0.3299 -0.3602 -0.4226
13187TIP3    H261053   5.285   6.211  10.530  0.6729  0.8198 -4.6660
13188TIP3   OH261054   3.798   1.098   2.990 -0.2452 -0.8456 -0.1037
13188TIP3    H161055   3.851   1.121   3.066  0.2289 -0.4781 -0.5372
13188TIP3    H261056   3.786   1.003   2.996 -0.2454 -0.8139  0.4451
13189TIP3   OH261057   3.994   4.567  15.103 -0.1884 -0.2077  0.0422
13189TIP3    H161058   3.960   4.654  15.083  1.0266 -0.2698 -2.7500
13189TIP3    H261059   4.089   4.578  15.105  0.0647 -1.6454 -1.6846
13190TIP3   OH261060   0.301   4.761  15.939  0.0301 -0.6295 -0.2467
13190TIP3    H161061   0.353   4.841  15.935 -1.3661  0.3774  0.6487
13190TIP3    H261062   0.214   4.788  15.911 -0.5298 -1.7796  0.3253
13191TIP3   OH261063   3.146   0.525  15.083  0.5644  0.4476  0.3958
13191TIP3    H161064   3.065   0.547  15.037 -1.0289  0.5492  3.0117
13191TIP3    H261065   3.116   0.492  15.168  3.2905  2.1186  2.1487
13192TIP3   OH261066   5.014   1.323  16.757 -0.2580  0.0113  0.1828
13192TIP3    H161067   4.994   1.244  16.807 -1.3138  0.1817  0.0332
13192TIP3    H261068   5.067   1.376  16.817  2.7765 -1.8902 -0.5746
13193TIP3   OH261069   6.510   3.493  13.857 -0.1336  0.5491  0.0827
13193TIP3    H161070   6.589   3.450  13.824  0.3737  0.9970  0.6806
13193TIP3    H261071   6.517   3.487  13.952 -0.9677  0.3468  0.1358
13194TIP3   OH261072   1.449   2.479  16.592 -0.2152  0.1292  0.3069
13194TIP3    H161073   1.430   2.570  16.612 -2.2383 -0.3450  0.8043
13194TIP3    H261074   1.524   2.457  16.647 -0.3474  1.2092  0.9502
13195TIP3   OH261075   0.152   3.375  12.619  0.1203  0.4995 -0.5712
13195TIP3    H161076   0.119   3.428  12.692  0.6534  1.3668 -0.9471
13195TIP3    H261077   0.120   3.287  12.637 -0.4918  0.8778  0.2516
13196TIP3   OH261078   2.047   1.034   3.025 -0.0767 -0.3175 -0.2801
13196TIP3    H161079   2.118   0.992   2.977  0.9469 -0.2620  1.1249
13196TIP3    H261080   2.053   1.127   3.000  1.6019  0.0348  1.2448
13197TIP3   OH261081   5.308   3.372  14.809  0.3705  0.7139 -0.2501
13197TIP3    H161082   5.335   3.454  14.850  2.0675  1.1393 -2.0437
13197TIP3    H261083   5.305   3.309  14.881 -3.1872  2.7139  1.5758
13198TIP3   OH261084   6.206   5.912  14.588 -0.2141  0.4244  0.2907
13198TIP3    H161085   6.205   5.961  14.670  0.7742  0.5762  0.2297
13198TIP3    H261086   6.127   5.939  14.542  0.5796  2.4224 -0.0022
13199TIP3   OH261087   3.592   4.661   2.245 -0.7671 -0.3637  0.0031
13199TIP3    H161088   3.630   4.696   2.164 -0.8714  1.6812  0.7543
13199TIP3    H261089   3.497   4.672   2.234 -0.7675  0.1774  0.4865
13200TIP3   OH261090   3.482   4.947   2.835  0.1826 -0.2382 -0.3598
13200TIP3    H161091   3.454   4.896   2.911 -1.4781  1.2332  0.0870
13200TIP3    H261092   3.439   4.903   2.761 -0.5899  0.0070 -0.0757
13201TIP3   OH261093   5.162   4.807  12.904 -0.3193 -0.6795 -0.6736
13201TIP3    H161094   5.172   4.901  12.889  1.7313 -1.1073 -2.5640
13201TIP3    H261095   5.205   4.792  12.988 -2.0202  0.2333  0.4138
13202TIP3   OH261096   0.464   6.201   5.399 -0.0812  0.0452  0.3116
13202TIP3    H161097   0.523   6.127   5.383  1.9201  1.0757  2.3310
13202TIP3    H261098   0.522   6.275   5.418 -1.9797  2.3413 -2.0980
13203TIP3   OH261099   5.033   0.533   2.522 -0.2348  0.0198  0.1962
13203TIP3    H161100   5.060   0.599   2.458 -0.6559  0.5372  0.5376
13203TIP3    H261101   5.028   0.581   2.605 -1.8059 -0.1197  0.2261
13204TIP3   OH261102   4.127   4.339  17.145  0.0889  0.2309  0.7054
13204TIP3    H161103   4.034   4.316  17.152  0.0557  0.0967 -0.0374
13204TIP3    H261104   4.146   4.333  17.051  0.6426  1.0760  0.7472
13205TIP3   OH261105   4.946   6.211  13.174 -0.1072 -0.0098 -0.4734
13205TIP3    H161106   4.992   6.144  13.224 -0.7243 -1.1244 -1.3589
13205TIP3    H261107   4.901   6.264  13.240 -0.3521 -1.0263  0.1910
13206TIP3   OH261108   6.173   4.869  13.738 -0.2056 -0.5656 -0.6170
13206TIP3    H161109   6.103   4.818  13.698  0.2123 -0.8682 -0.9752
13206TIP3    H261110   6.128   4.941  13.783 -0.6595  0.0618 -2.0258
13207TIP3   OH261111   6.830   6.034  13.615  0.6040  0.4785  0.3854
13207TIP3    H161112   6.906   6.093  13.615  0.2107  0.9998 -0.7228
13207TIP3    H261113   6.819   6.010  13.707  1.1061  1.7112  0.7878
13208TIP3   OH261114   6.055   2.344  13.519 -0.3339 -0.4152  0.5421
13208TIP3    H161115   6.096   2.430  13.527 -0.4106 -0.4925  2.0814
13208TIP3    H261116   6.114   2.294  13.462 -1.1422  1.1237 -1.7910
13209TIP3   OH261117   1.242   4.860   3.380  0.0913 -0.2193 -0.3542
13209TIP3    H161118   1.205   4.792   3.436 -2.6785  2.2188  1.0596
13209TIP3    H261119   1.187   4.859   3.301 -1.4587  1.6972  0.6209
13210TIP3   OH261120   2.489   6.151  16.617 -0.0551 -0.3308 -0.3472
13210TIP3    H161121   2.544   6.142  16.694 -1.0325  1.4804  0.6494
13210TIP3    H261122   2.439   6.070  16.613  1.8799 -1.5613 -0.6785
13211TIP3   OH261123   3.210   1.974  10.400  0.4909 -0.5751  0.5686
13211TIP3    H161124   3.250   1.888  10.387  0.6348 -0.3191 -0.9669
13211TIP3    H261125   3.139   1.977  10.336  0.7279  0.5816  0.3339
13212TIP3   OH261126   6.071   0.723  12.610 -0.1011  0.3763 -0.3336
13212TIP3    H161127   6.041   0.644  12.565 -2.1022  0.5687  0.5346
13212TIP3    H261128   6.063   0.792  12.545 -1.6436  0.4154 -0.1457
13213TIP3   OH261129   5.979   2.973  12.762 -0.2000  0.6687 -0.0893
13213TIP3    H161130   6.020   3.043  12.814 -0.4282  0.9586 -0.2980
13213TIP3    H261131   5.974   3.010  12.673  2.7161 -0.7904 -1.0107
13214TIP3   OH261132   2.765   0.232   4.822 -0.4878 -0.0398  0.6392
13214TIP3    H161133   2.714   0.298   4.868  0.0426  0.9609 -0.1715
13214TIP3    H261134   2.764   0.156   4.880 -0.2862  1.0079  2.0675
13215TIP3   OH261135   0.514   4.434  14.427 -0.2033 -0.0773 -0.0651
13215TIP3    H161136   0.606   4.459  14.422 -0.3978  0.9004  0.8116
13215TIP3    H261137   0.506   4.387  14.510 -0.2374 -1.3846 -0.7883
13216TIP3   OH261138   4.025   0.313   5.302 -1.2208  0.4582 -0.0554
13216TIP3    H161139   4.097   0.370   5.331 -0.4436 -1.3530  1.8241
13216TIP3    H261140   3.950   0.340   5.355 -0.8605 -0.1819  0.8118
13217TIP3   OH261141   2.544   5.563  12.858  0.3988 -0.0472 -0.1702
13217TIP3    H161142   2.612   5.533  12.918 -0.5051  2.2480  2.1839
13217TIP3    H261143   2.536   5.493  12.794  4.1322 -0.9088  0.0993
13218TIP3   OH261144   5.401   1.857   5.704 -0.1158  0.3159 -0.0984
13218TIP3    H161145   5.350   1.827   5.779 -0.0692  1.0848  0.2565
13218TIP3    H261146   5.439   1.940   5.733  0.3510  0.3490 -0.7831
13219TIP3   OH261147   1.030   0.761   1.263  0.5198 -0.1870 -0.1745
13219TIP3    H161148   0.984   0.817   1.326 -1.5762  0.1654 -1.8952
13219TIP3    H261149   0.969   0.688   1.248  1.0785 -0.3911 -1.5774
13220TIP3   OH261150   1.414   2.945  14.045 -0.1857 -0.2629 -0.0667
13220TIP3    H161151   1.398   3.039  14.042  0.5566 -0.1588 -1.2031
13220TIP3    H261152   1.329   2.907  14.068  0.0832  0.8150  3.2137
13221TIP3   OH261153   5.405   5.078  15.974  0.0027 -0.1588  0.0124
13221TIP3    H161154   5.401   5.120  15.888  1.4859 -0.6535 -0.3328
13221TIP3    H261155   5.425   4.987  15.954 -0.8611 -0.5522  0.8568
13222TIP3   OH261156   3.273   1.434   0.642  0.5615  0.0385  0.3092
13222TIP3    H161157   3.329   1.375   0.593  0.2351  0.7695 -0.9758
13222TIP3    H261158   3.185   1.416   0.611  0.6419  2.6531 -1.7651
13223TIP3   OH261159   6.129   4.058  12.586  0.5100 -0.2712  0.7014
13223TIP3    H161160   6.038   4.063  12.614  1.0620 -0.0702  2.6038
13223TIP3    H261161   6.174   4.124  12.639  1.7931 -0.5347 -0.0358
13224TIP3   OH261162   1.597   3.992   5.740 -0.2101 -0.7628  0.2483
13224TIP3    H161163   1.514   4.035   5.720 -1.4759 -2.7226  0.9645
13224TIP3    H261164   1.608   4.005   5.834  1.6940  1.6961 -0.2164
13225TIP3   OH261165   6.730   6.450   1.465 -0.2259 -0.7387 -0.1794
13225TIP3    H161166   6.799   6.436   1.530  0.8887  0.1428 -1.1208
13225TIP3    H261167   6.726   6.368   1.417 -0.5848 -1.1614  0.5572
13226TIP3   OH261168   6.480   6.037   5.473 -0.0687 -0.6516  0.7092
13226TIP3    H161169   6.408   5.987   5.435  1.2094 -2.0998  0.0865
13226TIP3    H261170   6.531   6.067   5.398 -0.0318  0.3708  1.1369
13227TIP3   OH261171   3.859   3.748   6.515 -0.1403 -0.0804 -0.8266
13227TIP3    H161172   3.908   3.731   6.435  0.4054  1.4432 -0.8406
13227TIP3    H261173   3.767   3.749   6.488  0.0777  1.1436 -1.5995
13228TIP3   OH261174   2.400   2.448  15.777 -0.0815  0.2963  0.3104
13228TIP3    H161175   2.457   2.413  15.845 -0.4782 -0.1251  0.4365
13228TIP3    H261176   2.355   2.371  15.742  1.1476  0.3049 -1.4073
13229TIP3   OH261177   4.470   1.282   3.430 -0.0091 -0.3021 -0.1923
13229TIP3    H161178   4.458   1.337   3.507 -1.2453 -1.0551  0.1787
13229TIP3    H261179   4.515   1.204   3.462  1.3798  0.2759 -0.6464
13230TIP3   OH261180   3.103   1.351  14.267 -0.3342 -0.0509 -0.4795
13230TIP3    H161181   3.084   1.261  14.239 -1.2298 -0.4620  1.3309
13230TIP3    H261182   3.142   1.342  14.353 -2.0838  1.3292  0.5277
13231TIP3   OH261183   4.450   3.549  14.342  0.6810  0.3438  0.3690
13231TIP3    H161184   4.498   3.604  14.280  0.0278  1.1961  0.5980
13231TIP3    H261185   4.378   3.513  14.290 -0.0115  1.2556  0.6667
13232TIP3   OH261186   6.251   6.803  11.433 -0.5898 -0.3327 -0.4230
13232TIP3    H161187   6.294   6.738  11.377  0.8454  1.4183 -1.4224
13232TIP3    H261188   6.212   6.865  11.372 -0.5033  0.6506  0.5047
13233TIP3   OH261189   2.138   5.801  16.135  0.2508  0.2155  0.1820
13233TIP3    H161190   2.101   5.818  16.049  1.7318  0.6501 -0.4050
13233TIP3    H261191   2.150   5.887  16.174 -0.4395  0.0206  0.8542
13234TIP3   OH261192   1.216   2.350  15.861 -1.0114  0.3990 -0.1768
13234TIP3    H161193   1.310   2.344  15.882 -0.8526  1.5450 -0.4942
13234TIP3    H261194   1.179   2.270  15.899  0.0070  0.1736  0.4179
13235TIP3   OH261195   3.647   2.888  15.958  0.5096 -0.2555  0.3497
13235TIP3    H161196   3.564   2.843  15.945 -0.3107  1.2377  0.1801
13235TIP3    H261197   3.644   2.919  16.049 -0.5208  2.4078 -0.4946
13236TIP3   OH261198   3.991   4.439  14.042  0.2830  0.0984 -0.4182
13236TIP3    H161199   3.955   4.360  14.003 -1.9007  0.9543 -0.2918
13236TIP3    H261200   4.085   4.425  14.044 -0.1184 -3.6913  2.1587
13237TIP3   OH261201   6.770   4.901   3.528 -0.3564 -0.2574  0.2128
13237TIP3    H161202   6.685   4.869   3.498 -0.1844 -1.0989  0.6179
13237TIP3    H261203   6.832   4.831   3.506  0.2117  0.2699  0.0847
13238TIP3   OH261204   2.327   4.814   1.087 -0.2311  0.0803  0.0161
13238TIP3    H161205   2.272   4.891   1.077 -1.4975 -0.8191 -0.1640
13238TIP3    H261206   2.291   4.768   1.163  1.6078  0.5415  1.2163
13239TIP3   OH261207   4.827   5.761   0.316 -0.0170  0.5866  0.2959
13239TIP3    H161208   4.772   5.834   0.346  0.3050  0.8001  0.3683
13239TIP3    H261209   4.888   5.745   0.389 -2.1542 -1.9232  1.7125
13240TIP3   OH261210   3.029   4.376   5.720  0.7889  0.4646  0.4152
13240TIP3    H161211   3.037   4.281   5.727 -0.7571  0.3173  0.6613
13240TIP3    H261212   3.083   4.410   5.791  0.9913 -0.2548  0.6126
13241TIP3   OH261213   2.449   6.474  15.383  0.0675  0.5020 -0.3078
13241TIP3    H161214   2.411   6.474  15.471 -2.3389 -2.0388 -1.1986
13241TIP3    H261215   2.506   6.397  15.381 -1.4757 -0.6905 -1.4648
13242TIP3   OH261216   4.171   2.488  12.723  0.3783 -0.2533 -0.2313
13242TIP3    H161217   4.215   2.556  12.774  0.2932 -0.4858  0.1620
13242TIP3    H261218   4.239   2.455  12.664  1.1410 -1.5029  1.2513
13243TIP3   OH261219   6.780   2.211  15.603  0.1164  0.4401  0.3062
13243TIP3    H161220   6.776   2.252  15.516 -1.7535  0.3848  0.3211
13243TIP3    H261221   6.797   2.119  15.585 -0.6048  0.3678 -0.0314
13244TIP3   OH261222   6.232   4.776   1.364 -0.0454 -0.9037  0.2976
13244TIP3    H161223   6.199   4.735   1.444  0.9953 -1.8880  0.2659
13244TIP3    H261224   6.292   4.844   1.395  0.3402 -1.2692  0.3614
13245TIP3   OH261225   4.298   4.653   5.268  0.3064  0.7841  0.9544
13245TIP3    H161226   4.218   4.664   5.217  0.4957  0.2267  0.5184
13245TIP3    H261227   4.268   4.638   5.358 -0.0429  1.4391  0.9480
13246TIP3   OH261228   3.411   6.551   2.171 -0.3007 -0.3448  0.4235
13246TIP3    H161229   3.416   6.617   2.239 -1.2875  0.1131  0.0666
13246TIP3    H261230   3.498   6.553   2.130 -0.4913  1.1525  0.0363
13247TIP3   OH261231   2.235   1.527   0.911  0.6106  0.2368 -0.2135
13247TIP3    H161232   2.194   1.493   0.831  0.3382 -2.2677  0.8824
13247TIP3    H261233   2.312   1.574   0.880 -1.0096  1.8244 -2.0913
13248TIP3   OH261234   4.156   1.505  12.951 -0.0702 -0.3133 -0.1071
13248TIP3    H161235   4.186   1.496  12.860  2.7740 -1.0255  0.7996
13248TIP3    H261236   4.159   1.599  12.968  0.1698 -0.2376 -0.5357
13249TIP3   OH261237   6.546   6.139   2.949  0.3128 -0.6083  0.4883
13249TIP3    H161238   6.605   6.145   3.024  0.3299 -0.9210  0.5019
13249TIP3    H261239   6.505   6.225   2.944 -0.3713 -0.8689  1.4203
13250TIP3   OH261240   0.181   2.823   4.925 -0.4148 -0.3939  0.4765
13250TIP3    H161241   0.124   2.900   4.922 -0.1635 -0.0879  2.4037
13250TIP3    H261242   0.239   2.833   4.849 -1.7631  0.1870 -0.5186
13251TIP3   OH261243   6.310   3.255  15.146 -0.3354  0.0458  0.0319
13251TIP3    H161244   6.343   3.245  15.057 -1.7613 -3.7118 -0.2447
13251TIP3    H261245   6.220   3.285  15.136 -0.2430  0.4271  0.2887
13252TIP3   OH261246   2.643   1.672   2.356  0.5090  0.3003 -0.0793
13252TIP3    H161247   2.715   1.611   2.377 -1.0103 -0.3458  4.1505
13252TIP3    H261248   2.684   1.758   2.356  1.5110 -0.1537  0.9510
13253TIP3   OH261249   0.110   3.615  17.008 -0.1687  0.2357  0.0602
13253TIP3    H161250   0.066   3.635  16.926 -0.2078 -0.1403 -0.0154
13253TIP3    H261251   0.046   3.638  17.076 -0.2311  0.3125 -0.0260
13254TIP3   OH261252   2.627   4.993  13.390 -0.2769 -0.5991 -0.1065
13254TIP3    H161253   2.532   4.985  13.400 -0.1970 -2.1229 -0.3490
13254TIP3    H261254   2.662   4.917  13.438  0.9689  1.1983  2.0545
13255TIP3   OH261255   6.006   1.547  11.515  0.4354 -0.0397 -0.0214
13255TIP3    H161256   6.023   1.521  11.605  0.5300 -0.7569 -0.2338
13255TIP3    H261257   5.993   1.464  11.468 -1.2873  0.3776 -0.3494
13256TIP3   OH261258   2.043   1.196   4.340 -0.1871 -0.3873 -0.0888
13256TIP3    H161259   2.033   1.111   4.296  0.4590 -0.1875 -0.6313
13256TIP3    H261260   2.040   1.175   4.433 -0.5771 -0.9372 -0.2161
13257TIP3   OH261261   5.318   2.399  12.101  0.1701  0.6005  0.3281
13257TIP3    H161262   5.328   2.327  12.162  1.9358 -0.0289 -0.6172
13257TIP3    H261263   5.392   2.390  12.041 -0.6323  2.0802 -0.9753
13258TIP3   OH261264   1.056   3.273  10.523 -0.4544 -0.6293  0.2425
13258TIP3    H161265   1.019   3.361  10.515 -1.1038 -0.8580  0.6096
13258TIP3    H261266   1.136   3.275  10.470 -0.6359  0.0824 -0.0142
13259TIP3   OH261267   2.077   5.857   5.167  0.1706  0.5433  0.4193
13259TIP3    H161268   2.094   5.905   5.086  1.0872  1.0700  0.9058
13259TIP3    H261269   2.124   5.907   5.235  1.2537 -1.1001  0.9298
13260TIP3   OH261270   0.538   2.196  15.700  0.3843  0.6031 -0.5422
13260TIP3    H161271   0.620   2.244  15.709  0.8384 -0.0017 -1.3152
13260TIP3    H261272   0.500   2.197  15.788  0.1544  2.7329 -0.5963
13261TIP3   OH261273   5.127   3.423  13.363 -0.3984  0.0235  0.1018
13261TIP3    H161274   5.176   3.344  13.341  0.3248  0.7954 -1.1987
13261TIP3    H261275   5.036   3.395  13.366 -0.1521 -0.8624 -0.3311
13262TIP3   OH261276   5.010   2.765   6.678 -0.9718  0.4164  0.8647
13262TIP3    H161277   4.951   2.706   6.724 -1.3370  0.9438  1.0841
13262TIP3    H261278   4.963   2.788   6.597 -1.8803  2.2292  1.8404
13263TIP3   OH261279   4.172   0.469   0.315  0.6677 -0.1318 -0.4281
13263TIP3    H161280   4.249   0.411   0.321  1.0538  0.3679 -0.4405
13263TIP3    H261281   4.154   0.493   0.406  1.4499  0.9248 -0.5333
13264TIP3   OH261282   0.302   0.406  16.844 -0.1360  0.9663 -0.7106
13264TIP3    H161283   0.266   0.493  16.826  1.3972  1.6894 -0.4440
13264TIP3    H261284   0.356   0.418  16.922 -0.3613 -0.3744 -0.3216
13265TIP3   OH261285   0.235   2.761   3.803  0.5521  0.0043 -0.1921
13265TIP3    H161286   0.180   2.721   3.735  1.0390 -1.1350  0.0630
13265TIP3    H261287   0.253   2.690   3.864  2.3756  0.3111 -0.3185
13266TIP3   OH261288   5.892   2.880  12.119 -0.2014  0.0816 -0.0103
13266TIP3    H161289   5.831   2.896  12.047  0.0353  1.0618 -0.0092
13266TIP3    H261290   5.841   2.831  12.184 -0.0577 -2.0100 -1.3834
13267TIP3   OH261291   1.117   2.033  13.864  0.5878  0.2807 -0.4815
13267TIP3    H161292   1.073   2.077  13.791 -0.9773 -1.5011 -0.6769
13267TIP3    H261293   1.210   2.034  13.839  0.1668  0.3214 -2.1717
13268TIP3   OH261294   6.585   0.994   1.123 -0.4200 -0.4251  0.5649
13268TIP3    H161295   6.549   0.905   1.132  0.9120 -1.0189  0.2129
13268TIP3    H261296   6.571   1.017   1.031 -0.0236 -0.6083  0.4567
13269TIP3   OH261297   1.727   2.922  16.268  0.0504 -0.1800  0.6863
13269TIP3    H161298   1.652   2.974  16.298 -0.7875 -1.2015  0.4307
13269TIP3    H261299   1.701   2.891  16.182  0.1072 -1.8149  1.2248
13270TIP3   OH261300   4.613   5.928  13.736  0.5495  0.9395 -0.1280
13270TIP3    H161301   4.606   5.912  13.642  1.3986 -0.9660  0.0718
13270TIP3    H261302   4.593   5.843  13.775  0.5566  1.6162  1.4061
13271TIP3   OH261303   3.388   3.617  14.574  0.7054  0.1195 -0.4125
13271TIP3    H161304   3.321   3.548  14.573 -1.7592  2.3659 -0.1823
13271TIP3    H261305   3.380   3.660  14.489  0.1768  1.8791  0.4767
13272TIP3   OH261306   0.479   3.039  16.102 -0.1269 -0.0701 -0.1510
13272TIP3    H161307   0.489   2.966  16.041 -2.5523 -0.3865 -0.2644
13272TIP3    H261308   0.388   3.034  16.131 -0.4940  3.0907 -0.3891
13273TIP3   OH261309   4.103   6.198   2.115 -0.0408  0.1193  0.3445
13273TIP3    H161310   4.063   6.252   2.047 -0.5655  0.0101  0.5576
13273TIP3    H261311   4.137   6.122   2.069  1.9784  1.2762 -0.1701
13274TIP3   OH261312   1.571   6.056  10.472 -0.6620 -0.4281  0.3395
13274TIP3    H161313   1.513   6.013  10.535 -1.0185 -0.9610 -0.3419
13274TIP3    H261314   1.512   6.100  10.411 -0.3079  0.4938  0.6423
13275TIP3   OH261315   6.335   2.583  16.127  0.6896 -0.1475  0.1666
13275TIP3    H161316   6.282   2.662  16.131  1.9094  0.6730  0.6332
13275TIP3    H261317   6.273   2.511  16.140 -0.5770  0.6589 -1.2139
13276TIP3   OH261318   2.249   3.806   5.847 -0.6504  0.0644  0.1148
13276TIP3    H161319   2.187   3.819   5.919 -1.4042 -0.0434 -0.4936
13276TIP3    H261320   2.252   3.890   5.803 -3.4785 -0.8825 -2.2274
13277TIP3   OH261321   3.252   2.926  12.393 -0.2025 -0.3183 -0.0873
13277TIP3    H161322   3.177   2.869  12.375  0.0594 -1.2087  1.4520
13277TIP3    H261323   3.307   2.918  12.315 -1.7390  0.4513 -1.2930
13278TIP3   OH261324   4.785   6.206   0.261 -0.7192  0.2205 -0.0328
13278TIP3    H161325   4.704   6.226   0.307 -0.4438 -0.3061  0.7045
13278TIP3    H261326   4.830   6.290   0.254 -1.2330  0.4837 -0.2870
13279TIP3   OH261327   1.470   5.587   0.589  0.2623  0.2097  0.9272
13279TIP3    H161328   1.542   5.590   0.526  0.2415  0.3806  0.9111
13279TIP3    H261329   1.484   5.664   0.645 -0.7266  1.0929  0.0235
13280TIP3   OH261330   6.316   2.529   3.500 -0.2355  0.5012  0.5393
13280TIP3    H161331   6.306   2.435   3.515 -0.3880  0.5714  0.8646
13280TIP3    H261332   6.246   2.550   3.438 -0.2656  0.4214  0.5448
13281TIP3   OH261333   1.915   4.895   3.285  0.3516  0.1584  0.3608
13281TIP3    H161334   1.939   4.892   3.192 -1.4534  1.2230 -0.1975
13281TIP3    H261335   1.976   4.958   3.324 -0.3628  1.5344 -0.6439
13282TIP3   OH261336   0.110   6.347   6.001 -0.3627  0.0446 -0.1202
13282TIP3    H161337   0.117   6.443   6.004 -1.1197  0.1179 -0.4754
13282TIP3    H261338   0.158   6.322   5.922 -0.8557  0.2089 -0.4787
13283TIP3   OH261339   0.608   3.894   3.861 -0.3164 -0.2261  0.9079
13283TIP3    H161340   0.639   3.967   3.915 -0.7141 -1.2857  2.6137
13283TIP3    H261341   0.610   3.818   3.918 -1.5732 -1.2441 -0.3223
13284TIP3   OH261342   1.608   1.300  14.884 -0.2355 -0.4864  0.0106
13284TIP3    H161343   1.551   1.233  14.922  0.8853 -2.1195 -1.0613
13284TIP3    H261344   1.577   1.309  14.794  1.7380 -2.1571 -0.9169
13285TIP3   OH261345   6.761   3.679  15.569  0.2010  0.8673 -0.3918
13285TIP3    H161346   6.814   3.678  15.488  0.3080 -4.0100 -0.5518
13285TIP3    H261347   6.671   3.672  15.538  0.3184 -2.4888 -0.2772
13286TIP3   OH261348   5.478   4.325   0.579 -0.2437  0.8034  0.7703
13286TIP3    H161349   5.516   4.265   0.643  0.1747  1.3321  1.0295
13286TIP3    H261350   5.388   4.294   0.568  0.1786 -0.3172  0.3251
13287TIP3   OH261351   1.152   5.084   1.326 -0.0931 -0.0019 -0.2066
13287TIP3    H161352   1.205   5.159   1.299  1.2553 -1.5505 -2.1822
13287TIP3    H261353   1.213   5.010   1.327 -1.8389 -1.5366 -0.7323
13288TIP3   OH261354   0.481   6.663  14.919 -0.0642 -0.6123  0.3374
13288TIP3    H161355   0.503   6.587  14.865  0.4314 -0.4121  0.2473
13288TIP3    H261356   0.559   6.677  14.973 -0.9354 -1.4449  1.8761
13289TIP3   OH261357   1.613   3.799   4.556  0.2927  0.1371 -0.2430
13289TIP3    H161358   1.648   3.713   4.535  1.5586  0.5956 -0.0675
13289TIP3    H261359   1.523   3.782   4.585  1.8004 -1.7221  4.2224
13290TIP3   OH261360   6.563   5.061   2.705 -0.4406 -0.4764 -0.2880
13290TIP3    H161361   6.608   5.007   2.769  0.7370  1.6713  0.7876
13290TIP3    H261362   6.472   5.030   2.708 -0.3126 -0.8205  2.0264
13291TIP3   OH261363   0.305   2.550  14.551 -0.6441  0.4330  0.3563
13291TIP3    H161364   0.259   2.572  14.470  0.3426 -0.9413 -0.6293
13291TIP3    H261365   0.395   2.533  14.523 -0.9031 -3.0367  1.2101
13292TIP3   OH261366   1.690   1.273   3.985 -0.4310  0.7657 -0.4410
13292TIP3    H161367   1.701   1.302   3.895 -0.3042  2.8249  0.2002
13292TIP3    H261368   1.611   1.318   4.016  0.8584  2.0440  1.1910
13293TIP3   OH261369   6.493   2.180   2.108  0.0581  0.4435 -0.9289
13293TIP3    H161370   6.482   2.094   2.148  1.3768  0.5516 -0.2668
13293TIP3    H261371   6.438   2.238   2.160  1.4786  0.5158  0.5857
13294TIP3   OH261372   0.072   2.792   6.357 -0.3290 -0.0788 -0.3603
13294TIP3    H161373   0.036   2.819   6.441 -1.1656  0.9274 -1.0181
13294TIP3    H261374  -0.005   2.769   6.304  0.0977  0.3797 -1.2099
13295TIP3   OH261375   2.048   0.042  15.385  0.1580 -0.1104  0.0680
13295TIP3    H161376   1.987   0.103  15.427  0.2757  0.2586 -0.2849
13295TIP3    H261377   2.007  -0.044  15.395 -1.0524  0.2722 -1.2361
13296TIP3   OH261378   4.007   1.844   2.265  0.2460 -0.0648  0.0142
13296TIP3    H161379   4.092   1.866   2.302  1.0294 -2.1437 -0.4017
13296TIP3    H261380   3.954   1.815   2.339 -0.2286  1.4686  0.3102
13297TIP3   OH261381   0.514   3.836  13.949 -0.1399 -0.2176 -0.3008
13297TIP3    H161382   0.437   3.894  13.950 -1.2790 -1.6334  1.5971
13297TIP3    H261383   0.490   3.767  13.887  0.7377  0.6338 -1.6663
13298TIP3   OH261384   4.490   4.868  17.022  0.3304  0.0912  0.2236
13298TIP3    H161385   4.525   4.877  17.111  0.5475  1.7473 -0.0070
13298TIP3    H261386   4.552   4.810  16.978 -0.9015 -2.5676  1.6914
13299TIP3   OH261387   6.088   3.343   3.361 -0.4832 -0.1171 -0.6236
13299TIP3    H161388   6.061   3.252   3.344 -1.7803 -0.4376  2.4777
13299TIP3    H261389   6.013   3.396   3.333 -0.2254 -0.0789 -1.2688
13300TIP3   OH261390   0.160   1.757   3.030  0.2684  0.2423  0.1916
13300TIP3    H161391   0.182   1.683   3.086  0.6328  0.5817  0.5127
13300TIP3    H261392   0.243   1.804   3.021  0.3247 -0.0669 -1.0280
13301TIP3   OH261393   1.710   1.451  10.683  0.1089  0.0893 -0.0445
13301TIP3    H161394   1.725   1.532  10.731  3.9707 -0.0576 -0.6552
13301TIP3    H261395   1.650   1.401  10.739  0.4660  1.8959  2.1212
13302TIP3   OH261396   4.499   0.919   0.180 -0.5064  0.4195 -0.0786
13302TIP3    H161397   4.577   0.918   0.124 -0.1171  2.3845  0.3230
13302TIP3    H261398   4.437   0.861   0.136  0.9448 -0.7032 -0.7465
13303TIP3   OH261399   3.834   4.534   5.364 -0.0264  0.3487 -0.6783
13303TIP3    H161400   3.765   4.526   5.430 -2.5568 -1.9027 -3.2896
13303TIP3    H261401   3.808   4.610   5.312 -0.2385 -0.1652 -1.3325
13304TIP3   OH261402   0.069   3.994   2.696  0.1221  0.2678  0.2539
13304TIP3    H161403   0.119   3.970   2.774  2.2146  0.9121 -0.8146
13304TIP3    H261404   0.115   3.951   2.624 -0.0416  1.9950 -0.9302
13305TIP3   OH261405   6.210   2.259   4.618 -0.6254 -0.1698 -0.2596
13305TIP3    H161406   6.184   2.319   4.689 -1.9073  1.1586 -1.7666
13305TIP3    H261407   6.151   2.281   4.546  0.0157 -2.1266 -1.4457
13306TIP3   OH261408   3.551   1.335   5.258 -0.8495 -0.2789 -0.3020
13306TIP3    H161409   3.563   1.316   5.165 -1.6932  0.6884 -0.6248
13306TIP3    H261410   3.640   1.335   5.294 -0.5234 -0.7248 -1.0832
13307TIP3   OH261411   2.261   6.002   1.415 -0.5244  0.8794  0.4051
13307TIP3    H161412   2.256   5.932   1.350  1.4177 -1.0140  2.1408
13307TIP3    H261413   2.336   6.054   1.387  0.4665 -0.0809  1.1977
13308TIP3   OH261414   4.859   3.464  14.809 -1.0766  0.2258 -0.3804
13308TIP3    H161415   4.921   3.502  14.872 -1.5748  0.4528 -0.0167
13308TIP3    H261416   4.821   3.390  14.855 -0.5908 -0.3258 -0.8508
13309TIP3   OH261417   3.230   5.441  16.887  0.0177 -0.0449  0.1141
13309TIP3    H161418   3.163   5.408  16.828  1.1197 -2.4988  0.1134
13309TIP3    H261419   3.277   5.508  16.837 -0.4544 -0.5302 -0.9943
13310TIP3   OH261420   3.113   2.779   1.834  0.1069  0.2843  0.1918
13310TIP3    H161421   3.098   2.757   1.742  1.6750  0.7801 -0.2044
13310TIP3    H261422   3.207   2.794   1.840 -0.2039  1.9402  1.5137
13311TIP3   OH261423   2.130   1.587   2.986  0.3116 -0.5369  0.0334
13311TIP3    H161424   2.063   1.649   2.955  1.1457  0.1900 -0.3617
13311TIP3    H261425   2.185   1.639   3.044  1.5692 -0.6387 -1.0147
13312TIP3   OH261426   2.061   4.809  12.602  0.0657 -0.3230 -0.5408
13312TIP3    H161427   2.009   4.858  12.538 -0.7350 -0.6423 -0.1480
13312TIP3    H261428   2.104   4.877  12.654 -2.0239  0.0615  0.8181
13313TIP3   OH261429   4.023   3.412   4.281  0.1559 -0.7680  0.0252
13313TIP3    H161430   3.964   3.454   4.344  0.5144 -0.9478  0.4869
13313TIP3    H261431   4.103   3.464   4.284  0.9673 -2.0064  1.3220
13314TIP3   OH261432   0.278   3.910  12.276 -0.0771  0.8549  0.2665
13314TIP3    H161433   0.305   3.842  12.214  0.7070  1.1189  0.3039
13314TIP3    H261434   0.290   3.869  12.362 -0.2080  0.8314  0.2745
13315TIP3   OH261435   0.190   2.868  12.915  0.0927 -0.2223 -0.6761
13315TIP3    H161436   0.225   2.830  12.834 -0.0451  0.7924 -1.2192
13315TIP3    H261437   0.207   2.962  12.908 -0.8904  0.0223 -0.0073
13316TIP3   OH261438   0.816   2.366  11.323 -0.0536 -0.5537 -0.6811
13316TIP3    H161439   0.727   2.384  11.292  0.8308  1.3816 -2.3070
13316TIP3    H261440   0.842   2.447  11.368  0.9239 -1.0762 -0.2861
13317TIP3   OH261441   4.411   0.391  16.188 -0.4482  0.0829  0.1290
13317TIP3    H161442   4.418   0.296  16.178  0.7023  0.1383  0.2851
13317TIP3    H261443   4.497   0.424  16.166 -1.2295  1.2453 -1.3532
13318TIP3   OH261444   0.674   2.006  15.945  0.4695  0.2540  0.3096
13318TIP3    H161445   0.731   2.028  16.019  0.6003  1.2319 -0.0719
13318TIP3    H261446   0.585   2.019  15.978  0.4781 -0.5775  0.6854
13319TIP3   OH261447   5.452   6.055   4.365 -0.4903  0.3549  0.1212
13319TIP3    H161448   5.378   6.079   4.420 -0.0605  1.8713  0.0951
13319TIP3    H261449   5.511   6.006   4.423  1.3240  4.3210  2.0263
13320TIP3   OH261450   6.316   3.208  14.767  0.0649  0.2358  0.5018
13320TIP3    H161451   6.382   3.275  14.784  0.2852  0.1790 -0.1000
13320TIP3    H261452   6.240   3.258  14.735 -0.1437  0.2872  1.0547
13321TIP3   OH261453   6.543   5.787  15.467  0.0958  0.2893  0.0783
13321TIP3    H161454   6.468   5.774  15.409 -0.7672  1.7405  0.8089
13321TIP3    H261455   6.618   5.796  15.408 -0.6012  0.6953 -0.7752
13322TIP3   OH261456   0.310   5.591  13.029 -0.4886 -0.5195 -0.7779
13322TIP3    H161457   0.356   5.517  12.989  3.0898  1.0763 -0.0911
13322TIP3    H261458   0.277   5.556  13.112  1.2814 -1.3798 -0.3835
13323TIP3   OH261459   2.094   2.334   5.388 -0.4142  0.1003  0.1080
13323TIP3    H161460   2.064   2.329   5.478  1.0368  1.0966  0.6848
13323TIP3    H261461   2.153   2.259   5.377  1.3240  1.2862  0.8035
13324TIP3   OH261462   1.281   0.122  13.354  0.3391  0.8611 -0.6193
13324TIP3    H161463   1.337   0.135  13.277  0.2174  0.9856 -0.6864
13324TIP3    H261464   1.245   0.208  13.372  0.9476  0.9920  0.0287
13325TIP3   OH261465   2.420   0.990  14.047  0.5021  0.5389  0.3516
13325TIP3    H161466   2.330   0.970  14.071  0.5539 -0.8985 -0.5007
13325TIP3    H261467   2.418   1.004  13.952  1.4087 -1.4002 -0.0214
13326TIP3   OH261468   0.417   6.544   2.399 -0.2008 -0.0273 -0.2565
13326TIP3    H161469   0.466   6.472   2.360 -2.6358 -0.6859 -2.4539
13326TIP3    H261470   0.421   6.529   2.493  0.1053 -2.5764 -0.6045
13327TIP3   OH261471   3.548   2.017  16.227 -0.0354  0.2323  0.3171
13327TIP3    H161472   3.613   2.088  16.228  0.7475 -0.4712  0.6597
13327TIP3    H261473   3.501   2.026  16.310 -1.6948  1.8916 -0.7177
13328TIP3   OH261474   4.181   0.253  12.194  0.2797 -0.5462  0.4962
13328TIP3    H161475   4.263   0.215  12.163  0.1971 -0.7389  0.5065
13328TIP3    H261476   4.152   0.311  12.124 -0.5560 -1.9392 -0.3721
13329TIP3   OH261477   1.937   3.077   5.002  0.1953  0.0733 -0.0792
13329TIP3    H161478   1.851   3.117   5.009  0.0329 -0.2872  0.0379
13329TIP3    H261479   1.962   3.088   4.910 -0.4223 -0.7126 -0.3496
13330TIP3   OH261480   2.902   3.489  11.943 -0.0907  0.2499 -0.4717
13330TIP3    H161481   2.869   3.513  11.857  0.8420  1.3693 -0.5325
13330TIP3    H261482   2.990   3.454  11.927 -0.5538 -1.1406 -0.1357
13331TIP3   OH261483   2.550   1.122  12.173  0.1473  0.2446 -0.2117
13331TIP3    H161484   2.579   1.032  12.188  0.0535  0.2879  0.2440
13331TIP3    H261485   2.455   1.119  12.181  0.2668  1.0001  3.5296
13332TIP3   OH261486   5.761   0.123   0.236 -0.4733  0.5973  0.1695
13332TIP3    H161487   5.747   0.034   0.267 -0.2502  0.4263 -0.2184
13332TIP3    H261488   5.817   0.114   0.159 -1.7831  0.9408 -0.8483
13333TIP3   OH261489   6.436   1.083   0.613 -0.4104  0.3885  0.1520
13333TIP3    H161490   6.506   1.106   0.674 -1.2648  2.1303  0.5292
13333TIP3    H261491   6.393   1.007   0.653  0.2964  0.2655  0.6836
13334TIP3   OH261492   5.832   3.966   0.729 -0.6236 -0.2025 -0.7955
13334TIP3    H161493   5.810   3.976   0.637  1.0455 -1.1380 -1.3345
13334TIP3    H261494   5.927   3.980   0.733 -0.9443  1.9674  1.1270
13335TIP3   OH261495   1.061   5.362   2.000  0.5630  0.0885 -0.4015
13335TIP3    H161496   1.055   5.432   2.064 -0.2817 -0.1032 -0.2556
13335TIP3    H261497   1.155   5.348   1.988  0.7427  1.2065 -0.4035
13336TIP3   OH261498   5.309   5.945   3.081  0.0702 -0.1807  0.3887
13336TIP3    H161499   5.393   5.977   3.113  0.7268 -1.2807 -0.1651
13336TIP3    H261500   5.255   5.936   3.159  1.4074 -2.1584  1.1661
13337TIP3   OH261501   5.939   6.378  12.364 -0.2454 -0.1598 -0.7470
13337TIP3    H161502   5.973   6.447  12.307  0.9779 -0.0139  0.1061
13337TIP3    H261503   5.968   6.403  12.451 -1.0644 -0.9941 -0.2196
13338TIP3   OH261504   3.315   6.183   0.466 -0.6475  0.6599 -0.1589
13338TIP3    H161505   3.334   6.090   0.453 -2.4720  0.4185 -1.6367
13338TIP3    H261506   3.219   6.189   0.462 -0.6621  2.4297  1.3612
13339TIP3   OH261507   0.177   3.882   5.883 -0.1815 -0.1752  0.2683
13339TIP3    H161508   0.084   3.863   5.868  0.2900 -1.9710 -0.7369
13339TIP3    H261509   0.186   3.886   5.978 -0.8291 -2.8037  0.5166
13340TIP3   OH261510   1.241   0.067   0.671  0.0823 -0.0680 -0.1665
13340TIP3    H161511   1.267  -0.023   0.689  0.4952  0.2701  1.1069
13340TIP3    H261512   1.159   0.079   0.719 -0.1388  0.1434 -0.5897
13341TIP3   OH261513   5.498   6.183  11.086  0.4938  0.3188  0.0036
13341TIP3    H161514   5.480   6.183  10.992  2.4561 -0.3348 -0.4258
13341TIP3    H261515   5.456   6.103  11.118  0.6845  0.0053 -0.5126
13342TIP3   OH261516   5.071   0.352   1.302  0.3950  0.1962  0.0441
13342TIP3    H161517   5.117   0.293   1.243  0.8226  0.0873  0.4766
13342TIP3    H261518   5.077   0.438   1.261 -1.0296 -0.1938 -1.0500
13343TIP3   OH261519   5.963   3.737   6.584 -0.1405 -0.7804 -0.7867
13343TIP3    H161520   5.922   3.820   6.610  0.1192 -1.1308  0.8382
13343TIP3    H261521   6.049   3.762   6.552  0.7912 -0.5376  1.6969
13344TIP3   OH261522   3.741   1.241  16.238  0.0609 -0.1459  0.0961
13344TIP3    H161523   3.823   1.209  16.200 -0.8020 -1.7015 -0.5533
13344TIP3    H261524   3.760   1.251  16.331  0.9403 -0.6782 -0.0186
13345TIP3   OH261525   4.289   3.491   1.828  0.4188 -0.2569 -0.0231
13345TIP3    H161526   4.217   3.464   1.886  0.4495 -1.7160 -0.6071
13345TIP3    H261527   4.343   3.412   1.819 -0.1024 -0.4018 -2.7491
13346TIP3   OH261528   4.813   3.726   2.720 -0.9404  0.6780 -0.7066
13346TIP3    H161529   4.830   3.718   2.626  0.6168  1.3678 -0.5083
13346TIP3    H261530   4.731   3.776   2.725 -1.2316  0.3233 -1.6951
13347TIP3   OH261531   4.949   0.340  13.510  0.0574 -0.4373 -0.1153
13347TIP3    H161532   4.862   0.330  13.549 -1.0728 -0.7213 -2.4988
13347TIP3    H261533   4.932   0.375  13.423  2.3913 -0.1235 -0.5087
13348TIP3   OH261534   2.480   0.597  14.439  0.3503  0.1750  0.5969
13348TIP3    H161535   2.522   0.608  14.524  0.8206  2.3708  0.1633
13348TIP3    H261536   2.441   0.683  14.421  1.5695  0.2787 -2.0491
13349TIP3   OH261537   5.143   2.835  11.350 -0.5140  0.5319  0.6841
13349TIP3    H161538   5.090   2.775  11.298 -0.2033  0.4880  0.4137
13349TIP3    H261539   5.142   2.917  11.299  1.1445  0.0152 -0.2523
13350TIP3   OH261540   0.324   1.956  11.408 -0.4376  0.0405 -0.3464
13350TIP3    H161541   0.312   2.050  11.422  1.1756  0.0602  1.1926
13350TIP3    H261542   0.376   1.950  11.328  1.5619  0.6338  0.8370
13351TIP3   OH261543   4.605   6.148   3.866 -0.6046  0.3649  0.4306
13351TIP3    H161544   4.529   6.092   3.853  0.6098 -1.3614  0.5537
13351TIP3    H261545   4.624   6.184   3.780 -1.4544  0.7083  0.3737
13352TIP3   OH261546   3.843   6.630  16.146 -0.1852  0.6243  0.2882
13352TIP3    H161547   3.903   6.684  16.197  0.9977  1.5171 -1.8894
13352TIP3    H261548   3.898   6.562  16.108 -0.8438  0.4919 -0.4529
13353TIP3   OH261549   3.595   4.278   0.948 -0.0721 -0.5770 -0.3521
13353TIP3    H161550   3.562   4.365   0.974 -4.0845 -2.2660  1.0869
13353TIP3    H261551   3.599   4.229   1.030 -0.7828 -2.5274 -1.4180
13354TIP3   OH261552   1.252   2.575   0.224 -0.3428  0.6321  0.4295
13354TIP3    H161553   1.160   2.560   0.244 -0.6967  2.8520  0.7350
13354TIP3    H261554   1.297   2.565   0.309 -0.2442 -0.6168  0.2497
13355TIP3   OH261555   0.286   4.304   0.500 -0.1613  0.3598  0.4716
13355TIP3    H161556   0.353   4.371   0.492  0.5653 -0.4855 -0.9911
13355TIP3    H261557   0.335   4.223   0.514 -0.9832 -0.0088  1.3422
13356TIP3   OH261558   1.686   6.533  14.952 -0.1879  0.3676  0.7183
13356TIP3    H161559   1.757   6.580  14.907 -1.0367 -0.2614 -1.3933
13356TIP3    H261560   1.611   6.593  14.948 -0.5661 -0.1204  0.3037
13357TIP3   OH261561   3.022   3.233   2.914  0.1363  0.9127  0.7768
13357TIP3    H161562   3.094   3.263   2.969  3.2455  0.7609 -2.8592
13357TIP3    H261563   3.038   3.139   2.903  0.8087  1.2786 -1.8835
13358TIP3   OH261564   1.210   1.788  11.974 -0.3966 -0.1770 -0.6979
13358TIP3    H161565   1.253   1.859  11.927  1.7691  0.5814  2.1261
13358TIP3    H261566   1.259   1.710  11.948 -1.2643 -0.3159 -2.0140
13359TIP3   OH261567   0.254   1.907   5.293 -0.3262  0.7595  0.5972
13359TIP3    H161568   0.222   1.946   5.375 -1.7235  1.2547 -0.1432
13359TIP3    H261569   0.330   1.960   5.269 -0.2041  0.9190  1.3134
13360TIP3   OH261570   3.161   5.468  11.304  0.4625  0.3004 -0.2076
13360TIP3    H161571   3.179   5.444  11.395 -0.0175  0.0192 -0.1839
13360TIP3    H261572   3.117   5.391  11.267  2.3465 -0.3483 -1.2232
13361TIP3   OH261573   2.145   4.961  14.971 -0.3682 -0.1125 -0.2359
13361TIP3    H161574   2.140   4.957  15.066 -0.3533  2.1275 -0.0896
13361TIP3    H261575   2.058   4.934  14.941 -0.2307 -1.2717  0.3574
13362TIP3   OH261576   5.348   5.200   0.200  0.0759  0.0877  0.7013
13362TIP3    H161577   5.411   5.128   0.191 -0.2350 -0.1346  0.2921
13362TIP3    H261578   5.264   5.157   0.213 -0.0214  0.3861  1.0873
13363TIP3   OH261579   6.335   2.254   0.327  0.0469 -0.0741  0.2040
13363TIP3    H161580   6.398   2.196   0.369  0.2405 -0.1343 -0.1675
13363TIP3    H261581   6.285   2.291   0.399  1.3999  1.0393  0.6145
13364TIP3   OH261582   6.051   4.744   1.645  0.4228  0.5028 -0.1996
13364TIP3    H161583   5.961   4.722   1.619 -0.2725  0.1031  2.2952
13364TIP3    H261584   6.042   4.776   1.735  2.7326  1.0778 -0.1307
13365TIP3   OH261585   2.297   0.350  14.535  0.5980 -0.3227  0.8006
13365TIP3    H161586   2.250   0.351  14.618  1.3343  0.2693  1.2257
13365TIP3    H261587   2.323   0.441  14.521  1.4844 -0.6111  0.5144
13366TIP3   OH261588   2.996   6.029   3.806  0.3604 -0.1044 -0.1862
13366TIP3    H161589   2.996   6.015   3.711  1.3423 -0.0416 -0.2005
13366TIP3    H261590   3.070   5.977   3.838  0.1777  0.0603  0.5245
13367TIP3   OH261591   3.476   4.300   0.018  0.3933 -0.0604 -0.1474
13367TIP3    H161592   3.385   4.279   0.040  0.3180  0.9940  0.6051
13367TIP3    H261593   3.478   4.295  -0.078 -0.4203 -0.2463 -0.1670
13368TIP3   OH261594   2.015   3.807  13.606  0.3281  0.3231  0.3560
13368TIP3    H161595   1.956   3.747  13.652  0.1820  0.7823  0.7834
13368TIP3    H261596   2.102   3.787  13.640  0.9308 -2.3195 -2.3024
13369TIP3   OH261597   4.390   1.795   3.189 -0.1374 -0.1691 -0.1271
13369TIP3    H161598   4.354   1.884   3.187  1.3609  0.4470 -0.9253
13369TIP3    H261599   4.372   1.765   3.278 -0.8269  0.8541  0.1063
13370TIP3   OH261600   1.255   3.213   4.417 -0.1259 -0.2659 -0.3937
13370TIP3    H161601   1.181   3.155   4.435  0.8097 -0.8080  2.2125
13370TIP3    H261602   1.266   3.209   4.322 -1.7495 -2.2637 -0.5714
13371TIP3   OH261603   0.686   3.083  16.460  0.0869  0.1772  0.2414
13371TIP3    H161604   0.757   3.118  16.514 -0.4924  2.1706 -0.2301
13371TIP3    H261605   0.630   3.036  16.522 -0.5297  2.3486  1.4347
13372TIP3   OH261606   1.475   2.850  13.602  0.0938 -0.7248 -0.4355
13372TIP3    H161607   1.488   2.847  13.696 -0.8630  0.1753 -0.2678
13372TIP3    H261608   1.555   2.892  13.568 -0.4604  0.8658  0.1781
13373TIP3   OH261609   5.272   2.586  15.300  0.1609  0.3620  0.1630
13373TIP3    H161610   5.337   2.546  15.358  0.5497  0.9646  0.1512
13373TIP3    H261611   5.233   2.512  15.253  0.6329 -0.0298  0.3790
13374TIP3   OH261612   4.029   2.640   6.211 -0.5521 -0.7569 -0.1356
13374TIP3    H161613   4.016   2.598   6.296  0.6127 -1.6064 -0.3512
13374TIP3    H261614   4.101   2.591   6.171 -1.7220 -1.0042 -2.0390
13375TIP3   OH261615   0.252   4.510   3.201 -0.8339  0.2813  0.1949
13375TIP3    H161616   0.178   4.560   3.166 -1.0345  0.0553  0.2940
13375TIP3    H261617   0.296   4.571   3.261  0.9763  1.5577 -2.2423
13376TIP3   OH261618   6.124   1.201   2.853  0.0088 -0.5712 -0.2921
13376TIP3    H161619   6.057   1.140   2.823  0.5370 -0.7942 -1.0460
13376TIP3    H261620   6.093   1.287   2.824 -1.0858 -0.3652  1.3845
13377TIP3   OH261621   4.741   1.181  11.287 -0.1878  0.2654  0.1539
13377TIP3    H161622   4.694   1.263  11.301 -0.9482 -0.4159  1.7827
13377TIP3    H261623   4.672   1.116  11.274  0.3579 -0.4255  0.6507
13378TIP3   OH261624   2.602   2.610  11.909  0.1574 -0.0090 -0.0231
13378TIP3    H161625   2.532   2.626  11.972  0.1591  0.8612 -0.2218
13378TIP3    H261626   2.646   2.695  11.901  0.5007 -0.2528 -0.7809
13379TIP3   OH261627   2.440   2.855   5.418  0.3973 -0.2785 -0.0960
13379TIP3    H161628   2.476   2.802   5.490 -0.4408  0.1017  0.6211
13379TIP3    H261629   2.363   2.898   5.456 -1.1248 -1.4221 -1.7029
13380TIP3   OH261630   2.595   5.849  12.180  0.1893 -0.3206 -0.3258
13380TIP3    H161631   2.567   5.900  12.256 -0.0554  0.0185 -0.6434
13380TIP3    H261632   2.682   5.883  12.159  0.0442 -0.0623 -0.5113
13381TIP3   OH261633   3.051   1.956  13.982  0.4485 -0.4316  0.0192
13381TIP3    H161634   2.969   1.993  13.950  0.5736  1.3052  1.5381
13381TIP3    H261635   3.091   2.027  14.033  2.0120 -1.8351  0.8345
13382TIP3   OH261636   3.332   1.489  12.961 -0.0850  0.5756  0.1685
13382TIP3    H161637   3.413   1.511  13.007  0.8217 -0.3701 -0.8839
13382TIP3    H261638   3.352   1.506  12.869 -1.0036  0.1237 -0.1271
13383TIP3   OH261639   2.857   4.081   0.816 -0.2369  0.1663 -0.1463
13383TIP3    H161640   2.934   4.119   0.772  0.6226 -0.4654  0.7765
13383TIP3    H261641   2.893   4.017   0.877 -1.5966 -1.8835 -1.3540
13384TIP3   OH261642   1.793   1.932   2.747 -0.0437 -0.3544 -0.1253
13384TIP3    H161643   1.868   1.987   2.724 -0.4508  0.3099  0.0972
13384TIP3    H261644   1.727   1.952   2.680 -0.0439 -0.9024 -0.2946
13385TIP3   OH261645   2.474   2.103   4.169  0.3774  0.1025 -0.0245
13385TIP3    H161646   2.405   2.147   4.119  0.1635 -0.8536 -0.6102
13385TIP3    H261647   2.429   2.060   4.241  0.4200 -0.1334 -0.1365
13386TIP3   OH261648   3.058   5.935   4.790  0.2291  0.5321 -0.1940
13386TIP3    H161649   2.994   5.933   4.719 -0.8758 -0.0835  0.8005
13386TIP3    H261650   3.014   5.982   4.861  1.0997  0.6130  0.3054
13387TIP3   OH261651   0.928   2.770   1.675  0.0482  0.3131  0.3106
13387TIP3    H161652   0.881   2.812   1.603  0.2036 -0.1443 -0.0613
13387TIP3    H261653   1.020   2.781   1.654  0.0981 -1.1577 -0.3673
13388TIP3   OH261654   5.695   5.373   0.577 -0.2032 -0.0233 -0.0612
13388TIP3    H161655   5.697   5.282   0.607  0.1563  0.5968  1.9642
13388TIP3    H261656   5.660   5.369   0.488  0.1468 -2.1646 -0.1452
13389TIP3   OH261657   5.605   1.953  15.021  0.9140 -0.3904  0.4023
13389TIP3    H161658   5.596   1.888  14.951 -1.4111  0.3311 -0.0711
13389TIP3    H261659   5.636   2.032  14.976  1.7450 -0.5927  0.6159
13390TIP3   OH261660   1.471   1.119  15.783 -0.2172 -0.5532 -0.4539
13390TIP3    H161661   1.538   1.159  15.729 -0.7767 -1.2632 -1.7012
13390TIP3    H261662   1.413   1.074  15.722 -1.5464 -0.3960  0.6213
13391TIP3   OH261663   4.213   4.470   2.589  0.1838 -0.3346 -0.3051
13391TIP3    H161664   4.180   4.380   2.583  1.3452 -0.7842 -0.2197
13391TIP3    H261665   4.286   4.472   2.527 -0.3562  0.7968 -0.9162
13392TIP3   OH261666   5.086   2.071   5.347  0.4772  0.4757 -0.0606
13392TIP3    H161667   5.028   1.995   5.345 -1.8405  2.1477 -1.4564
13392TIP3    H261668   5.168   2.040   5.309 -0.4260 -1.2884 -0.6637
13393TIP3   OH261669   2.584   0.967   2.950  0.0690  0.0970  0.5068
13393TIP3    H161670   2.617   1.018   3.024 -0.4693  1.6299 -0.2647
13393TIP3    H261671   2.662   0.943   2.901  0.3441  0.0061  0.9825
13394TIP3   OH261672   3.479   6.250   2.504  1.1652 -0.1921  0.2330
13394TIP3    H161673   3.455   6.229   2.414  2.1276  0.1698 -0.1137
13394TIP3    H261674   3.568   6.283   2.498  1.2319 -0.1532  1.3212
13395TIP3   OH261675   1.463   3.310   2.794  0.3215 -0.3454  0.2554
13395TIP3    H161676   1.392   3.362   2.756  1.2611  1.3550  0.7300
13395TIP3    H261677   1.514   3.373   2.845  1.6122 -1.7194  0.7209
13396TIP3   OH261678   1.935   4.468  16.775 -0.2184 -0.3550  0.2980
13396TIP3    H161679   1.906   4.513  16.854  1.4597  1.3751  0.0046
13396TIP3    H261680   2.012   4.418  16.802 -0.2731 -0.6141 -0.0158
13397TIP3   OH261681   1.495   2.589   6.045 -0.4081 -0.1044  0.7524
13397TIP3    H161682   1.588   2.576   6.064  0.2619  1.6932 -0.9476
13397TIP3    H261683   1.464   2.644   6.118  0.4792  1.2117  0.1918
13398TIP3   OH261684   2.534   6.324   4.348  0.0386 -0.1746 -0.2272
13398TIP3    H161685   2.624   6.307   4.373  0.1977 -2.1706 -1.8884
13398TIP3    H261686   2.539   6.395   4.284  0.2552  0.6032  0.6254
13399TIP3   OH261687   5.351   3.647   6.251  0.0930 -0.0618  0.2879
13399TIP3    H161688   5.418   3.690   6.304  1.8597  0.3463 -2.1068
13399TIP3    H261689   5.347   3.558   6.285 -0.1883  0.6533  2.2545
13400TIP3   OH261690   3.471   5.952  11.541  0.3755  0.0947 -0.1371
13400TIP3    H161691   3.500   5.973  11.453 -0.7648 -0.2061 -0.6023
13400TIP3    H261692   3.407   6.021  11.562 -0.1638 -0.4477  0.0184
13401TIP3   OH261693   4.400   0.103  13.438 -0.0306  0.4045  0.4404
13401TIP3    H161694   4.316   0.111  13.483 -0.1455  0.6565  0.1824
13401TIP3    H261695   4.391   0.021  13.388  0.2781 -0.1385  1.2433
13402TIP3   OH261696   4.208   2.505   5.970 -0.2545  0.6942  0.4353
13402TIP3    H161697   4.268   2.579   5.960 -1.7929  1.8267 -0.8843
13402TIP3    H261698   4.264   2.428   5.957  0.6362  1.7367 -3.0982
13403TIP3   OH261699   4.938   5.580  16.240  0.2980 -0.1202 -0.0466
13403TIP3    H161700   4.995   5.504  16.227 -0.6256 -0.7105 -0.7541
13403TIP3    H261701   4.876   5.576  16.168  0.1065  1.2062  0.0226
13404TIP3   OH261702   4.702   2.586  13.889  0.1240 -0.7462 -0.5204
13404TIP3    H161703   4.740   2.594  13.977  0.1832 -4.0731 -0.1307
13404TIP3    H261704   4.774   2.610  13.831 -0.1903  2.4510  0.2240
13405TIP3   OH261705   3.989   0.720   3.214  0.3600  0.1390 -0.5605
13405TIP3    H161706   4.005   0.801   3.263 -0.1767 -0.4231  0.5872
13405TIP3    H261707   3.919   0.677   3.263 -0.0942 -0.5191 -1.7640
13406TIP3   OH261708   0.246   2.518   4.810  0.3092 -0.0878 -0.2421
13406TIP3    H161709   0.191   2.536   4.734 -1.3547 -1.2851  0.6232
13406TIP3    H261710   0.268   2.604   4.845 -0.0968  0.4331 -1.2338
13407TIP3   OH261711   2.452   4.970   1.646  0.2280  0.4062 -0.0764
13407TIP3    H161712   2.393   4.932   1.581  2.1227 -1.1995 -0.9730
13407TIP3    H261713   2.507   5.031   1.596  1.9907 -1.1630 -0.1512
13408TIP3   OH261714   4.000   6.489  15.269 -0.3697  0.5809  0.5143
13408TIP3    H161715   4.055   6.565  15.288 -1.0485  0.9582  1.0629
13408TIP3    H261716   4.043   6.416  15.314  0.1099  0.7067  0.2617
13409TIP3   OH261717   0.664   0.088   4.947 -0.4549  0.2247  0.6289
13409TIP3    H161718   0.680  -0.001   4.916 -0.7781 -0.1562  1.5292
13409TIP3    H261719   0.601   0.124   4.885 -0.2926 -0.1629  0.2371
13410TIP3   OH261720   5.521   5.121   5.958 -0.2509 -0.3381 -0.2113
13410TIP3    H161721   5.562   5.190   5.905  0.8717 -1.8274 -1.3893
13410TIP3    H261722   5.506   5.162   6.043  0.1217  1.4303 -0.9452
13411TIP3   OH261723   6.211   2.409  10.354 -0.1085  0.1239 -0.0853
13411TIP3    H161724   6.239   2.500  10.348  2.8000 -0.6132  0.7987
13411TIP3    H261725   6.123   2.413  10.392  0.5200  2.4926  1.2982
13412TIP3   OH261726   5.874   3.293   5.980 -0.0537 -0.4464 -0.1587
13412TIP3    H161727   5.881   3.309   6.074  0.6426 -2.1420  0.1192
13412TIP3    H261728   5.933   3.219   5.964  2.3700  1.7822 -2.5010
13413TIP3   OH261729   2.334   4.680   4.232 -0.0630 -0.0583 -0.4388
13413TIP3    H161730   2.296   4.693   4.145  1.5995  1.4188 -1.0065
13413TIP3    H261731   2.427   4.664   4.216  0.1459 -0.4754  1.0402
13414TIP3   OH261732   2.303   1.975  17.102 -0.0019 -0.2854  0.6917
13414TIP3    H161733   2.364   2.042  17.132 -0.2588  0.1810  0.2065
13414TIP3    H261734   2.227   1.983  17.160 -1.0483  1.4906 -0.7941
13415TIP3   OH261735   6.250   0.410  10.368 -0.1860 -0.6845  0.1831
13415TIP3    H161736   6.284   0.366  10.446  0.0085 -0.0203  0.4850
13415TIP3    H261737   6.172   0.457  10.399 -1.0989 -1.7800 -0.3952
13416TIP3   OH261738   4.740   4.574   6.229 -0.1386 -0.5489  0.5432
13416TIP3    H161739   4.752   4.505   6.163  0.4874  0.7025 -0.7150
13416TIP3    H261740   4.686   4.534   6.297 -2.5899 -1.3351 -1.6881
13417TIP3   OH261741   0.451   6.218  11.506 -0.4173  0.3800 -0.5054
13417TIP3    H161742   0.404   6.232  11.589  1.5025 -2.4997  1.2184
13417TIP3    H261743   0.395   6.260  11.440 -2.5944  1.8334  2.0579
13418TIP3   OH261744   3.909   2.515   5.673  0.3857 -0.3325  0.2376
13418TIP3    H161745   3.890   2.548   5.760  0.9035  0.2186  0.1483
13418TIP3    H261746   3.989   2.561   5.646 -0.9840  1.2252 -1.4411
13419TIP3   OH261747   4.825   0.595   3.160 -0.7728 -0.2447  0.5023
13419TIP3    H161748   4.907   0.636   3.191 -0.8538 -0.1156  0.5476
13419TIP3    H261749   4.786   0.662   3.104 -0.9610 -0.2184  0.6638
13420TIP3   OH261750   4.062   1.532   3.430  0.5089 -0.2334  0.1951
13420TIP3    H161751   4.014   1.583   3.365  0.7381  1.7134  1.4561
13420TIP3    H261752   4.103   1.598   3.486  0.9702 -1.8337  1.8392
13421TIP3   OH261753   6.777   0.194   1.871  0.1199  0.0395  0.0140
13421TIP3    H161754   6.808   0.170   1.958 -0.7940  0.4654  0.4622
13421TIP3    H261755   6.751   0.111   1.831 -2.1574  0.1217  1.2167
13422TIP3   OH261756   0.108   3.060   4.804 -0.3205  0.3913 -0.3586
13422TIP3    H161757   0.193   3.104   4.800 -0.5604  0.9461  0.3760
13422TIP3    H261758   0.057   3.112   4.867 -0.2009 -1.6352  1.5333
13423TIP3   OH261759   6.714   1.043  12.637  0.1759  0.0351  0.1902
13423TIP3    H161760   6.718   1.053  12.542 -0.4596 -0.9045  0.0438
13423TIP3    H261761   6.737   1.129  12.672 -0.0604  0.5196 -0.8188
13424TIP3   OH261762   1.652   2.471  11.691 -0.8619 -0.1289 -0.3732
13424TIP3    H161763   1.681   2.430  11.610 -0.0704 -0.5592  0.1154
13424TIP3    H261764   1.651   2.565  11.672 -0.7452 -0.2315 -0.8914
13425TIP3   OH261765   3.419   3.306  14.880 -0.3884  0.1968  0.3253
13425TIP3    H161766   3.419   3.401  14.876 -2.0397  0.2259  0.5876
13425TIP3    H261767   3.506   3.283  14.914  0.5496  1.5202 -1.0311
13426TIP3   OH261768   6.821   1.415   5.574 -0.0040 -0.1661 -0.6004
13426TIP3    H161769   6.855   1.475   5.640  0.3687 -0.3120 -0.6543
13426TIP3    H261770   6.751   1.463   5.531 -0.9822 -0.4649  0.6291
13427TIP3   OH261771   0.669   4.910  13.766  0.1185 -0.0156  0.1816
13427TIP3    H161772   0.724   4.854  13.821 -0.4186 -0.4027  0.3358
13427TIP3    H261773   0.711   4.996  13.770 -0.7562  0.4035  2.5371
13428TIP3   OH261774   1.636   1.306   6.618 -0.4853 -0.1523 -0.5386
13428TIP3    H161775   1.573   1.344   6.556  0.2798  2.2199  0.0371
13428TIP3    H261776   1.680   1.238   6.568 -2.5019 -0.9213 -1.3958
13429TIP3   OH261777   6.093   2.376  14.414  0.3454  0.3554  0.0434
13429TIP3    H161778   6.168   2.317  14.420  0.6157  0.5980 -0.8577
13429TIP3    H261779   6.117   2.439  14.346  0.4287  2.0680  1.6064
13430TIP3   OH261780   3.283   4.828   3.508 -0.0237  0.2542 -0.5228
13430TIP3    H161781   3.302   4.898   3.445 -1.7961  1.5635  0.3118
13430TIP3    H261782   3.190   4.837   3.527  0.3423 -0.3870  1.9254
13431TIP3   OH261783   4.401   5.255  16.159 -0.6611  0.0435  0.0059
13431TIP3    H161784   4.446   5.251  16.075 -1.2718  0.9495 -0.3792
13431TIP3    H261785   4.361   5.341  16.161 -1.1968 -0.2078  0.9553
13432TIP3   OH261786   6.227   4.280  15.962  0.4581  0.3349 -0.1551
13432TIP3    H161787   6.186   4.195  15.944 -0.1127  0.7335 -0.7351
13432TIP3    H261788   6.210   4.332  15.884  2.5811  0.3296 -0.6853
13433TIP3   OH261789   2.508   0.753  17.088  0.3197  0.2417  0.0928
13433TIP3    H161790   2.577   0.693  17.063 -0.1867 -1.0686  1.6749
13433TIP3    H261791   2.430   0.722  17.042  0.4651  0.8825 -0.6043
13434TIP3   OH261792   2.567   1.876  15.080  0.0254 -0.3978 -0.5839
13434TIP3    H161793   2.515   1.948  15.115  0.0572 -2.0658  3.4307
13434TIP3    H261794   2.508   1.801  15.082  1.1998 -1.3458 -0.4574
13435TIP3   OH261795   1.766   3.374  15.603  0.2308 -0.3467  0.5041
13435TIP3    H161796   1.695   3.331  15.650  0.7400 -0.3307  1.3037
13435TIP3    H261797   1.762   3.337  15.515 -0.4129 -0.7625  0.6993
13436TIP3   OH261798   0.428   3.359   2.969  0.0412 -0.3389 -0.0424
13436TIP3    H161799   0.373   3.281   2.963  0.1887 -0.4386 -0.1072
13436TIP3    H261800   0.408   3.396   3.055  0.0907 -0.5378  0.0550
13437TIP3   OH261801   1.797   4.273   5.541  0.4860  0.1279 -0.4202
13437TIP3    H161802   1.825   4.281   5.632 -1.6500 -0.7735  0.3711
13437TIP3    H261803   1.848   4.340   5.495  1.5805  0.6395  1.4214
13438TIP3   OH261804   1.201   2.780   5.993  0.3936  0.2250 -0.1144
13438TIP3    H161805   1.287   2.750   6.023 -0.1367 -0.9055  0.3252
13438TIP3    H261806   1.184   2.729   5.914  0.6108  1.2607 -0.8411
13439TIP3   OH261807   1.711   4.652   0.060 -0.2190  0.0001 -0.9300
13439TIP3    H161808   1.659   4.592   0.114 -2.0679  0.6015 -1.9399
13439TIP3    H261809   1.755   4.596  -0.003  0.7973 -0.5684  0.2390
13440TIP3   OH261810   0.372   0.441   5.562 -0.0915 -0.3179  0.2917
13440TIP3    H161811   0.315   0.367   5.586 -0.2629  0.4348  2.4304
13440TIP3    H261812   0.457   0.400   5.543 -0.7988 -1.2682 -0.9718
13441TIP3   OH261813   4.721   5.951   0.669  0.2198  0.0642  0.0718
13441TIP3    H161814   4.644   5.971   0.723  2.1217 -0.2699  3.1110
13441TIP3    H261815   4.775   6.030   0.674 -0.5753  1.0684 -3.6317
13442TIP3   OH261816   1.695   5.840  14.231  0.2523 -0.5284 -0.6480
13442TIP3    H161817   1.692   5.819  14.324 -0.1437 -2.0480 -0.9797
13442TIP3    H261818   1.695   5.755  14.187  0.7531  0.1563 -2.0348
13443TIP3   OH261819   3.022   5.159   0.341  0.3494  0.3971 -0.6391
13443TIP3    H161820   2.979   5.206   0.269  0.9312  2.9670  0.5707
13443TIP3    H261821   3.115   5.164   0.320  0.3646 -1.8462 -1.3488
13444TIP3   OH261822   0.132   0.108   5.774 -0.5611  0.7808  0.3317
13444TIP3    H161823   0.157   0.160   5.698 -0.6111 -1.6928 -1.4667
13444TIP3    H261824   0.215   0.090   5.818 -0.2621  0.3767 -0.3890
13445TIP3   OH261825   5.950   3.308   1.049 -0.5192  0.1307  0.0197
13445TIP3    H161826   5.880   3.369   1.025  0.0213  0.6198 -0.3464
13445TIP3    H261827   6.022   3.364   1.078 -0.3077 -0.3694  0.4817
13446TIP3   OH261828   6.538   0.468   4.830 -1.0528 -0.2108 -0.2670
13446TIP3    H161829   6.510   0.537   4.890 -3.0853 -2.2429  1.3323
13446TIP3    H261830   6.573   0.399   4.887 -0.2743 -1.0108 -1.6690
13447TIP3   OH261831   2.429   3.699   4.018  0.8680 -0.5295  1.1141
13447TIP3    H161832   2.394   3.612   4.000 -2.7519  0.4527  2.4915
13447TIP3    H261833   2.428   3.744   3.933  0.6569 -1.1672  0.7756
13448TIP3   OH261834   4.502   4.353   4.981  0.2915  0.3273  0.2104
13448TIP3    H161835   4.417   4.397   4.985  0.3331  0.4047  0.2354
13448TIP3    H261836   4.545   4.376   5.063  0.3355  0.2851  0.1992
13449TIP3   OH261837   4.388   2.620   4.232 -0.6921  0.8661  0.4416
13449TIP3    H161838   4.402   2.704   4.187 -1.7267  1.1347  0.5779
13449TIP3    H261839   4.344   2.644   4.314 -0.9316  0.2013  0.5128
13450TIP3   OH261840   4.548   2.554   0.633 -0.1931  0.7341  0.1766
13450TIP3    H161841   4.618   2.526   0.573  1.1040 -0.7071  2.2402
13450TIP3    H261842   4.572   2.643   0.657 -1.9914  2.2881 -3.0820
13451TIP3   OH261843   6.282   4.674  12.981 -0.2590 -0.4762  0.7710
13451TIP3    H161844   6.377   4.666  12.979 -0.3239 -1.3664 -0.6442
13451TIP3    H261845   6.265   4.763  12.950  0.1050 -0.3174  1.0222
13452TIP3   OH261846   4.236   5.630   4.117 -0.1591 -0.0887 -0.2738
13452TIP3    H161847   4.188   5.623   4.034 -0.3582 -0.0313 -0.1629
13452TIP3    H261848   4.226   5.544   4.158 -2.2418  0.6289  0.8888
13453TIP3   OH261849   1.278   1.150   4.279 -0.1289  0.5586 -0.0039
13453TIP3    H161850   1.229   1.143   4.197 -0.7322 -0.3404  0.4151
13453TIP3    H261851   1.270   1.063   4.319  0.4104  0.8985  0.8665
13454TIP3   OH261852   5.322   0.267   5.161 -0.2304 -0.1111  0.0639
13454TIP3    H161853   5.248   0.214   5.191 -1.6200 -0.9128 -4.1130
13454TIP3    H261854   5.399   0.212   5.175 -0.5330 -0.0174  2.7248
13455TIP3   OH261855   1.711   3.216   1.581 -0.1105 -0.4497  0.0352
13455TIP3    H161856   1.680   3.154   1.515 -1.0954 -1.0702  1.0435
13455TIP3    H261857   1.701   3.302   1.540  0.1867 -0.8786 -0.9624
13456TIP3   OH261858   5.795   5.613  15.069 -0.3612  0.3170  0.0354
13456TIP3    H161859   5.734   5.681  15.100  1.1190  1.8480 -0.2273
13456TIP3    H261860   5.877   5.660  15.055  0.5449 -1.4339 -0.8309
13457TIP3   OH261861   1.019   4.523   0.947 -0.3728 -0.2923 -0.0494
13457TIP3    H161862   1.019   4.588   1.018 -2.0947 -0.4252  0.1334
13457TIP3    H261863   0.953   4.459   0.975 -0.7339 -0.6051 -1.5381
13458TIP3   OH261864   3.246   2.585   3.390  0.1967  0.8032 -0.1834
13458TIP3    H161865   3.232   2.584   3.485 -3.2620  1.1014 -0.5580
13458TIP3    H261866   3.288   2.501   3.371 -1.7556 -0.6159  1.3654
13459TIP3   OH261867   5.085   3.854   1.523  0.4616 -0.1723 -0.4476
13459TIP3    H161868   5.060   3.832   1.613 -0.1138 -0.4124 -0.6616
13459TIP3    H261869   5.119   3.773   1.487  1.1698  0.0475 -0.2960
13460TIP3   OH261870   2.084   0.923   6.427  0.6134  0.6129  0.4277
13460TIP3    H161871   2.074   1.018   6.428 -1.4295  0.4492  0.9845
13460TIP3    H261872   1.994   0.890   6.427  1.2757 -1.3255 -0.1633
13461TIP3   OH261873   5.689   4.538  11.337 -0.4462  0.7179 -0.1544
13461TIP3    H161874   5.616   4.490  11.376  0.8201 -1.9063 -0.8118
13461TIP3    H261875   5.660   4.629  11.338 -3.2963 -0.0817  0.5092
13462TIP3   OH261876   0.961   0.942   0.788 -0.0892 -0.3502 -0.3878
13462TIP3    H161877   1.057   0.944   0.787 -0.0854  1.1252  0.3068
13462TIP3    H261878   0.935   0.944   0.696  0.5368 -1.4645 -0.6028
13463TIP3   OH261879   3.250   6.007   6.102  0.1293 -0.6703  0.0689
13463TIP3    H161880   3.289   5.948   6.167 -0.4235 -0.9646  0.1358
13463TIP3    H261881   3.166   5.966   6.079  0.5450 -0.8544 -1.2263
13464TIP3   OH261882   0.625   3.800   0.432 -0.8931  0.6328  0.1037
13464TIP3    H161883   0.561   3.843   0.489 -1.2534 -1.9348  1.7887
13464TIP3    H261884   0.690   3.764   0.493  1.1954  1.6006 -1.4552
13465TIP3   OH261885   5.802   2.321  16.832  0.1158 -0.0978 -0.1865
13465TIP3    H161886   5.880   2.330  16.887 -1.3594  1.9021  1.7785
13465TIP3    H261887   5.749   2.256  16.878 -0.5654  0.6287  0.0734
13466TIP3   OH261888   1.265   4.145   1.945  0.1162  0.3548  0.3846
13466TIP3    H161889   1.232   4.071   1.996 -0.0385 -0.6956 -1.1794
13466TIP3    H261890   1.282   4.109   1.858  0.4394  2.0737 -0.3097
13467TIP3   OH261891   2.312   1.185   0.782 -0.2769  0.0085 -0.0981
13467TIP3    H161892   2.303   1.280   0.769  2.8257  0.6371  1.2410
13467TIP3    H261893   2.316   1.149   0.694  0.4441  1.4128 -0.6754
13468TIP3   OH261894   0.755   3.978  11.944 -0.6840  0.3099  0.0321
13468TIP3    H161895   0.697   3.966  12.020  1.1480  1.2875  1.6701
13468TIP3    H261896   0.797   3.893  11.932 -0.7384  0.2404  0.3219
13469TIP3   OH261897   5.270   0.755   1.855  0.0812 -0.4157  0.5866
13469TIP3    H161898   5.316   0.677   1.884  0.2690  0.0449  1.5665
13469TIP3    H261899   5.209   0.724   1.788  1.0970 -1.1868 -0.0060
13470TIP3   OH261900   6.366   1.442   1.483 -0.0665  0.1176  0.8640
13470TIP3    H161901   6.375   1.353   1.516 -0.9454 -0.1092  0.5352
13470TIP3    H261902   6.455   1.470   1.462  0.0049 -2.4811 -3.5877
13471TIP3   OH261903   3.406   1.498   1.510 -0.5054 -0.0195  0.1563
13471TIP3    H161904   3.346   1.449   1.566  0.3756 -1.4604 -0.1072
13471TIP3    H261905   3.493   1.483   1.549 -0.1690  1.1197 -0.1072
13472TIP3   OH261906   4.415   3.005   5.328  0.3658 -0.7237 -0.1421
13472TIP3    H161907   4.375   2.924   5.360 -0.7699  0.0096  0.3617
13472TIP3    H261908   4.343   3.054   5.288  0.8818  0.3482  0.1852
13473TIP3   OH261909   0.993   1.677  17.183  0.1700  0.0031 -0.1840
13473TIP3    H161910   0.961   1.591  17.156 -0.8665  0.3754 -0.1995
13473TIP3    H261911   0.955   1.690  17.270  1.7234 -0.2711  0.5632
13474TIP3   OH261912   3.935   4.039   5.077 -0.2407  0.1311  0.8843
13474TIP3    H161913   3.897   4.124   5.096 -0.2516  0.1312  0.8622
13474TIP3    H261914   4.015   4.059   5.028 -0.4705  0.1133  0.4942
13475TIP3   OH261915   1.365   5.470   3.647  0.1022 -0.1482 -0.4368
13475TIP3    H161916   1.433   5.516   3.697  0.6180 -0.3360 -0.9554
13475TIP3    H261917   1.305   5.438   3.713  0.2339  0.4789 -0.0010
13476TIP3   OH261918   5.219   0.049   0.258 -0.0714  0.0813  0.0130
13476TIP3    H161919   5.239   0.115   0.192  1.1737  1.3532  1.5732
13476TIP3    H261920   5.302   0.006   0.276  0.0388  1.0307  2.0252
13477TIP3   OH261921   1.763   5.430  11.786 -0.1320  0.1897 -0.7696
13477TIP3    H161922   1.711   5.358  11.823  2.9875 -0.9613  1.9145
13477TIP3    H261923   1.828   5.386  11.731  0.8078  1.1071 -0.4082
13478TIP3   OH261924   3.300   3.813   4.731 -0.5665  0.8413  0.4273
13478TIP3    H161925   3.300   3.882   4.797 -0.0325  1.0253  0.2409
13478TIP3    H261926   3.300   3.731   4.781  1.1970  0.9651  0.6868
13479TIP3   OH261927   6.443   5.867  12.013 -0.2939  0.4160  0.0342
13479TIP3    H161928   6.355   5.904  12.017 -0.2603  0.4032  1.5391
13479TIP3    H261929   6.496   5.935  11.972 -1.1011  0.1628 -1.5160
13480TIP3   OH261930   2.324   4.194   3.457 -0.2696 -0.9286 -0.3652
13480TIP3    H161931   2.254   4.251   3.490 -0.8570 -1.1765 -1.1563
13480TIP3    H261932   2.281   4.110   3.443  0.9047 -2.0712  2.2155
13481TIP3   OH261933   2.357   4.900   0.272 -0.7974  0.5338  0.3866
13481TIP3    H161934   2.420   4.951   0.221 -0.5641  0.9345  1.0650
13481TIP3    H261935   2.350   4.947   0.355 -1.0058 -0.2385  0.8107
13482TIP3   OH261936   1.907   1.565  14.565 -0.7219  0.0822 -0.2350
13482TIP3    H161937   1.889   1.608  14.482 -1.2630  0.0032 -0.1634
13482TIP3    H261938   1.824   1.567  14.612 -0.3343  0.4390  0.4535
13483TIP3   OH261939   1.700   3.800   0.340  0.1912 -0.4851  0.3464
13483TIP3    H161940   1.728   3.768   0.255  0.5956  0.1263  0.2459
13483TIP3    H261941   1.606   3.814   0.331 -0.2510 -2.7008  0.7337
13484TIP3   OH261942   2.717   5.491   5.776 -0.0340  0.0284 -0.3100
13484TIP3    H161943   2.704   5.547   5.852  0.4254  0.2444 -0.3855
13484TIP3    H261944   2.745   5.550   5.706 -0.1221 -0.2124 -0.5530
13485TIP3   OH261945   4.145   3.722   3.336 -0.6712 -0.5672 -0.1913
13485TIP3    H161946   4.129   3.674   3.417  1.2057 -1.2090 -0.1488
13485TIP3    H261947   4.094   3.803   3.345 -0.6641 -0.7184  1.5309
13486TIP3   OH261948   1.080   1.069   4.853 -0.2321  0.2977  0.2544
13486TIP3    H161949   1.111   1.150   4.894  0.4324  0.8748 -1.3147
13486TIP3    H261950   0.987   1.065   4.876 -0.3732  1.7245  0.0638
13487TIP3   OH261951   1.352   1.682  12.431  0.8428 -0.3836  0.0809
13487TIP3    H161952   1.427   1.633  12.398  0.0328  0.7711 -4.0399
13487TIP3    H261953   1.383   1.772  12.438  0.1157 -0.0213 -0.9899
13488TIP3   OH261954   0.139   4.599   5.413 -0.0112 -0.4022 -0.0436
13488TIP3    H161955   0.186   4.650   5.347 -0.1560  0.7869  0.7572
13488TIP3    H261956   0.149   4.648   5.494 -0.6030 -1.3808  0.6508
13489TIP3   OH261957   1.997   5.110  14.498  0.0444  0.4780  0.1240
13489TIP3    H161958   2.025   5.187  14.547 -0.5414  1.7642 -1.4799
13489TIP3    H261959   1.915   5.137  14.456  0.2847 -0.7132 -1.1763
13490TIP3   OH261960   4.009   3.115  15.122 -0.6491 -0.2037  0.1612
13490TIP3    H161961   4.027   3.049  15.190 -0.7749  0.1382  0.5301
13490TIP3    H261962   3.984   3.063  15.045  0.4836 -0.6315  0.0705
13491TIP3   OH261963   1.987   6.719  11.272 -0.0354  0.4450 -0.0772
13491TIP3    H161964   1.999   6.768  11.191 -1.2308  0.9408  0.0268
13491TIP3    H261965   2.056   6.653  11.271 -1.0749 -0.7111 -2.3579
13492TIP3   OH261966   2.727   4.909  15.290  0.2065  0.2135 -0.1032
13492TIP3    H161967   2.794   4.882  15.228  1.5538 -0.2642  1.4923
13492TIP3    H261968   2.715   5.003  15.273  3.7382  1.1566  1.6634
13493TIP3   OH261969   1.695   4.260  11.723 -0.4779 -0.4868 -0.3541
13493TIP3    H161970   1.734   4.247  11.809  0.3661 -3.9670 -1.0899
13493TIP3    H261971   1.601   4.266  11.739 -0.1859  1.0173  0.9259
13494TIP3   OH261972   4.269   3.127  12.039  0.7335  0.1796  0.5152
13494TIP3    H161973   4.216   3.048  12.026  1.6112 -0.3855  0.2599
13494TIP3    H261974   4.215   3.184  12.093  0.2899 -0.8310  1.1752
13495TIP3   OH261975   4.388   4.879   1.195  0.3816 -0.0572 -0.3514
13495TIP3    H161976   4.439   4.958   1.211  0.5860 -0.0069 -1.2367
13495TIP3    H261977   4.437   4.810   1.242  0.7002  0.1754 -0.3360
13496TIP3   OH261978   6.667   3.328   4.369  0.3698  0.0357 -0.4608
13496TIP3    H161979   6.718   3.323   4.449  1.5347  1.5832 -1.0572
13496TIP3    H261980   6.731   3.320   4.299 -0.7514 -2.5335 -1.3321
13497TIP3   OH261981   2.288   3.231   4.603  0.2774 -0.2156  0.2645
13497TIP3    H161982   2.363   3.177   4.582 -0.1281 -0.6028 -0.2278
13497TIP3    H261983   2.306   3.267   4.690  0.5922 -1.0609  0.5519
13498TIP3   OH261984   6.677   1.820   4.779 -0.1675 -0.0066  0.0786
13498TIP3    H161985   6.766   1.854   4.771 -0.2117  0.1506  0.2342
13498TIP3    H261986   6.674   1.780   4.867 -0.5456  0.8838  0.4870
13499TIP3   OH261987   3.967   4.694  11.329 -0.5077  0.5754  0.3180
13499TIP3    H161988   3.917   4.749  11.389  0.2092  0.3582  1.1251
13499TIP3    H261989   4.032   4.650  11.384 -1.2216 -1.3008 -0.2333
13500TIP3   OH261990   5.083   0.459  15.598 -0.1416  0.5853 -0.5345
13500TIP3    H161991   5.142   0.534  15.593  0.3922  0.1125 -1.9727
13500TIP3    H261992   5.131   0.387  15.557 -0.9493 -0.3497  0.0898
13501TIP3   OH261993   1.208   3.012  12.579 -0.6481 -0.3716  0.1807
13501TIP3    H161994   1.243   2.974  12.659 -0.9946 -0.5594  0.2489
13501TIP3    H261995   1.284   3.027  12.523 -0.5153 -1.3685  0.0669
13502TIP3   OH261996   4.803   4.281  12.028  0.5598  0.0967  0.5384
13502TIP3    H161997   4.872   4.283  12.094  0.1849 -0.7734  0.9742
13502TIP3    H261998   4.846   4.311  11.948  1.2003  0.4742  1.0116
13503TIP3   OH261999   3.433   4.813   1.122  0.1072 -0.0475 -0.3301
13503TIP3    H162000   3.365   4.835   1.059 -0.2043  1.4109  0.4735
13503TIP3    H262001   3.417   4.871   1.196  0.5740 -1.5643  1.0253
13504TIP3   OH262002   0.061   5.900   0.107  0.0196  0.3575 -0.5569
13504TIP3    H162003   0.002   5.945   0.047 -0.6820 -0.7477 -0.7412
13504TIP3    H262004   0.070   5.958   0.182 -1.0732  0.6792 -0.6624
13505TIP3   OH262005   5.698   6.471  16.849  0.4910 -0.0443 -0.3512
13505TIP3    H162006   5.627   6.524  16.885  0.0862 -1.3448  0.8074
13505TIP3    H262007   5.711   6.401  16.913  3.9555  1.0696  0.3721
13506TIP3   OH262008   4.188   4.868  11.502  0.0561  0.3312 -0.4626
13506TIP3    H162009   4.261   4.930  11.512  1.4608 -1.0465 -1.7408
13506TIP3    H262010   4.130   4.910  11.438 -0.3885  1.4810  0.6372
13507TIP3   OH262011   4.503   1.447   3.654 -0.2956  0.5373 -0.3436
13507TIP3    H162012   4.596   1.444   3.634 -0.6130 -1.4221 -1.7980
13507TIP3    H262013   4.480   1.540   3.648  1.3225  0.9165 -1.1049
13508TIP3   OH262014   6.724   0.558   6.035  0.1537 -0.2052  0.1997
13508TIP3    H162015   6.662   0.536   6.105 -0.8228 -0.8837 -0.8281
13508TIP3    H262016   6.766   0.638   6.064 -0.4241 -0.3252  1.4360
13509TIP3   OH262017   0.204   6.388   3.240 -0.2979 -0.2327 -0.9010
13509TIP3    H162018   0.167   6.470   3.209  0.3694  1.1660  1.6683
13509TIP3    H262019   0.129   6.341   3.277 -0.3093  0.4984  0.0681
13510TIP3   OH262020   4.214   6.653   5.174  0.1590  0.0621 -0.5503
13510TIP3    H162021   4.306   6.638   5.151  0.2225  0.3105 -0.4619
13510TIP3    H262022   4.210   6.635   5.268 -0.2089 -1.4682 -0.8309
13511TIP3   OH262023   0.460   5.856  14.308  0.4445 -0.5877 -0.3264
13511TIP3    H162024   0.475   5.761  14.309 -0.1423 -0.6986 -1.0060
13511TIP3    H262025   0.502   5.886  14.227 -0.2918 -0.4407 -0.6605
13512TIP3   OH262026   1.158   1.665   1.915  0.8342 -0.0372  0.4889
13512TIP3    H162027   1.216   1.713   1.857 -0.2056  0.1981 -0.3829
13512TIP3    H262028   1.127   1.591   1.864  0.4745 -0.2364  0.9788
13513TIP3   OH262029   4.250   5.521   4.850  0.6510  0.2837 -0.0838
13513TIP3    H162030   4.301   5.538   4.929  1.0199  0.5675 -0.3770
13513TIP3    H262031   4.309   5.543   4.778  0.6708 -0.8954 -0.4657
13514TIP3   OH262032   3.894   3.875  13.349  0.0760 -0.8472  0.2419
13514TIP3    H162033   3.858   3.788  13.330 -0.5232 -0.4656 -0.3927
13514TIP3    H262034   3.975   3.857  13.397 -1.7237 -1.7189  3.2112
13515TIP3   OH262035   3.310   6.347  16.246  0.7768 -0.1738  0.1371
13515TIP3    H162036   3.224   6.327  16.210  0.4844 -1.9903  1.6728
13515TIP3    H262037   3.371   6.297  16.191  0.5334 -1.2796  0.8443
13516TIP3   OH262038   1.715   0.590   5.506  0.0615  0.8032  0.5050
13516TIP3    H162039   1.766   0.666   5.535  1.1766  0.3311 -0.1388
13516TIP3    H262040   1.687   0.548   5.588  2.0737  0.2030  0.9377
13517TIP3   OH262041   5.949   3.320   4.297  0.4001  0.1831 -0.2508
13517TIP3    H162042   5.976   3.315   4.205  0.7073  0.1756 -0.1637
13517TIP3    H262043   5.968   3.233   4.332 -1.8503 -0.5739 -0.7349
13518TIP3   OH262044   0.753   3.617  17.137 -0.0628 -0.1659 -0.4895
13518TIP3    H162045   0.695   3.584  17.206  0.3638  0.2149  0.0637
13518TIP3    H262046   0.765   3.542  17.078 -0.1621 -0.6044  0.0370
13519TIP3   OH262047   6.367   5.236  15.627  0.3817 -0.2948  0.0001
13519TIP3    H162048   6.293   5.258  15.684  0.3021 -1.4173  0.3627
13519TIP3    H262049   6.328   5.219  15.542  0.3666  0.2463 -0.1063
13520TIP3   OH262050   2.585   2.049   0.153  0.6429 -0.3427 -0.3569
13520TIP3    H162051   2.574   1.970   0.205  1.8124 -1.0187 -1.0969
13520TIP3    H262052   2.677   2.073   0.164  0.9240 -0.5009 -2.0601
13521TIP3   OH262053   3.079   0.542  10.476  0.0562  0.1804  0.2482
13521TIP3    H162054   3.154   0.483  10.464  0.3863  0.5927  0.2519
13521TIP3    H262055   3.014   0.490  10.521  0.4529 -0.0985  0.5012
13522TIP3   OH262056   3.880   0.394  15.738  0.3844 -0.3953 -0.2616
13522TIP3    H162057   3.933   0.470  15.714  0.9064 -0.6133  0.1600
13522TIP3    H262058   3.921   0.361  15.819 -0.2675 -0.6979 -0.0497
13523TIP3   OH262059   6.178   6.788  12.907  0.2112  0.4383  0.3595
13523TIP3    H162060   6.161   6.859  12.969  0.7633 -0.0828  1.1342
13523TIP3    H262061   6.229   6.829  12.837  0.6809  0.7861  0.8903
13524TIP3   OH262062   1.026   5.889  13.757 -0.1931  0.3202  0.1128
13524TIP3    H162063   1.081   5.870  13.832  1.8373  2.8283 -0.5936
13524TIP3    H262064   0.965   5.816  13.752 -0.0032 -0.2461  3.7752
13525TIP3   OH262065   3.047   5.827   1.508 -0.5423 -0.2049  0.0016
13525TIP3    H162066   3.075   5.780   1.587  2.6401  0.5722 -0.5045
13525TIP3    H262067   3.039   5.918   1.536 -1.9114 -0.2773 -0.0776
13526TIP3   OH262068   2.984   1.909  14.368 -0.1271  0.5935 -0.7668
13526TIP3    H162069   3.039   1.921  14.446 -0.3527 -0.2222 -0.4673
13526TIP3    H262070   2.936   1.991  14.359 -1.8066 -0.0705  1.3207
13527TIP3   OH262071   5.162   4.553   5.101 -0.0388  0.1313 -0.4327
13527TIP3    H162072   5.199   4.473   5.065  0.1779 -0.1009  0.2931
13527TIP3    H262073   5.188   4.552   5.193 -0.1658  0.9607 -0.3857
13528TIP3   OH262074   6.481   6.221  12.521 -0.0871 -0.1603  0.2455
13528TIP3    H162075   6.466   6.192  12.431  0.6645 -0.8259  0.3188
13528TIP3    H262076   6.399   6.262  12.548 -0.2115  0.3139 -0.8415
13529TIP3   OH262077   6.687   4.754   5.813  0.0174 -0.1261 -0.0050
13529TIP3    H162078   6.718   4.805   5.888 -0.3352  1.0393 -0.6187
13529TIP3    H262079   6.596   4.732   5.835 -1.0506  2.6320 -1.2131
13530TIP3   OH262080   2.605   0.639   4.674  0.5065  0.5777  0.9857
13530TIP3    H162081   2.534   0.576   4.663  1.1023  0.1690 -0.7708
13530TIP3    H262082   2.564   0.713   4.718 -1.5237  1.1528 -1.6217
13531TIP3   OH262083   3.047   4.114   3.095 -0.4735 -0.3521 -0.4682
13531TIP3    H162084   3.000   4.040   3.056  0.2508 -1.0135 -0.1249
13531TIP3    H262085   3.132   4.114   3.051  0.2884 -0.9888  0.9084
13532TIP3   OH262086   3.221   4.960   3.228  0.0780 -0.0925  0.1085
13532TIP3    H162087   3.225   5.049   3.193 -2.5664 -0.2611 -0.8585
13532TIP3    H262088   3.264   4.906   3.162  0.4599  0.2828  0.0436
13533TIP3   OH262089   1.896   4.344  13.670 -0.0332 -0.2012  0.2219
13533TIP3    H162090   1.807   4.316  13.649  0.5665 -0.5216 -2.1809
13533TIP3    H262091   1.951   4.270  13.646  1.0212  0.6084  0.0352
13534TIP3   OH262092   5.744   0.419   5.161 -0.2518 -0.1256  0.3524
13534TIP3    H162093   5.686   0.391   5.232 -1.6107 -1.4007 -1.1642
13534TIP3    H262094   5.705   0.499   5.128  0.7539  0.8391  1.4106
13535TIP3   OH262095   5.581   4.553   0.867  0.1142 -0.5734  1.0681
13535TIP3    H162096   5.537   4.613   0.926 -0.2919 -0.5900  0.7839
13535TIP3    H262097   5.598   4.474   0.919  3.6284  0.9137  2.4898
13536TIP3   OH262098   3.176   4.710  12.708 -0.2174  0.1968 -0.2448
13536TIP3    H162099   3.264   4.746  12.717 -0.1973  0.0901 -0.0248
13536TIP3    H262100   3.175   4.634  12.765 -0.7842  0.8073  0.5774
13537TIP3   OH262101   0.493   0.743   3.126  0.1929  0.0536  0.2981
13537TIP3    H162102   0.464   0.768   3.214 -0.9344  1.2120 -0.3699
13537TIP3    H262103   0.429   0.679   3.097 -0.1102  0.5283 -0.1031
13538TIP3   OH262104   3.472   5.935   0.884  0.5070  0.3892  0.3714
13538TIP3    H162105   3.535   5.873   0.848 -0.2554  0.6179 -1.4655
13538TIP3    H262106   3.387   5.890   0.878  0.2510  0.7264  1.2232
13539TIP3   OH262107   2.913   4.348   0.967 -0.4393  0.2878 -0.0175
13539TIP3    H162108   3.001   4.319   0.941 -0.7573  0.7435 -1.7655
13539TIP3    H262109   2.870   4.367   0.884 -2.2788 -0.1533  0.8055
13540TIP3   OH262110   6.290   2.044   5.432 -0.0807 -0.1941  0.7156
13540TIP3    H162111   6.381   2.067   5.414 -0.0203  0.2083  1.4983
13540TIP3    H262112   6.294   1.954   5.465 -0.0898 -0.5609 -0.2302
13541TIP3   OH262113   1.040   4.524   2.402  0.0312  0.6245  0.3188
13541TIP3    H162114   1.071   4.434   2.390  0.3770  0.9512 -1.5683
13541TIP3    H262115   0.949   4.515   2.428 -0.2018 -0.2884 -0.7322
13542TIP3   OH262116   3.650   0.734  15.565  0.2533 -0.4864 -0.4568
13542TIP3    H162117   3.674   0.787  15.641 -1.3403  1.5180 -1.2712
13542TIP3    H262118   3.716   0.754  15.499  1.6802 -2.2829  0.3295
13543TIP3   OH262119   5.893   5.553   6.457  0.2096  0.8038  0.1758
13543TIP3    H162120   5.799   5.540   6.470  0.1696  1.3203  0.4199
13543TIP3    H262121   5.934   5.490   6.516  0.0326 -0.7007 -1.2390
13544TIP3   OH262122   0.594   5.822  11.937  0.2957  0.7577 -0.1183
13544TIP3    H162123   0.605   5.763  12.012  0.9753  1.3233  0.2322
13544TIP3    H262124   0.503   5.852  11.944  0.0797  0.1200 -0.0408
13545TIP3   OH262125   4.440   0.685  16.693 -0.4267 -0.3189 -0.3502
13545TIP3    H162126   4.364   0.728  16.734 -0.9454 -0.1879 -1.4064
13545TIP3    H262127   4.493   0.758  16.660  1.2783 -0.2855  2.1688
13546TIP3   OH262128   1.192   2.829  12.045  0.7118 -0.0603 -0.2453
13546TIP3    H162129   1.229   2.793  12.125 -0.4919  0.0785  0.3911
13546TIP3    H262130   1.097   2.827  12.059  0.4559 -0.4307 -1.8392
13547TIP3   OH262131   4.504   3.294   1.872  0.8598 -0.2779  0.0093
13547TIP3    H162132   4.554   3.222   1.835 -1.0874 -2.7536  1.8589
13547TIP3    H262133   4.514   3.284   1.967 -2.6709 -0.6590  0.4542
13548TIP3   OH262134   0.242   1.472  16.916 -0.1190  0.2627  0.3579
13548TIP3    H162135   0.262   1.467  16.823  0.8693  1.7726  0.4430
13548TIP3    H262136   0.148   1.486  16.920 -0.0808  0.8343 -0.4692
13549TIP3   OH262137   4.353   4.843   4.368 -0.0167 -0.3228  0.2559
13549TIP3    H162138   4.281   4.849   4.305  0.2548  0.3922  0.0039
13549TIP3    H262139   4.347   4.753   4.402 -0.8257 -0.3784  0.0071
13550TIP3   OH262140   6.562   2.951  15.569  0.2718 -0.1049  0.1889
13550TIP3    H162141   6.633   2.901  15.609  0.4938 -1.2670 -1.5679
13550TIP3    H262142   6.482   2.912  15.605  0.4793 -0.0939  0.6743
13551TIP3   OH262143   1.753   6.122   4.641 -0.2460 -0.1013  0.0646
13551TIP3    H162144   1.739   6.171   4.722 -0.3643  0.0614 -0.0542
13551TIP3    H262145   1.711   6.037   4.658 -2.5085  0.7941 -0.7158
13552TIP3   OH262146   6.395   6.530   4.295  0.0134 -0.1869 -0.1391
13552TIP3    H162147   6.434   6.449   4.330  0.0574  0.0612  0.4004
13552TIP3    H262148   6.412   6.526   4.201  2.2674  0.3937  0.1802
13553TIP3   OH262149   6.116   5.255   5.948  0.2689  0.3160 -0.3730
13553TIP3    H162150   6.153   5.172   5.978  0.3980  0.2987 -0.5772
13553TIP3    H262151   6.036   5.265   5.998  0.0938 -0.0855 -0.5715
13554TIP3   OH262152   1.305   3.952  11.493 -0.3528 -0.7854  0.0035
13554TIP3    H162153   1.274   3.918  11.409  1.3848 -1.3720 -0.4398
13554TIP3    H262154   1.305   3.876  11.551 -0.3645 -0.6536  0.1755
13555TIP3   OH262155   3.305   1.849  16.020  0.1398  0.4273 -0.1322
13555TIP3    H162156   3.297   1.944  16.030  0.4237  0.4671 -0.2774
13555TIP3    H262157   3.215   1.819  16.007  0.1715  0.8597 -1.5753
13556TIP3   OH262158   0.664   0.990  11.916 -0.0602 -0.2381  0.0660
13556TIP3    H162159   0.683   0.920  11.979  1.5184 -0.4869 -0.6413
13556TIP3    H262160   0.572   1.010  11.930  0.0064 -0.9454  1.7995
13557TIP3   OH262161   2.046   2.219  10.459 -0.1116 -0.9380  0.0138
13557TIP3    H162162   1.970   2.260  10.417  0.0331  0.0134  0.6447
13557TIP3    H262163   2.105   2.292  10.477  0.3694 -1.4949  0.7240
13558TIP3   OH262164   1.233   6.124  16.425 -0.2234  0.6990  0.0760
13558TIP3    H162165   1.325   6.133  16.401 -0.0451  1.1849  0.9058
13558TIP3    H262166   1.229   6.152  16.517 -0.9246 -0.8150  0.5440
13559TIP3   OH262167   5.530   5.764   0.146  0.2104 -0.2938  0.3966
13559TIP3    H162168   5.578   5.775   0.064 -0.3386 -1.8548 -0.1797
13559TIP3    H262169   5.466   5.695   0.127 -2.7044  2.0616  0.9117
13560TIP3   OH262170   4.519   1.237   1.319  0.0410  0.5324 -0.7070
13560TIP3    H162171   4.541   1.186   1.241 -1.5578 -0.3531 -0.6276
13560TIP3    H262172   4.514   1.171   1.389 -1.2244  0.8968 -0.4266
13561TIP3   OH262173   0.985   6.809   1.314  0.5990  0.1928 -0.0025
13561TIP3    H162174   0.948   6.735   1.266  0.5279  0.4524 -0.3464
13561TIP3    H262175   0.954   6.887   1.267  3.0137  0.4090 -1.3658
13562TIP3   OH262176   6.131   3.413   2.365 -0.1268 -0.0971 -0.1865
13562TIP3    H162177   6.167   3.455   2.287 -0.7660  2.1115  0.6391
13562TIP3    H262178   6.093   3.331   2.332  2.1268 -0.6317 -1.6734
13563TIP3   OH262179   0.101   6.206  14.891  0.2342 -0.1666 -0.4386
13563TIP3    H162180   0.040   6.189  14.818 -1.9124  1.3675  0.8711
13563TIP3    H262181   0.081   6.137  14.955  0.5275 -0.1969 -0.3794
13564TIP3   OH262182   4.383   3.051  16.845  0.4456  0.2959 -0.6066
13564TIP3    H162183   4.405   3.142  16.825  0.9227  0.2308 -0.3696
13564TIP3    H262184   4.374   3.049  16.940 -1.8435  0.6077 -0.7451
13565TIP3   OH262185   4.207   6.265  11.490 -0.3007  0.9745 -0.2418
13565TIP3    H162186   4.123   6.220  11.495  0.1354  0.1639  0.2031
13565TIP3    H262187   4.262   6.220  11.555  0.0207  2.4724  0.5756
13566TIP3   OH262188   3.069   4.261  11.227  0.0552 -0.3423 -0.0837
13566TIP3    H162189   3.030   4.184  11.268  0.0333 -0.1925  0.1811
13566TIP3    H262190   3.045   4.255  11.135  0.0335 -0.6402 -0.0590
13567TIP3   OH262191   4.695   5.861   3.010  0.1263 -0.7504  0.1590
13567TIP3    H162192   4.666   5.815   2.931 -1.3212 -0.0184  0.2333
13567TIP3    H262193   4.631   5.836   3.077 -0.0931  0.5596  0.4605
13568TIP3   OH262194   5.288   1.075  13.526 -0.4560 -0.3137  0.2652
13568TIP3    H162195   5.317   1.033  13.607 -0.5119  0.0315  0.4629
13568TIP3    H262196   5.220   1.017  13.492 -1.5364  0.3190  1.2597
13569TIP3   OH262197   1.261   4.879  14.589  0.2919  0.1338 -0.2952
13569TIP3    H162198   1.216   4.804  14.551  1.2283 -0.6391  0.0710
13569TIP3    H262199   1.213   4.898  14.670 -0.6710  0.7092 -0.9812
13570TIP3   OH262200   4.408   4.786  15.329  0.4794  0.2379  0.3761
13570TIP3    H162201   4.452   4.723  15.387 -0.2412  0.6190  1.3639
13570TIP3    H262202   4.442   4.871  15.356  0.0950  0.4235  0.2809
13571TIP3   OH262203   4.287   0.050  12.526  0.3716  0.0081  0.1157
13571TIP3    H162204   4.312   0.142  12.514 -0.3778  0.2599  0.3969
13571TIP3    H262205   4.206   0.041  12.476 -0.2439 -0.1618  1.1195
13572TIP3   OH262206   1.183   0.115   6.343  0.4383  0.0355 -0.5336
13572TIP3    H162207   1.207   0.041   6.399  1.6892 -0.4812 -1.7092
13572TIP3    H262208   1.248   0.183   6.364  1.5859 -0.5408 -2.0726
13573TIP3   OH262209   1.655   3.204   4.238 -0.4307 -0.0607 -0.1405
13573TIP3    H162210   1.610   3.286   4.256  0.8364  0.7405 -0.4958
13573TIP3    H262211   1.624   3.179   4.150 -0.1063  0.5463 -0.4340
13574TIP3   OH262212   5.514   4.451  12.175  0.3917  0.3407 -0.2301
13574TIP3    H162213   5.459   4.406  12.110  0.0648  0.0784  0.2206
13574TIP3    H262214   5.525   4.539  12.140 -2.5792  1.3005  0.8977
13575TIP3   OH262215   3.846   1.602   1.803  0.2491  0.4213 -0.8656
13575TIP3    H162216   3.841   1.684   1.853 -0.9504 -0.1528  0.0030
13575TIP3    H262217   3.939   1.595   1.779  1.4098 -0.2649  3.0487
13576TIP3   OH262218   0.293   5.510   3.120  0.1711 -0.5855 -0.3290
13576TIP3    H162219   0.238   5.566   3.065  2.3185  1.4898 -0.4890
13576TIP3    H262220   0.350   5.464   3.058  1.4559  0.4890  0.0200
13577TIP3   OH262221   0.135   6.678   6.778  0.5060  0.2606  0.8575
13577TIP3    H162222   0.063   6.704   6.836  0.8211 -1.4695  2.0911
13577TIP3    H262223   0.208   6.735   6.804 -0.4599  2.3131 -0.6815
13578TIP3   OH262224   3.019   6.565   1.404 -0.4038 -0.1889 -0.1911
13578TIP3    H162225   2.974   6.626   1.346 -0.6346  0.7795  0.9573
13578TIP3    H262226   3.108   6.600   1.413 -0.8700  0.6741  1.3886
13579TIP3   OH262227   5.420   4.131  15.560 -0.7693  0.4559 -0.1934
13579TIP3    H162228   5.356   4.061  15.574 -2.2292  1.2680 -2.2910
13579TIP3    H262229   5.394   4.171  15.477  1.8654  1.5291 -0.6013
13580TIP3   OH262230   1.609   2.891  15.601  0.3793 -0.1986  0.1377
13580TIP3    H162231   1.584   2.969  15.551 -0.9422 -1.2975 -1.0300
13580TIP3    H262232   1.555   2.821  15.564  0.5988 -1.4281  1.9990
13581TIP3   OH262233   3.615   2.062   5.143 -0.0771  0.1011  0.1791
13581TIP3    H162234   3.542   2.117   5.172  0.0482 -0.8301  2.4831
13581TIP3    H262235   3.573   1.983   5.108 -0.2067 -0.3236  1.2629
13582TIP3   OH262236   6.424   4.656   0.363 -0.2878 -0.0057 -0.5612
13582TIP3    H162237   6.490   4.672   0.296 -1.1793 -0.7335 -1.6386
13582TIP3    H262238   6.342   4.649   0.315 -0.5387 -3.8487  0.1522
13583TIP3   OH262239   0.923   1.658   6.195 -0.3070 -0.2398 -0.2029
13583TIP3    H162240   0.991   1.725   6.188 -1.8432  1.2099 -2.9359
13583TIP3    H262241   0.970   1.578   6.217  2.1172  0.9446 -0.7311
13584TIP3   OH262242   3.932   0.493  11.930  0.1605  0.4695 -0.2903
13584TIP3    H162243   4.023   0.476  11.953 -0.1410 -0.3543  0.3440
13584TIP3    H262244   3.896   0.407  11.907 -0.2749  0.8861 -1.2232
13585TIP3   OH262245   3.024   1.633   0.410  0.1048 -0.3058 -0.0165
13585TIP3    H162246   3.107   1.639   0.362  0.4473 -1.2460  0.4214
13585TIP3    H262247   3.019   1.716   0.458  1.7830 -0.9818  1.4624
13586TIP3   OH262248   2.690   1.958   4.079 -0.7466  0.5691  1.1472
13586TIP3    H162249   2.617   2.020   4.090 -1.4308 -0.4308  2.5605
13586TIP3    H262250   2.692   1.909   4.161  1.0221  0.0188  0.8092
13587TIP3   OH262251   4.555   0.284   4.855 -0.1700 -0.1237 -0.9041
13587TIP3    H162252   4.617   0.349   4.821  0.6557 -0.4829 -0.1298
13587TIP3    H262253   4.514   0.327   4.931  0.4908 -0.5532 -0.2971
13588TIP3   OH262254   4.444   2.193   2.902 -0.0690 -0.6607 -0.4649
13588TIP3    H162255   4.428   2.172   2.994 -1.4497 -1.2574 -0.8024
13588TIP3    H262256   4.420   2.112   2.855  1.7058 -0.7636 -1.2764
13589TIP3   OH262257   6.649   2.208   3.841  0.3934  0.3997 -0.3898
13589TIP3    H162258   6.729   2.260   3.829  1.3077 -1.0426 -0.8862
13589TIP3    H262259   6.638   2.162   3.758  0.1007 -0.8128  0.2893
13590TIP3   OH262260   3.206   5.385   5.314  0.5706  0.0304 -0.3261
13590TIP3    H162261   3.167   5.394   5.227 -2.4600  0.9497  1.0076
13590TIP3    H262262   3.276   5.450   5.316  0.2447  0.4637 -1.8343
13591TIP3   OH262263   3.442   0.685   5.119 -0.2493 -0.3909 -0.4764
13591TIP3    H162264   3.512   0.620   5.136 -0.2555 -0.4925 -0.8406
13591TIP3    H262265   3.416   0.668   5.029  0.5686  0.9033 -0.9792
13592TIP3   OH262266   2.851   2.085  11.106 -0.3299 -0.1293  0.3953
13592TIP3    H162267   2.915   2.069  11.175 -0.2692  1.3880  0.7401
13592TIP3    H262268   2.799   2.158  11.139  1.7245  2.8849 -2.4088
13593TIP3   OH262269   1.631   1.055  11.310 -0.0449 -0.6031 -0.0795
13593TIP3    H162270   1.564   0.987  11.309 -1.1832  0.4844  0.4313
13593TIP3    H262271   1.583   1.137  11.315  1.3397  0.1744  2.0735
13594TIP3   OH262272   0.725   1.853  14.400  0.1096  0.3072  0.4279
13594TIP3    H162273   0.735   1.948  14.394  0.8896  0.3275  1.6355
13594TIP3    H262274   0.687   1.838  14.486  1.6274 -0.5547  0.9940
13595TIP3   OH262275   2.924   2.719  16.145  0.4735 -0.3337 -0.0417
13595TIP3    H162276   3.009   2.749  16.176  0.2006  0.4441 -0.0154
13595TIP3    H262277   2.893   2.789  16.088  0.5921 -1.3580 -1.4329
13596TIP3   OH262278   0.504   2.874  11.352  0.6432  0.1304 -0.1269
13596TIP3    H162279   0.579   2.817  11.365  1.0466  0.7667  0.4448
13596TIP3    H262280   0.528   2.955  11.397 -0.1857  0.5141 -0.3549
13597TIP3   OH262281   4.533   3.203  13.519  0.3443 -0.2843 -0.2423
13597TIP3    H162282   4.518   3.108  13.527 -0.0009 -0.2752 -0.7529
13597TIP3    H262283   4.613   3.218  13.569  1.8898 -1.2868 -2.2486
13598TIP3   OH262284   2.041   4.456  13.924  0.4380 -0.2494  0.0525
13598TIP3    H162285   1.989   4.449  13.844 -0.2852 -0.7292  0.5535
13598TIP3    H262286   1.979   4.438  13.994  1.4698 -1.7599  0.6224
13599TIP3   OH262287   0.731   0.474  14.391  0.4625  0.3790  0.0865
13599TIP3    H162288   0.694   0.507  14.473 -0.1613 -2.0027  0.8286
13599TIP3    H262289   0.679   0.517  14.323 -1.6834 -0.5308  1.0529
13600TIP3   OH262290   3.965   1.503  14.037  0.2007 -0.3533  0.1741
13600TIP3    H162291   4.009   1.424  14.070  0.3183  0.3050  1.7066
13600TIP3    H262292   4.037   1.558  14.006  0.1528 -0.6759 -0.5183
13601TIP3   OH262293   0.075   0.513   1.553  0.0288 -0.2300  0.3601
13601TIP3    H162294   0.056   0.597   1.594  1.7376  0.0085  0.7610
13601TIP3    H262295   0.006   0.455   1.584 -1.8150  1.2307 -0.7687
13602TIP3   OH262296   3.278   5.191   0.282  0.2161 -0.3222  0.3977
13602TIP3    H162297   3.359   5.158   0.320  0.1087 -0.3996  0.5641
13602TIP3    H262298   3.305   5.255   0.217  0.4508 -1.0926 -0.2796
13603TIP3   OH262299   6.293   0.616  11.234  0.1901  1.0787  0.2107
13603TIP3    H162300   6.389   0.608  11.228  0.2110  1.4625  0.0158
13603TIP3    H262301   6.274   0.607  11.328  0.0423 -2.9854 -0.0115
13604TIP3   OH262302   6.160   1.488   3.188  0.6841  0.5831 -0.0436
13604TIP3    H162303   6.154   1.397   3.162  0.4046  0.1549  1.4322
13604TIP3    H262304   6.133   1.537   3.111  0.6168 -0.5854 -0.7827
13605TIP3   OH262305   2.960   5.608   3.273  0.3146  0.0894  0.0987
13605TIP3    H162306   2.933   5.644   3.188  1.2640  1.4438  0.3506
13605TIP3    H262307   3.031   5.547   3.252  0.8146  0.7162 -0.0589
13606TIP3   OH262308   5.206   1.197  16.408 -0.3330  0.3266 -0.1417
13606TIP3    H162309   5.114   1.171  16.400 -0.1017 -1.3061  1.6896
13606TIP3    H262310   5.253   1.136  16.350 -0.2304 -0.1963  0.4843
13607TIP3   OH262311   1.652   3.705  15.606 -0.2388  0.2651 -0.2844
13607TIP3    H162312   1.621   3.625  15.564  1.0948 -0.3449 -0.1627
13607TIP3    H262313   1.747   3.700  15.600 -0.1142  1.5482  0.2785
13608TIP3   OH262314   5.744   5.604   1.909 -1.2532 -0.3703 -0.5375
13608TIP3    H162315   5.686   5.590   1.834 -1.1331 -2.8749 -0.2215
13608TIP3    H262316   5.774   5.517   1.933  0.6913  0.6281  0.8852
13609TIP3   OH262317   6.765   2.017   2.123 -0.3346 -0.1678 -0.6140
13609TIP3    H162318   6.708   2.078   2.169  0.5823  1.1428 -1.1808
13609TIP3    H262319   6.728   2.012   2.034  0.1321  0.2999 -0.8385
13610TIP3   OH262320   0.542   4.772  14.997  0.1162  0.2676 -0.0199
13610TIP3    H162321   0.557   4.781  14.902  0.8346  1.7146  0.2066
13610TIP3    H262322   0.589   4.845  15.036  0.8075 -0.9715  1.5763
13611TIP3   OH262323   6.506   5.871  13.795  0.5423  0.2107 -0.3306
13611TIP3    H162324   6.558   5.818  13.735  0.4280 -0.4125  0.1092
13611TIP3    H262325   6.458   5.931  13.739  2.4293  1.4584 -0.7175
13612TIP3   OH262326   0.847   1.801  11.172  0.1676 -1.1292 -0.1610
13612TIP3    H162327   0.880   1.883  11.136 -0.0403 -0.9937 -0.0487
13612TIP3    H262328   0.880   1.799  11.262 -2.2643  0.3063  0.8737
13613TIP3   OH262329   6.775   3.529   5.905 -0.6945 -0.0525  0.1688
13613TIP3    H162330   6.684   3.528   5.877 -0.2543 -0.1501 -1.3618
13613TIP3    H262331   6.771   3.536   6.001 -2.3164 -1.2422  0.2302
13614TIP3   OH262332   6.459   3.973  16.747  0.2180 -0.1796 -0.5494
13614TIP3    H162333   6.436   4.040  16.812  0.1914 -0.9484  0.2636
13614TIP3    H262334   6.515   4.019  16.684  0.0979  0.6344 -0.0807
13615TIP3   OH262335   6.101   1.953   3.774  0.2243 -0.1084 -0.0129
13615TIP3    H162336   6.181   1.929   3.822 -1.2394 -1.3317  1.9660
13615TIP3    H262337   6.084   2.043   3.800  1.1132  0.2827 -0.7221
13616TIP3   OH262338   6.185   5.528  14.051 -0.0675  0.0641  0.2496
13616TIP3    H162339   6.099   5.542  14.090  0.5789  1.9296  1.1267
13616TIP3    H262340   6.237   5.602  14.081  1.0841  0.5151 -2.5557
13617TIP3   OH262341   6.229   4.416  13.798 -0.2615 -0.0845 -0.7241
13617TIP3    H162342   6.264   4.419  13.887  0.4355 -0.0817 -0.9935
13617TIP3    H262343   6.230   4.323  13.775 -0.1366 -0.0544 -0.8429
13618TIP3   OH262344   2.849   5.220  12.491  0.2539 -0.4806 -0.0663
13618TIP3    H162345   2.759   5.197  12.512 -0.0071  0.5789  0.0262
13618TIP3    H262346   2.880   5.148  12.436 -0.7059 -0.7530 -0.2675
13619TIP3   OH262347   3.860   3.334  12.149  0.5798 -0.4880 -0.1657
13619TIP3    H162348   3.804   3.300  12.218  0.5619 -1.7862 -0.7911
13619TIP3    H262349   3.948   3.335  12.186  0.6767 -1.8071 -0.3094
13620TIP3   OH262350   5.047   0.776  11.783  0.3216 -0.4063 -0.8606
13620TIP3    H162351   5.000   0.857  11.806  0.8807 -0.5787  1.0292
13620TIP3    H262352   4.979   0.708  11.785  0.4072 -0.4725  0.7363
13621TIP3   OH262353   1.450   2.676  12.940  0.3595  0.6277 -0.1187
13621TIP3    H162354   1.522   2.714  12.990  1.2185 -0.2593 -0.6438
13621TIP3    H262355   1.386   2.747  12.931  1.0491  1.3542  0.5668
13622TIP3   OH262356   2.200   1.902   2.300 -0.6111 -0.0091  0.1138
13622TIP3    H162357   2.185   1.874   2.390 -0.1177  0.7714  0.4546
13622TIP3    H262358   2.132   1.858   2.249 -0.3840 -1.1119  0.7400
13623TIP3   OH262359   2.597   0.628  16.649  0.5574 -0.4727  0.3025
13623TIP3    H162360   2.668   0.633  16.713  0.8289 -1.5618  0.1054
13623TIP3    H262361   2.611   0.704  16.592 -0.3886  1.2511  2.1918
13624TIP3   OH262362   2.047   3.136  10.492 -0.2253  0.4166  0.0058
13624TIP3    H162363   2.115   3.089  10.444  0.5073  0.7527  0.6929
13624TIP3    H262364   2.012   3.070  10.552  1.4496  0.9284  1.6390
13625TIP3   OH262365   3.390   3.712  15.849  0.4773  0.7340 -0.0116
13625TIP3    H162366   3.421   3.621  15.847 -0.3771  0.2921  2.7270
13625TIP3    H262367   3.301   3.707  15.814  0.0332  0.3013  1.1532
13626TIP3   OH262368   6.078   4.050  15.875 -0.4642  0.0725 -0.4884
13626TIP3    H162369   6.016   3.980  15.896 -0.4228  0.1344 -0.1540
13626TIP3    H262370   6.042   4.091  15.796 -0.5480 -0.2525 -0.6203
13627TIP3   OH262371   1.064   3.000   2.481 -0.7197  0.2906 -0.6080
13627TIP3    H162372   1.100   3.058   2.547  0.2150 -0.3537 -0.5450
13627TIP3    H262373   0.996   3.053   2.438  1.3118  2.1245 -1.8068
13628TIP3   OH262374   3.544   4.507   4.140  0.3846  0.2991  0.5758
13628TIP3    H162375   3.469   4.553   4.177  1.3007  2.4717 -0.0961
13628TIP3    H262376   3.505   4.440   4.083 -1.0429  1.1235  0.5252
13629TIP3   OH262377   4.042   3.592  13.300  0.3877  0.0323 -0.1529
13629TIP3    H162378   4.077   3.505  13.279 -0.5572 -0.3257 -0.3367
13629TIP3    H262379   3.975   3.607  13.232 -0.3221  0.3579  0.6024
13630TIP3   OH262380   2.848   5.453   1.794 -0.6232 -0.9310  0.0637
13630TIP3    H162381   2.932   5.409   1.778 -1.1107 -1.2801 -1.7420
13630TIP3    H262382   2.856   5.486   1.884  1.9199  0.1269 -0.4504
13631TIP3   OH262383   3.193   2.674  15.264 -0.0805 -0.4674 -0.0626
13631TIP3    H162384   3.259   2.614  15.228 -0.0174  0.4432 -1.5416
13631TIP3    H262385   3.116   2.661  15.208  0.4663  1.9892 -1.5133
13632TIP3   OH262386   0.315   5.537   5.457  0.4047 -0.5197  0.6391
13632TIP3    H162387   0.274   5.452   5.444 -0.2558 -0.2639  1.0218
13632TIP3    H262388   0.260   5.582   5.521  1.8568 -0.5518  1.9603
13633TIP3   OH262389   3.543   5.875   0.155 -0.4735  0.3506 -0.5334
13633TIP3    H162390   3.483   5.820   0.105  1.0527 -1.1877 -0.7796
13633TIP3    H262391   3.626   5.869   0.107  0.7112 -0.1805  1.4674
13634TIP3   OH262392   1.473   2.829   1.715 -0.0127 -0.0680 -0.2971
13634TIP3    H162393   1.416   2.890   1.761  1.2873  1.7398 -0.9470
13634TIP3    H262394   1.479   2.864   1.626  0.4487 -1.4014 -0.8202
13635TIP3   OH262395   2.515   0.639  13.547  0.0544 -0.1145  0.2150
13635TIP3    H162396   2.485   0.617  13.636 -0.3619  0.2682  0.1737
13635TIP3    H262397   2.600   0.596  13.539 -2.2627 -5.1457 -1.2622
13636TIP3   OH262398   6.522   4.298   4.403  0.3708 -0.1845 -0.4333
13636TIP3    H162399   6.475   4.378   4.427  1.0938 -0.1461  0.9695
13636TIP3    H262400   6.478   4.229   4.452  2.2557 -0.0181  1.6939
13637TIP3   OH262401   1.962   0.184   5.889  0.2019 -0.1882 -0.7475
13637TIP3    H162402   1.984   0.212   5.978 -2.3369 -2.0124  0.5592
13637TIP3    H262403   2.039   0.135   5.860  0.1958 -1.6730  1.4723
13638TIP3   OH262404   1.738   0.480   2.417 -0.0212  0.1168  0.3376
13638TIP3    H162405   1.789   0.453   2.494  1.6973 -0.0138 -0.7802
13638TIP3    H262406   1.774   0.428   2.345 -2.4834 -0.7246 -0.3709
13639TIP3   OH262407   2.998   2.193   5.568  0.6154  0.0421  0.2705
13639TIP3    H162408   2.955   2.259   5.513  1.7180  0.6632  0.1258
13639TIP3    H262409   3.081   2.233   5.592 -0.2215  0.2745  3.2800
13640TIP3   OH262410   5.160   2.265   2.806  0.3447 -0.4845 -0.1940
13640TIP3    H162411   5.104   2.342   2.797  1.3773  0.2701 -0.3120
13640TIP3    H262412   5.242   2.299   2.841  0.2238 -1.7841  1.5044
13641TIP3   OH262413   0.343   4.463   1.896 -0.5006  0.2143 -0.2254
13641TIP3    H162414   0.429   4.492   1.929 -0.7540  0.3871  0.2926
13641TIP3    H262415   0.280   4.507   1.953 -0.9497  0.4470 -0.8859
13642TIP3   OH262416   3.952   5.081   1.146 -0.0969  0.1377 -0.0644
13642TIP3    H162417   3.866   5.044   1.165 -0.3182 -0.6041 -2.1879
13642TIP3    H262418   3.942   5.174   1.165 -1.2951  0.0141  0.0271
13643TIP3   OH262419   3.493   4.248  15.078  0.4099  0.1200  0.0379
13643TIP3    H162420   3.586   4.273  15.076  0.5247 -0.3236 -1.0924
13643TIP3    H262421   3.453   4.301  15.009 -0.0770 -0.0629  0.1801
13644TIP3   OH262422   0.048   1.593  13.797  0.1923  0.6572 -0.7925
13644TIP3    H162423   0.127   1.619  13.751  0.3386  0.0685 -0.8838
13644TIP3    H262424   0.063   1.618  13.888  1.1363 -0.8399 -0.5087
13645TIP3   OH262425   4.052   4.829  11.998 -0.8910 -0.5465  0.2120
13645TIP3    H162426   4.121   4.765  12.015 -0.3579  0.3351  1.5978
13645TIP3    H262427   4.098   4.901  11.954 -0.8629  0.1002  1.2547
13646TIP3   OH262428   2.453   4.832   3.482 -0.4845  0.1561 -0.0299
13646TIP3    H162429   2.380   4.849   3.542  0.8943  0.0616  1.7397
13646TIP3    H262430   2.430   4.750   3.439 -0.4423 -1.0763  2.1548
13647TIP3   OH262431   6.633   2.051   1.890 -0.0576  0.5086 -0.2726
13647TIP3    H162432   6.665   2.139   1.910  0.7952  0.3141 -0.7589
13647TIP3    H262433   6.541   2.054   1.915  0.0487  1.4251  0.0741
13648TIP3   OH262434   1.027   3.028   4.482  0.2439 -0.3607  0.3589
13648TIP3    H162435   0.987   2.941   4.487  0.5813 -0.6169 -0.9711
13648TIP3    H262436   0.958   3.084   4.446  0.6696 -0.5459 -0.7877
13649TIP3   OH262437   2.064   5.533  15.512  0.2719 -0.2922  0.1479
13649TIP3    H162438   2.047   5.626  15.527 -1.0168 -0.5947  0.7763
13649TIP3    H262439   2.146   5.515  15.558 -0.3446  0.1844  1.4854
13650TIP3   OH262440   1.011   6.784   5.362  0.5207 -0.2532 -0.3730
13650TIP3    H162441   1.098   6.760   5.330  0.2918  1.4835 -2.5162
13650TIP3    H262442   1.019   6.876   5.386 -0.6997 -0.0867 -0.5666
13651TIP3   OH262443   1.847   5.668  15.341 -0.4243 -0.0722 -0.6476
13651TIP3    H162444   1.908   5.701  15.275  0.7356 -0.8657 -0.0180
13651TIP3    H262445   1.843   5.737  15.407  0.2123 -0.2222 -0.4433
13652TIP3   OH262446   0.809   6.748   1.811  0.0898 -0.4063 -0.3240
13652TIP3    H162447   0.739   6.684   1.820  1.1383 -1.5769 -0.2118
13652TIP3    H262448   0.855   6.723   1.731  1.0305 -0.3146  0.1761
13653TIP3   OH262449   4.695   5.122   0.527  0.6493  0.4040 -0.6730
13653TIP3    H162450   4.734   5.123   0.615 -2.4164 -0.8551  0.8608
13653TIP3    H262451   4.654   5.036   0.520  1.0789  0.3414 -3.5447
13654TIP3   OH262452   1.580   0.327   1.969  0.6074 -0.2205  0.3021
13654TIP3    H162453   1.545   0.380   2.040  0.0088 -0.6461  0.3260
13654TIP3    H262454   1.504   0.287   1.928  0.8092  0.9390 -1.3483
13655TIP3   OH262455   4.246   3.338   2.072  0.1986  0.4145  0.5732
13655TIP3    H162456   4.173   3.287   2.108 -0.1770  1.0290  0.6986
13655TIP3    H262457   4.318   3.276   2.067  0.2361  0.2503  2.2971
13656TIP3   OH262458   3.144   6.161  15.160  0.1086  0.3359 -0.3124
13656TIP3    H162459   3.068   6.158  15.103 -0.9822  1.2918  1.0295
13656TIP3    H262460   3.144   6.249  15.198  2.1874  0.5409 -0.6530
13657TIP3   OH262461   0.200   2.618   5.411 -0.1583 -0.0148  0.7680
13657TIP3    H162462   0.173   2.540   5.363  1.4605 -0.4870  0.5895
13657TIP3    H262463   0.217   2.683   5.344  2.8821 -0.9135  0.5405
13658TIP3   OH262464   5.292   6.210  12.106 -0.3789 -0.1500  0.1005
13658TIP3    H162465   5.303   6.305  12.098  3.0723 -0.1290  2.7085
13658TIP3    H262466   5.380   6.177  12.120 -1.5088 -3.7870 -0.3112
13659TIP3   OH262467   1.676   3.598   4.814  0.1259  0.1381  0.4232
13659TIP3    H162468   1.755   3.650   4.799 -0.4848  0.7504 -0.8545
13659TIP3    H262469   1.655   3.561   4.728 -1.4400  0.7036  0.5209
13660TIP3   OH262470   4.761   1.748   1.353  0.6421 -0.4210  0.2906
13660TIP3    H162471   4.854   1.763   1.371  0.1839  0.9071  1.7794
13660TIP3    H262472   4.721   1.737   1.439 -0.3734 -2.6177 -0.3921
13661TIP3   OH262473   2.168   5.797  15.601 -0.7451  0.8095 -0.2777
13661TIP3    H162474   2.211   5.877  15.571 -0.4038  0.8273  0.2417
13661TIP3    H262475   2.234   5.729  15.589 -1.5484  0.2954 -2.2005
13662TIP3   OH262476   2.906   5.467   4.953 -1.0384  0.4378  0.3276
13662TIP3    H162477   2.884   5.501   4.866 -0.9299 -0.5701 -0.1028
13662TIP3    H262478   2.842   5.397   4.968 -0.9453  0.4891  0.9881
13663TIP3   OH262479   2.299   2.895   2.195 -0.3632 -0.6472  0.1335
13663TIP3    H162480   2.391   2.920   2.181 -0.4218 -0.3710  0.2301
13663TIP3    H262481   2.297   2.865   2.286 -0.6823  0.8465  0.6503
13664TIP3   OH262482   3.696   4.684   6.121  0.3150  0.3622 -0.0506
13664TIP3    H162483   3.712   4.597   6.157 -0.0954  0.6195  0.7616
13664TIP3    H262484   3.783   4.717   6.099  0.4591 -0.3316 -0.5612
13665TIP3   OH262485   4.004   2.376   4.426 -0.0098  0.1994  0.0244
13665TIP3    H162486   4.096   2.355   4.445 -0.5070  0.1322  2.5963
13665TIP3    H262487   4.009   2.453   4.369  1.6500  1.5696  1.8969
13666TIP3   OH262488   3.420   0.105   1.329 -0.1654 -0.1207 -0.2049
13666TIP3    H162489   3.415   0.201   1.326  0.2949 -0.0453  1.0236
13666TIP3    H262490   3.366   0.081   1.405 -1.5893 -0.9696 -1.4211
13667TIP3   OH262491   1.314   5.976  11.833  0.7052 -0.2867  0.5871
13667TIP3    H162492   1.325   5.884  11.811 -1.8322 -0.6176  0.3723
13667TIP3    H262493   1.254   6.010  11.767  0.0335  0.9924  1.7910
13668TIP3   OH262494   5.374   2.939   0.817 -0.0488 -0.1204  0.1710
13668TIP3    H162495   5.296   2.950   0.762 -0.2459  0.9368  0.6371
13668TIP3    H262496   5.389   2.845   0.818  0.9046 -0.1212 -2.9978
13669TIP3   OH262497   1.808   5.251  14.353 -0.2287 -0.5832  0.8413
13669TIP3    H162498   1.783   5.343  14.362 -0.0316 -0.3997 -0.2847
13669TIP3    H262499   1.834   5.243  14.261  0.2641 -1.6394  1.0613
13670TIP3   OH262500   2.185   0.279  15.148  0.2561 -0.1791  0.4846
13670TIP3    H162501   2.108   0.227  15.125  0.1922 -0.4851  1.3739
13670TIP3    H262502   2.171   0.306  15.239 -0.8928  3.4943 -0.5848
13671TIP3   OH262503   4.943   5.943   1.622  0.4072  0.3669  0.3604
13671TIP3    H162504   4.909   5.972   1.706 -2.5279 -1.3960 -0.0743
13671TIP3    H262505   4.917   5.851   1.616 -0.9843  0.8414 -3.1216
13672TIP3   OH262506   3.890   6.386   0.986  0.5930  0.0982 -0.1204
13672TIP3    H162507   3.846   6.449   1.043  0.6601  0.4222 -0.4221
13672TIP3    H262508   3.933   6.440   0.919  0.9557 -0.2477 -0.1696
13673TIP3   OH262509   6.424   5.386  16.073 -0.2952 -1.1583  0.0032
13673TIP3    H162510   6.487   5.413  16.006 -0.5762  0.8044  0.4603
13673TIP3    H262511   6.473   5.393  16.155 -1.5161  2.4656  0.6236
13674TIP3   OH262512   2.835   0.361  11.979  0.3062  0.5640  0.2202
13674TIP3    H162513   2.836   0.278  11.931 -0.0435  0.3658  0.5528
13674TIP3    H262514   2.766   0.351  12.044  0.8791  0.7772  0.8712
13675TIP3   OH262515   2.907   2.720   0.449  0.2152 -0.2795 -0.5050
13675TIP3    H162516   2.857   2.649   0.489 -0.9231  0.1425 -1.1197
13675TIP3    H262517   2.937   2.773   0.522 -2.4648  0.9004 -0.1366
13676TIP3   OH262518   6.533   6.405  15.218 -0.4385 -0.1182  0.4627
13676TIP3    H162519   6.465   6.392  15.284  1.7593 -2.0602  2.4737
13676TIP3    H262520   6.580   6.483  15.247 -1.4603  0.9909 -0.7155
13677TIP3   OH262521   5.784   3.578   0.965 -0.5616  0.3193 -0.0875
13677TIP3    H162522   5.688   3.587   0.967 -0.7733 -1.4764 -0.4184
13677TIP3    H262523   5.807   3.586   0.873 -0.4151  0.5319 -0.0327
13678TIP3   OH262524   4.180   6.344   0.062 -0.1492 -0.0603  0.3051
13678TIP3    H162525   4.267   6.310   0.040 -0.7282 -1.8371  0.5345
13678TIP3    H262526   4.172   6.328   0.157 -0.1410  1.5452  0.5964
13679TIP3   OH262527   1.509   1.191  11.732  0.3784 -0.3180 -0.1569
13679TIP3    H162528   1.525   1.280  11.700 -0.1841  0.2905  1.1780
13679TIP3    H262529   1.430   1.163  11.685  0.1015  0.1938 -0.0059
13680TIP3   OH262530   3.253   3.663  11.626 -0.9692  0.3541 -0.3797
13680TIP3    H162531   3.214   3.745  11.595  1.0277  1.2087 -0.7448
13680TIP3    H262532   3.344   3.668  11.600  0.0907 -0.3859  2.7161
13681TIP3   OH262533   2.503   4.287  12.864 -0.0445 -0.4590  0.4052
13681TIP3    H162534   2.504   4.332  12.779  0.3001 -1.0525  0.0819
13681TIP3    H262535   2.419   4.241  12.865 -0.1788 -0.2142  0.5191
13682TIP3   OH262536   4.386   5.839   0.507 -0.6361  0.4118  0.0664
13682TIP3    H162537   4.421   5.778   0.572  1.0330  1.1152 -0.1253
13682TIP3    H262538   4.309   5.795   0.472 -0.9604 -0.4524  1.7524
13683TIP3   OH262539   3.260   3.631  12.967 -0.1590  0.2646  0.2403
13683TIP3    H162540   3.251   3.704  13.028 -0.0422  0.6167 -0.1583
13683TIP3    H262541   3.297   3.670  12.888  0.2487 -0.2919  0.1496
13684TIP3   OH262542   3.832   6.797   5.550  0.5056  0.2954  0.7778
13684TIP3    H162543   3.865   6.833   5.632 -1.0782 -0.7729  1.9559
13684TIP3    H262544   3.822   6.703   5.568 -2.2229  0.4151  0.2361
13685TIP3   OH262545   3.577   1.609   2.326  0.5816  0.1597 -0.0847
13685TIP3    H162546   3.550   1.522   2.355  2.9259 -0.8022 -0.6249
13685TIP3    H262547   3.644   1.636   2.388  0.2047  1.4182 -0.1864
13686TIP3   OH262548   1.917   5.493   5.141 -0.5594 -0.0791 -0.3086
13686TIP3    H162549   1.916   5.544   5.060 -0.4640  0.4131 -0.0109
13686TIP3    H262550   1.826   5.469   5.155 -0.8379  1.2214  0.2737
13687TIP3   OH262551   0.848   6.782  15.650 -0.4513 -0.0865 -0.2844
13687TIP3    H162552   0.856   6.759  15.742 -0.3304  0.4256 -0.1650
13687TIP3    H262553   0.783   6.852  15.648 -0.8250 -0.4454 -0.6434
13688TIP3   OH262554   5.837   3.873  15.539  0.2663  0.1679  0.8412
13688TIP3    H162555   5.880   3.879  15.454 -0.3959 -2.1273  0.2758
13688TIP3    H262556   5.903   3.836  15.598 -0.4284 -2.0861  0.2931
13689TIP3   OH262557   5.842   2.659  14.460 -0.2664 -0.1569 -0.5539
13689TIP3    H162558   5.818   2.633  14.549 -0.9463 -0.2564 -0.7587
13689TIP3    H262559   5.932   2.691  14.467 -0.3387 -0.1107  0.1790
13690TIP3   OH262560   3.318   2.963  16.806 -0.2108  0.1264  0.4875
13690TIP3    H162561   3.280   3.015  16.735 -0.1954  0.1340  0.4840
13690TIP3    H262562   3.378   2.902  16.763 -0.7450 -0.3649  0.4224
13691TIP3   OH262563   1.047   0.931   3.821  0.2863  0.4188  0.2439
13691TIP3    H162564   0.996   0.943   3.741  1.1506 -1.9458 -0.7793
13691TIP3    H262565   1.127   0.982   3.805  0.8514 -0.7478 -0.8575
13692TIP3   OH262566   4.920   4.522   3.175 -0.5016  0.0559  0.3182
13692TIP3    H162567   4.829   4.552   3.177 -0.2778  0.9092 -1.0506
13692TIP3    H262568   4.971   4.601   3.156  0.5024 -0.4621  0.8024
13693TIP3   OH262569   0.282   2.546   4.013  0.1565  0.2961 -0.0511
13693TIP3    H162570   0.290   2.461   4.057 -1.7995 -1.2843 -2.4603
13693TIP3    H262571   0.194   2.577   4.037  0.1420  0.7334 -0.6563
13694TIP3   OH262572   3.427   6.165   1.427  0.0877 -0.6299  0.1089
13694TIP3    H162573   3.416   6.070   1.423 -0.3480 -0.6213  0.9379
13694TIP3    H262574   3.460   6.189   1.340  1.0526 -1.6462  0.1728
13695TIP3   OH262575   4.611   5.430  13.988  0.2597  0.3298 -0.1154
13695TIP3    H162576   4.636   5.485  13.914 -0.0915  1.6646  0.7365
13695TIP3    H262577   4.651   5.345  13.969  1.6460  1.1439 -0.9742
13696TIP3   OH262578   0.290   0.150  12.607  0.2702 -0.0117 -0.8038
13696TIP3    H162579   0.228   0.200  12.660 -1.3471 -1.9165 -0.7983
13696TIP3    H262580   0.376   0.182  12.635 -0.6495  1.8473  0.0602
13697TIP3   OH262581   2.252   4.162   4.500 -0.7586 -0.0952 -0.3522
13697TIP3    H162582   2.306   4.188   4.425 -0.6638 -0.8846 -0.5602
13697TIP3    H262583   2.271   4.228   4.567 -0.6396  0.4577 -0.9265
13698TIP3   OH262584   4.169   3.172  11.005  0.8186  0.2097 -0.4589
13698TIP3    H162585   4.207   3.087  10.983  0.4155 -0.6164  1.7804
13698TIP3    H262586   4.125   3.201  10.925  3.0873 -0.4655 -2.0381
13699TIP3   OH262587   5.511   0.160  12.104 -0.0608 -0.1001  0.1177
13699TIP3    H162588   5.439   0.100  12.086 -0.6141  0.5013  0.3273
13699TIP3    H262589   5.497   0.233  12.045 -0.5521  0.7816  1.2843
13700TIP3   OH262590   4.429   0.149   1.852  0.3795  0.6691 -0.2951
13700TIP3    H162591   4.383   0.210   1.795 -0.8260 -0.2826 -0.3754
13700TIP3    H262592   4.410   0.062   1.814  0.5876  0.1148  0.8309
13701TIP3   OH262593   5.892   1.019  10.461 -0.2871  0.0488 -0.3436
13701TIP3    H162594   5.948   1.048  10.389 -0.7067 -0.3239 -0.8304
13701TIP3    H262595   5.928   0.934  10.487  0.8627  0.8894  0.9960
13702TIP3   OH262596   2.962   0.910  11.186 -0.1403  0.1937  0.4595
13702TIP3    H162597   3.028   0.971  11.218 -0.7364  0.2550  1.6346
13702TIP3    H262598   2.888   0.921  11.246 -1.9767  1.4686 -1.8622
13703TIP3   OH262599   3.694   4.424   1.888  0.2313  0.3313 -0.0843
13703TIP3    H162600   3.618   4.439   1.945  1.2484  2.7741  0.8090
13703TIP3    H262601   3.710   4.509   1.848  2.6040 -0.0681 -0.0893
13704TIP3   OH262602   6.428   4.590   4.525  0.2242 -0.4260  0.2656
13704TIP3    H162603   6.400   4.575   4.615  0.9599 -0.1433  0.5501
13704TIP3    H262604   6.392   4.676   4.502  1.8136  0.5036  1.0522
13705TIP3   OH262605   2.331   5.007  12.465 -0.2349  0.0437 -0.8914
13705TIP3    H162606   2.254   5.004  12.409 -0.3998 -0.1854 -0.6551
13705TIP3    H262607   2.337   5.098  12.493 -0.7177 -0.0409 -0.5001
13706TIP3   OH262608   0.640   0.737   4.572  0.5972  0.3974 -0.8524
13706TIP3    H162609   0.553   0.751   4.534  0.8363  0.6866 -1.3048
13706TIP3    H262610   0.636   0.780   4.657  0.0188 -0.3534 -0.4909
13707TIP3   OH262611   4.811   1.736  12.298 -0.2078  0.2475 -0.1275
13707TIP3    H162612   4.747   1.760  12.230 -1.2389  0.8070  0.9892
13707TIP3    H262613   4.881   1.800  12.289 -1.2158  1.4904  0.4781
13708TIP3   OH262614   1.308   5.246  13.267  0.0600 -0.2455 -0.4974
13708TIP3    H162615   1.254   5.263  13.190 -2.9003 -1.6011  1.1125
13708TIP3    H262616   1.299   5.325  13.320  1.3816  0.3351 -1.1034
13709TIP3   OH262617   2.898   4.713   0.351  0.3504 -0.1413 -0.6557
13709TIP3    H162618   2.813   4.755   0.339  0.8387  1.2269  0.4637
13709TIP3    H262619   2.961   4.773   0.310  1.1905  0.9477  2.0091
13710TIP3   OH262620   1.374   1.553  11.853 -0.1750 -0.4096 -0.4665
13710TIP3    H162621   1.336   1.465  11.850  2.3376 -1.5742 -1.0123
13710TIP3    H262622   1.398   1.572  11.762  1.5348 -0.2465 -0.0184
13711TIP3   OH262623   2.748   2.420  13.250  0.0468 -0.4550  0.1105
13711TIP3    H162624   2.767   2.339  13.297 -0.9263 -0.8353 -0.1218
13711TIP3    H262625   2.659   2.444  13.278 -0.0911 -0.0474 -0.6318
13712TIP3   OH262626   0.568   0.708  11.219  0.2135  0.6303  0.6004
13712TIP3    H162627   0.573   0.666  11.133 -3.3998  0.3154  0.3991
13712TIP3    H262628   0.632   0.779  11.215  1.1058 -0.2332 -1.8238
13713TIP3   OH262629   1.185   6.396   0.540 -0.3756 -0.3219 -0.6178
13713TIP3    H162630   1.187   6.359   0.451 -0.2865 -1.7600 -0.0536
13713TIP3    H262631   1.277   6.407   0.564 -0.4095  1.0118 -1.0628
13714TIP3   OH262632   3.897   4.122   1.681  0.3749  0.0493 -0.0211
13714TIP3    H162633   3.861   4.156   1.763 -0.3492 -0.4418 -0.1283
13714TIP3    H262634   3.913   4.201   1.628  0.3446  0.3322  0.3856
13715TIP3   OH262635   5.667   1.350  16.885  1.0458  0.5575 -0.4398
13715TIP3    H162636   5.753   1.308  16.884  1.2843  0.9364  1.1576
13715TIP3    H262637   5.677   1.424  16.945 -0.0904  1.3171 -1.1470
13716TIP3   OH262638   3.694   5.880   5.387  0.0135  0.0463  0.4289
13716TIP3    H162639   3.735   5.862   5.302  0.1370 -0.6499  0.6297
13716TIP3    H262640   3.639   5.804   5.404  0.6391 -0.2116  1.3689
13717TIP3   OH262641   6.639   3.678  16.128 -0.0847 -0.4934  0.2331
13717TIP3    H162642   6.642   3.672  16.223  1.2379 -0.4972  0.2046
13717TIP3    H262643   6.708   3.619  16.098  0.2039  0.2908 -0.6884
13718TIP3   OH262644   0.510   3.570  12.326 -0.1213  0.4385  0.2115
13718TIP3    H162645   0.430   3.623  12.325  0.4018  1.2406  0.1032
13718TIP3    H262646   0.579   3.631  12.300  0.6882  0.0052  1.3121
13719TIP3   OH262647   2.096   0.831   2.682  0.1470  0.0323 -0.3076
13719TIP3    H162648   2.025   0.894   2.695  0.4616  0.3871 -0.2892
13719TIP3    H262649   2.065   0.751   2.724 -1.7053 -0.8982 -3.1396
13720TIP3   OH262650   4.877   6.213   1.011  0.1352 -0.0014 -0.6410
13720TIP3    H162651   4.892   6.292   1.064  2.5451 -0.9076  0.1702
13720TIP3    H262652   4.827   6.155   1.067  0.5942 -0.0223 -0.2448
13721TIP3   OH262653   5.213   2.864   0.385 -0.2446 -0.2262  0.5909
13721TIP3    H162654   5.153   2.881   0.313 -0.6377  2.0279  1.3674
13721TIP3    H262655   5.170   2.796   0.437 -1.4609  0.3388  0.3554
13722TIP3   OH262656   0.044   3.286  15.550  0.0538  0.0351  0.3443
13722TIP3    H162657  -0.027   3.312  15.608  0.9868  2.4475  0.5047
13722TIP3    H262658   0.016   3.316  15.463  0.0664 -0.7319  0.0606
13723TIP3   OH262659   1.573   6.792   2.302 -0.4087 -0.3272  0.2205
13723TIP3    H162660   1.590   6.852   2.375  0.4218  0.5491 -0.6484
13723TIP3    H262661   1.633   6.719   2.316 -1.2911 -0.9000  1.1834
13724TIP3   OH262662   1.324   0.912   4.834 -0.3921 -0.1792 -0.0119
13724TIP3    H162663   1.238   0.953   4.824 -0.2078  0.1359 -0.3275
13724TIP3    H262664   1.334   0.898   4.928 -0.3221  0.7902  0.1332
13725TIP3   OH262665   6.370   1.989  13.588  0.0221 -0.2847  0.2412
13725TIP3    H162666   6.305   2.005  13.520  0.6039 -1.3987 -0.6333
13725TIP3    H262667   6.362   1.895  13.606 -0.1607  0.0120  1.7695
13726TIP3   OH262668   0.640   0.600   5.949 -0.4223  0.0308 -0.9013
13726TIP3    H162669   0.628   0.563   5.861  0.6092  0.5146 -1.2617
13726TIP3    H262670   0.551   0.618   5.979 -0.7621  0.9525 -2.3421
13727TIP3   OH262671   0.733   5.674  16.096  0.2025 -0.5742 -0.1188
13727TIP3    H162672   0.779   5.591  16.094  2.7317  0.6494  1.5858
13727TIP3    H262673   0.755   5.711  16.182 -1.1949  1.6516 -0.6407
13728TIP3   OH262674   6.302   3.850  13.019  0.0304 -0.2529  0.1858
13728TIP3    H162675   6.315   3.764  12.980  0.7717 -0.1138  0.1005
13728TIP3    H262676   6.388   3.873  13.055  0.0324  0.7713 -0.4420
13729TIP3   OH262677   0.949   4.173  16.326 -0.2090  0.2581  0.0007
13729TIP3    H162678   0.993   4.208  16.403  0.5371 -0.0642 -0.2666
13729TIP3    H262679   0.987   4.086  16.314 -1.6313 -0.4271  0.3250
13730TIP3   OH262680   2.738   1.316   4.063  0.1505 -0.6142  0.3446
13730TIP3    H162681   2.682   1.353   4.131  1.7552  1.1181  0.8152
13730TIP3    H262682   2.705   1.227   4.050 -2.2429  0.0966  1.0539
13731TIP3   OH262683   4.561   0.406  12.837 -0.2349  0.1130  0.0411
13731TIP3    H162684   4.503   0.340  12.876 -1.0170  0.6695 -0.1350
13731TIP3    H262685   4.514   0.489  12.850  1.6136  0.9247  1.9943
13732TIP3   OH262686   4.992   1.342   0.359  0.1721  0.0730  0.0953
13732TIP3    H162687   4.997   1.425   0.407 -0.1644 -0.6405  1.4166
13732TIP3    H262688   5.077   1.333   0.316 -0.6238  2.3053 -2.2165
13733TIP3   OH262689   2.148   5.086   4.948 -0.4274  0.3946  0.3172
13733TIP3    H162690   2.111   4.999   4.933 -1.0989  0.8784 -0.9924
13733TIP3    H262691   2.106   5.117   5.029  0.4302 -0.7909  1.2618
13734TIP3   OH262692   2.926   1.713  15.494 -0.2096 -0.1959 -0.2564
13734TIP3    H162693   2.889   1.753  15.416 -0.4694  0.4883  0.2068
13734TIP3    H262694   2.924   1.619  15.477 -1.5488 -0.1340 -0.5034
13735TIP3   OH262695   5.351   2.681   0.704  0.4477 -0.3798 -0.7705
13735TIP3    H162696   5.437   2.639   0.703 -0.2953 -1.9708 -0.8622
13735TIP3    H262697   5.314   2.663   0.617 -0.0369  0.1636 -0.6830
13736TIP3   OH262698   2.631   2.079   1.416  0.3101  0.5446 -0.0960
13736TIP3    H162699   2.619   2.045   1.327  0.4834  1.0252 -0.3013
13736TIP3    H262700   2.544   2.072   1.456  0.2448  0.2800 -0.2851
13737TIP3   OH262701   3.584   3.927   2.703  0.7332 -0.1189 -0.4160
13737TIP3    H162702   3.503   3.908   2.655 -0.1229  0.4545  0.7583
13737TIP3    H262703   3.596   4.021   2.693  0.3305  0.0781  0.7730
13738TIP3   OH262704   1.091   0.178  12.889 -0.3144 -0.0726  0.3928
13738TIP3    H162705   1.039   0.206  12.964  0.8872  0.6752  0.9848
13738TIP3    H262706   1.087   0.252  12.828  1.2638  0.6462  1.1095
13739TIP3   OH262707   6.314   6.827   5.919  0.0149  0.3054  0.1443
13739TIP3    H162708   6.344   6.804   6.007  1.5999  1.0957 -0.1601
13739TIP3    H262709   6.394   6.835   5.868 -0.6948  2.4412 -0.7388
13740TIP3   OH262710   3.942   1.226   6.393  0.4126  0.5607  0.9863
13740TIP3    H162711   3.868   1.183   6.350  0.9015 -0.1749  0.8549
13740TIP3    H262712   3.994   1.263   6.322  0.4268  0.6632  1.0490
13741TIP3   OH262713   5.916   5.497  15.676 -0.0796 -0.2208  0.2433
13741TIP3    H162714   5.990   5.438  15.692 -0.6841 -1.2448 -0.5857
13741TIP3    H262715   5.957   5.579  15.649  0.7640 -0.9520 -0.7897
13742TIP3   OH262716   5.822   5.575   4.191 -0.2107  0.2071  0.2158
13742TIP3    H162717   5.856   5.665   4.190  0.5516 -0.0493 -1.6844
13742TIP3    H262718   5.740   5.580   4.142  0.4839 -0.3156 -1.0586
13743TIP3   OH262719   1.327   3.849   6.333  0.0907 -0.5778  1.0854
13743TIP3    H162720   1.321   3.941   6.360  1.0551  0.0889 -0.7698
13743TIP3    H262721   1.244   3.832   6.288  0.8186  0.1874 -0.6678
13744TIP3   OH262722   4.472   0.095  12.232  0.3154 -0.1625 -0.2468
13744TIP3    H162723   4.550   0.049  12.203  0.3235 -1.4834  1.7193
13744TIP3    H262724   4.400   0.034  12.217  0.3517 -1.0357  2.5655
13745TIP3   OH262725   6.427   6.540   3.366  0.6398  0.3226  0.0868
13745TIP3    H162726   6.466   6.476   3.427  1.5015  0.4213 -0.3423
13745TIP3    H262727   6.362   6.586   3.419 -1.6731 -2.3887 -0.1507
13746TIP3   OH262728   3.106   2.806  13.408  0.0069  0.9991 -0.0182
13746TIP3    H162729   3.075   2.739  13.348  1.2910 -0.7599  1.1513
13746TIP3    H262730   3.027   2.847  13.442 -1.1146 -2.2253  1.7040
13747TIP3   OH262731   4.163   1.765   2.046  0.1325 -0.3623 -0.6594
13747TIP3    H162732   4.137   1.678   2.017  0.3675 -1.1378  1.2890
13747TIP3    H262733   4.086   1.799   2.091  1.2440 -1.2708  2.1235
13748TIP3   OH262734   1.399   5.786   2.736 -0.1141 -0.3580 -0.4324
13748TIP3    H162735   1.430   5.813   2.823  1.1759 -0.7957 -0.7275
13748TIP3    H262736   1.307   5.762   2.750  0.0283 -0.2724  0.7860
13749TIP3   OH262737   1.393   6.802  11.332 -0.2187 -0.4425 -0.3798
13749TIP3    H162738   1.451   6.726  11.338 -1.2281 -1.2420 -0.4783
13749TIP3    H262739   1.451   6.877  11.343  1.2155 -1.0843 -2.8826
13750TIP3   OH262740   4.002   2.819   6.649  0.3438  0.4846  0.2981
13750TIP3    H162741   4.011   2.744   6.591 -0.9862  1.3074 -1.0608
13750TIP3    H262742   4.017   2.895   6.592  1.6726  1.2745  1.6399
13751TIP3   OH262743   6.675   2.534   4.073 -0.1248  0.3707  0.0196
13751TIP3    H162744   6.661   2.628   4.083  1.7267  0.6297  0.6048
13751TIP3    H262745   6.596   2.502   4.030 -1.0501  2.0887  0.3480
13752TIP3   OH262746   3.254   4.832   4.543 -0.1078  0.1539  0.2276
13752TIP3    H162747   3.319   4.901   4.528  1.4857 -1.4034 -0.5111
13752TIP3    H262748   3.192   4.842   4.471 -0.5519  1.4985  0.7745
13753TIP3   OH262749   2.725   5.041   2.423  0.5597 -0.2406 -0.2678
13753TIP3    H162750   2.663   4.988   2.473  0.4110  0.6526  0.5368
13753TIP3    H262751   2.670   5.091   2.362  0.4593  0.6021  0.4925
13754TIP3   OH262752   2.273   1.332   3.581 -0.0110  0.2781 -0.1113
13754TIP3    H162753   2.242   1.242   3.569 -0.8468  0.4762  0.4856
13754TIP3    H262754   2.228   1.383   3.514  0.1191  0.3286 -0.1613
13755TIP3   OH262755   1.158   2.891   0.730 -0.2932 -0.1829 -0.9269
13755TIP3    H162756   1.182   2.981   0.709  0.1525  0.1529  0.8525
13755TIP3    H262757   1.174   2.883   0.825  0.9109 -2.5033 -1.2455
13756TIP3   OH262758   2.340   0.492   0.572 -1.0541 -0.1730 -0.1033
13756TIP3    H162759   2.325   0.493   0.667 -2.3724 -0.2622 -0.2901
13756TIP3    H262760   2.396   0.416   0.557  3.0694  2.2806  1.0800
13757TIP3   OH262761   1.417   5.334  11.626 -0.4769  0.2200 -0.1084
13757TIP3    H162762   1.349   5.356  11.690 -0.0340 -0.6654  0.6915
13757TIP3    H262763   1.372   5.281  11.561 -0.7555  0.4294 -0.0882
13758TIP3   OH262764   0.915   1.540  13.130  0.2721  0.4327 -0.3669
13758TIP3    H162765   0.964   1.622  13.127 -0.8591  1.1198 -0.6021
13758TIP3    H262766   0.875   1.539  13.218 -0.6749  0.7375 -0.7733
13759TIP3   OH262767   4.979   3.532  13.699 -0.3367  0.1424  0.0188
13759TIP3    H162768   5.000   3.625  13.706  0.9495 -0.1583  0.4407
13759TIP3    H262769   4.914   3.517  13.767 -1.2257  0.8991 -0.6356
13760TIP3   OH262770   1.068   6.530   2.515  0.6956  0.3917 -0.5087
13760TIP3    H162771   1.051   6.623   2.505 -1.0237  0.1936  0.2042
13760TIP3    H262772   0.986   6.494   2.550  1.5269 -1.2766 -0.1611
13761TIP3   OH262773   1.787   4.494   2.739 -0.5914  0.0338 -0.4344
13761TIP3    H162774   1.823   4.467   2.655 -2.5906 -0.1431 -1.2718
13761TIP3    H262775   1.722   4.427   2.761 -0.9351  0.6984  0.6772
13762TIP3   OH262776   3.620   5.674   0.364  0.1247 -0.1674  0.0937
13762TIP3    H162777   3.606   5.750   0.306  0.2734  0.9511  1.4610
13762TIP3    H262778   3.551   5.682   0.430  0.3814 -1.0124  0.4770
13763TIP3   OH262779   6.296   2.895   4.588  0.0178  0.3002  0.2336
13763TIP3    H162780   6.353   2.850   4.525 -1.7095 -0.7309 -0.6611
13763TIP3    H262781   6.356   2.931   4.653  1.9170  1.3913 -1.9650
13764TIP3   OH262782   0.023   1.515   1.543 -0.1736 -0.2088  0.3914
13764TIP3    H162783   0.021   1.589   1.603  0.7814  0.7622 -0.7159
13764TIP3    H262784   0.115   1.506   1.518 -0.4036 -1.2323 -0.1421
13765TIP3   OH262785   2.405   2.492   3.015 -0.3213  0.4700  0.5007
13765TIP3    H162786   2.340   2.430   3.048  0.1872 -0.5496 -0.3385
13765TIP3    H262787   2.369   2.579   3.036 -1.1338 -0.1013  1.5316
13766TIP3   OH262788   3.714   1.328  12.430 -0.2632 -0.5945  0.3487
13766TIP3    H162789   3.801   1.330  12.391 -0.4973 -0.5453 -0.1763
13766TIP3    H262790   3.654   1.322  12.355 -0.7675  0.6540  0.6263
13767TIP3   OH262791   0.060   3.613   5.407  0.4264 -0.3498  0.4043
13767TIP3    H162792   0.134   3.627   5.348  0.0184 -2.2659 -0.6506
13767TIP3    H262793  -0.005   3.678   5.380 -0.4328 -2.2251 -2.5452
13768TIP3   OH262794   3.391   1.010  11.970  0.1105 -0.2168  0.1355
13768TIP3    H162795   3.403   0.940  12.035  1.9769 -0.6270 -0.5885
13768TIP3    H262796   3.480   1.031  11.941 -0.6517 -0.1788 -2.4319
13769TIP3   OH262797   4.758   3.157  15.156 -0.0435  0.3575  0.4555
13769TIP3    H162798   4.728   3.074  15.119 -0.9330  0.8723 -0.0251
13769TIP3    H262799   4.771   3.139  15.249  1.0243 -0.6391  0.1280
13770TIP3   OH262800   2.771   6.649   4.016  0.1377  0.3516 -0.3007
13770TIP3    H162801   2.795   6.597   3.940  1.3000 -0.1458  0.3877
13770TIP3    H262802   2.811   6.734   4.002 -0.8835  0.7435 -0.9274
13771TIP3   OH262803   3.201   5.635   6.056  0.1398 -0.0495 -0.9596
13771TIP3    H162804   3.220   5.670   6.143  0.7645 -0.4077 -0.9480
13771TIP3    H262805   3.114   5.595   6.065  0.2962 -0.2823 -0.4403
13772TIP3   OH262806   6.341   6.605   0.345 -0.2599  0.1266  0.0550
13772TIP3    H162807   6.401   6.669   0.385 -1.8796  0.3442  2.3144
13772TIP3    H262808   6.277   6.659   0.299 -1.1067  0.1506  1.2096
13773TIP3   OH262809   6.378   6.032  14.134  0.0367  0.3685  0.1925
13773TIP3    H162810   6.346   6.121  14.118  0.5310  0.1744 -2.2610
13773TIP3    H262811   6.306   5.975  14.106  0.4283 -0.0207 -0.0329
13774TIP3   OH262812   3.475   3.672  16.557 -0.0542 -0.0808  0.3544
13774TIP3    H162813   3.509   3.604  16.615  0.3976  0.0236  0.2168
13774TIP3    H262814   3.449   3.624  16.478  0.8817 -0.0252 -0.0067
13775TIP3   OH262815   3.154   1.269  16.135 -0.2805  0.4912  0.0853
13775TIP3    H162816   3.222   1.244  16.073  1.5056  1.1196  1.6957
13775TIP3    H262817   3.093   1.323  16.083  0.9452  0.6985 -1.1973
13776TIP3   OH262818   6.444   1.936   2.202 -0.3129 -0.0820 -0.0046
13776TIP3    H162819   6.400   1.866   2.155 -1.2093 -0.0170  0.7030
13776TIP3    H262820   6.431   1.915   2.295 -0.1180  0.7145  0.2160
13777TIP3   OH262821   0.903   5.999   6.387  0.1834 -0.2358  0.3727
13777TIP3    H162822   0.948   5.932   6.336  0.6929  0.2750  0.1426
13777TIP3    H262823   0.853   5.950   6.452  0.0465 -0.8617 -0.2014
13778TIP3   OH262824   2.407   2.146   3.055  0.5973  0.0493 -0.1423
13778TIP3    H162825   2.315   2.142   3.030  0.8902  2.2129 -1.8667
13778TIP3    H262826   2.405   2.169   3.149 -0.8093  4.0696 -0.9296
13779TIP3   OH262827   4.814   2.453   0.792  0.0749 -0.4799  0.0499
13779TIP3    H162828   4.821   2.544   0.821 -0.8859 -0.3757  0.0024
13779TIP3    H262829   4.808   2.459   0.696 -1.8495 -0.4141  0.1178
13780TIP3   OH262830   1.807   2.482   3.802 -0.2364  0.3430 -0.2003
13780TIP3    H162831   1.723   2.480   3.849  0.4802  0.7020  1.1215
13780TIP3    H262832   1.834   2.573   3.805  0.9450 -0.0159  0.7413
13781TIP3   OH262833   4.798   5.245  14.968  0.3971 -0.7128  0.0247
13781TIP3    H162834   4.775   5.184  15.038  0.2587 -0.1722  0.4534
13781TIP3    H262835   4.763   5.329  14.997 -0.9101 -0.7421 -1.3362
13782TIP3   OH262836   5.096   3.168  15.524  0.1554 -0.0184 -0.0028
13782TIP3    H162837   5.176   3.167  15.577 -0.1870 -0.7882  0.5117
13782TIP3    H262838   5.033   3.217  15.576 -0.4178 -1.4284  0.6884
13783TIP3   OH262839   4.373   1.627   2.159  0.4821 -0.6173 -0.5098
13783TIP3    H162840   4.287   1.666   2.147  0.0148 -1.9125 -1.6997
13783TIP3    H262841   4.433   1.701   2.166 -0.8564  0.3473  1.7966
13784TIP3   OH262842   3.280   6.118   4.296 -0.2002 -0.2346  0.3522
13784TIP3    H162843   3.344   6.068   4.346  1.1490 -0.7428 -1.7632
13784TIP3    H262844   3.297   6.210   4.319  1.7230 -0.3170 -0.6217
13785TIP3   OH262845   6.025   6.202  16.455  0.0567 -0.2331 -0.2969
13785TIP3    H162846   5.943   6.219  16.502  0.6251  0.4331  0.4686
13785TIP3    H262847   6.017   6.110  16.428 -0.0690 -0.8244  1.5708
13786TIP3   OH262848   1.206   0.521  15.734 -0.3643 -0.1553  0.5642
13786TIP3    H162849   1.126   0.510  15.683  1.4051  0.2388 -2.4958
13786TIP3    H262850   1.225   0.615  15.729  1.3252 -0.5147 -0.5336
13787TIP3   OH262851   1.488   0.094   4.551 -0.1062 -0.2925  0.5528
13787TIP3    H162852   1.561   0.047   4.512 -0.3585 -0.1834 -0.0566
13787TIP3    H262853   1.453   0.148   4.480 -0.3217  0.2102  1.0303
13788TIP3   OH262854   2.296   4.991   0.542 -0.1629 -0.6572  0.3517
13788TIP3    H162855   2.254   5.073   0.514 -0.7851 -0.8194  0.8111
13788TIP3    H262856   2.352   5.017   0.615 -1.7438 -0.9300  1.6963
13789TIP3   OH262857   3.134   0.746   4.985 -0.1649  0.1645  0.7336
13789TIP3    H162858   3.199   0.729   4.917  0.3605 -1.3911  1.5793
13789TIP3    H262859   3.122   0.841   4.984 -0.9313  0.1114 -2.1990
13790TIP3   OH262860   2.613   1.959   1.157  0.2558 -0.1570  0.1051
13790TIP3    H162861   2.680   1.913   1.106  0.5484  0.2434  0.1209
13790TIP3    H262862   2.542   1.896   1.165 -0.7246  0.4754 -2.6206
13791TIP3   OH262863   1.372   2.016   1.800  0.5170  0.0228  0.8661
13791TIP3    H162864   1.304   2.080   1.780  0.4045 -0.3285  0.1049
13791TIP3    H262865   1.355   1.943   1.740  1.9711  0.2054  0.1877
13792TIP3   OH262866   1.188   1.150  14.122 -0.4973  1.0040 -0.2372
13792TIP3    H162867   1.137   1.217  14.075 -1.0751  0.5616 -0.2522
13792TIP3    H262868   1.174   1.169  14.214  0.2433  1.5746 -0.2291
13793TIP3   OH262869   1.730   0.828   6.716 -1.1612  0.6439 -0.3071
13793TIP3    H162870   1.775   0.748   6.743  0.2628  1.6695  0.4932
13793TIP3    H262871   1.800   0.890   6.696 -2.2269  1.6991 -0.8966
13794TIP3   OH262872   5.916   0.097  13.351 -0.6500 -0.4141  0.0221
13794TIP3    H162873   5.871   0.050  13.422  1.1224 -2.6480 -0.2455
13794TIP3    H262874   6.003   0.116  13.387 -0.5538  0.6294 -0.7267
13795TIP3   OH262875   2.604   6.364   3.577  0.6703 -0.1923 -0.3338
13795TIP3    H162876   2.545   6.406   3.515 -0.0214  2.2296  1.7635
13795TIP3    H262877   2.546   6.322   3.641  1.3173 -0.9847 -0.2440
13796TIP3   OH262878   1.572   1.807  13.076 -0.0710  0.2648  0.3136
13796TIP3    H162879   1.607   1.726  13.112  1.5610  0.3224 -0.9897
13796TIP3    H262880   1.547   1.784  12.986  0.1139  1.1156  0.0348
13797TIP3   OH262881   4.366   3.929   3.486  0.8623 -0.3003  0.7027
13797TIP3    H162882   4.409   3.850   3.454  2.1316 -0.2413  2.1353
13797TIP3    H262883   4.303   3.898   3.551  0.6301 -0.2040  0.5243
13798TIP3   OH262884   5.745   0.501   3.659 -0.6118 -0.5054  0.1020
13798TIP3    H162885   5.715   0.589   3.682 -0.8372 -0.7413  0.7165
13798TIP3    H262886   5.834   0.514   3.627 -0.4549 -0.1196  0.6850
13799TIP3   OH262887   1.284   1.469   4.265  0.1084 -0.4989  0.8025
13799TIP3    H162888   1.242   1.424   4.338 -0.0545  0.6337  1.4310
13799TIP3    H262889   1.254   1.422   4.187 -3.6097  1.1154  1.0609
13800TIP3   OH262890   6.449   4.031  14.792  0.5531  0.0292  0.0037
13800TIP3    H162891   6.510   4.088  14.838  1.8885 -1.9141  0.8119
13800TIP3    H262892   6.434   4.073  14.707  1.1323  1.7293  0.7167
13801TIP3   OH262893   0.131   2.462   5.061  0.2818 -0.1998  0.0301
13801TIP3    H162894   0.090   2.544   5.088  1.6175  0.5832 -0.2405
13801TIP3    H262895   0.152   2.474   4.968  3.6770  0.5980  0.7752
13802TIP3   OH262896   1.437   5.971   4.210  0.2179 -0.3166 -0.0664
13802TIP3    H162897   1.354   6.005   4.243  1.2620  1.4012  0.9133
13802TIP3    H262898   1.490   5.956   4.289  0.0994 -3.6940 -0.4615
13803TIP3   OH262899   3.728   4.361  13.451  0.2191 -0.2799 -0.3000
13803TIP3    H162900   3.748   4.349  13.544  1.5114 -0.7627 -0.6150
13803TIP3    H262901   3.743   4.275  13.412  0.5706  0.1362 -1.1043
13804TIP3   OH262902   5.689   0.153   4.606 -0.7037 -0.4221 -0.0313
13804TIP3    H162903   5.665   0.178   4.696  1.2445 -0.9697  0.6985
13804TIP3    H262904   5.744   0.225   4.576 -2.1893  0.2583 -1.2151
13805TIP3   OH262905   5.104   6.576   0.525  0.4663 -0.4066 -0.8647
13805TIP3    H162906   5.188   6.547   0.488  1.1913  1.5339 -0.8561
13805TIP3    H262907   5.045   6.581   0.449  0.6176 -0.8819 -1.0184
13806TIP3   OH262908   4.463   1.580   3.004  0.1422  0.3867  0.5728
13806TIP3    H162909   4.425   1.648   3.059  0.8306  1.0100  0.2899
13806TIP3    H262910   4.420   1.591   2.919  0.7967  0.9721  0.3066
13807TIP3   OH262911   2.763   3.065   1.815  0.0302  0.0118  0.0187
13807TIP3    H162912   2.761   3.107   1.901 -0.8937  1.3380 -0.6079
13807TIP3    H262913   2.854   3.070   1.787  0.2504 -0.0067  0.7281
13808TIP3   OH262914   3.709   5.902  11.124  0.4439 -0.2386  0.2446
13808TIP3    H162915   3.743   5.919  11.036  1.1438 -1.2371  0.3075
13808TIP3    H262916   3.616   5.883  11.111  0.4872 -0.1244 -0.2406
13809TIP3   OH262917   3.472   4.891  13.600 -0.4371 -0.5550  0.1627
13809TIP3    H162918   3.533   4.903  13.672  0.9021 -1.2011 -0.8140
13809TIP3    H262919   3.486   4.967  13.544 -0.3452 -0.8253 -0.1875
13810TIP3   OH262920   1.553   4.240   0.820 -0.5141 -0.0391 -0.2356
13810TIP3    H162921   1.569   4.157   0.865 -1.4640 -0.6105 -0.8988
13810TIP3    H262922   1.583   4.224   0.730 -0.4527  0.4306 -0.3004
13811TIP3   OH262923   4.344   2.531  10.891  0.2102  0.4678 -0.2264
13811TIP3    H162924   4.308   2.559  10.975  1.0946  2.3606 -0.4221
13811TIP3    H262925   4.295   2.581  10.826 -0.0680 -0.5500 -0.8115
13812TIP3   OH262926   3.835   1.875   0.233 -0.0079  0.3568  0.0897
13812TIP3    H162927   3.878   1.947   0.280 -1.8252  1.5113  0.0761
13812TIP3    H262928   3.796   1.917   0.156 -0.1476 -0.8611 -0.5208
13813TIP3   OH262929   6.682   0.252  11.172  0.1331 -0.6847 -0.1816
13813TIP3    H162930   6.743   0.325  11.169  0.2714 -0.6342  1.9585
13813TIP3    H262931   6.714   0.191  11.105  0.7710  0.6276 -1.1092
13814TIP3   OH262932   0.612   3.731  13.437  0.0228 -0.6444  0.4444
13814TIP3    H162933   0.645   3.642  13.421  0.5058 -0.1925 -1.1634
13814TIP3    H262934   0.527   3.733  13.393 -0.0567 -0.3428  0.6129
13815TIP3   OH262935   4.067   2.639   1.597 -0.0744  0.0516  0.0647
13815TIP3    H162936   4.145   2.693   1.610 -0.1631  1.0690 -2.8896
13815TIP3    H262937   4.009   2.663   1.670  1.4708  0.9298  1.0530
13816TIP3   OH262938   6.539   3.951   4.277 -0.3930  0.2034  0.2618
13816TIP3    H162939   6.597   3.983   4.346  1.6619 -1.2682 -0.6703
13816TIP3    H262940   6.453   3.986   4.300  0.6209  1.5565  2.3413
13817TIP3   OH262941   4.605   1.952   0.490  0.5775 -0.6364 -0.2795
13817TIP3    H162942   4.601   2.021   0.556 -0.0132 -0.2012 -0.7517
13817TIP3    H262943   4.629   1.873   0.538 -0.8221 -0.5418  0.6298
13818TIP3   OH262944   1.465   6.274  11.102 -0.1038 -0.0126 -0.4770
13818TIP3    H162945   1.488   6.344  11.042 -0.5529 -0.1386 -0.7982
13818TIP3    H262946   1.407   6.217  11.052 -1.6864  0.6595  0.5127
13819TIP3   OH262947   4.013   1.708  12.681  0.0481 -0.0867 -0.5010
13819TIP3    H162948   3.977   1.620  12.673  0.7199 -0.3794 -0.4154
13819TIP3    H262949   3.980   1.755  12.605 -1.2829 -0.0573  0.0772
13820TIP3   OH262950   2.540   3.525  13.901  0.4304  0.1742 -0.4049
13820TIP3    H162951   2.527   3.498  13.992  0.7122 -0.1147 -0.4487
13820TIP3    H262952   2.630   3.560  13.899  0.3980  0.2525 -0.5543
13821TIP3   OH262953   3.802   6.123  14.265 -0.4461  0.4387  0.2371
13821TIP3    H162954   3.782   6.144  14.356 -2.1121  1.8415 -0.4088
13821TIP3    H262955   3.893   6.091  14.267 -0.9810 -1.1783  2.5805
13822TIP3   OH262956   2.896   3.404   1.821  0.1424 -0.3042 -0.3929
13822TIP3    H162957   2.932   3.442   1.741  2.0946 -0.2004  0.4923
13822TIP3    H262958   2.838   3.334   1.790 -0.0692  0.5053 -1.9052
13823TIP3   OH262959   0.387   1.103  13.017  0.1104  0.0474 -0.2821
13823TIP3    H162960   0.461   1.116  13.076 -0.1877 -2.0372  0.6494
13823TIP3    H262961   0.426   1.070  12.937  0.2368 -0.7283  0.0912
13824TIP3   OH262962   4.201   5.943   1.056 -0.0858  0.0968  0.0747
13824TIP3    H162963   4.209   6.038   1.045  3.5490 -0.1538 -0.8110
13824TIP3    H262964   4.147   5.933   1.134  0.2018  2.9347  0.7622
13825TIP3   OH262965   0.432   0.852   0.826  0.5278 -0.1191 -0.4027
13825TIP3    H162966   0.472   0.936   0.845  0.8593 -0.3085 -0.2434
13825TIP3    H262967   0.338   0.869   0.825  0.6424  0.6170 -2.1545
13826TIP3   OH262968   0.759   4.139  14.361  0.1884  0.0012 -0.5397
13826TIP3    H162969   0.787   4.104  14.446  0.9370 -1.3236 -1.3009
13826TIP3    H262970   0.675   4.096  14.344 -0.4494  1.0024 -0.0607
13827TIP3   OH262971   5.160   5.770  11.958 -0.8839 -0.1224  0.4281
13827TIP3    H162972   5.122   5.855  11.981  0.0880 -0.0062  1.7218
13827TIP3    H262973   5.126   5.710  12.024  0.4185 -0.2009  1.0579
13828TIP3   OH262974   0.472   6.557  14.668  0.1248 -0.2660  0.2926
13828TIP3    H162975   0.523   6.637  14.652  1.0469 -1.0473 -0.8633
13828TIP3    H262976   0.400   6.562  14.605  0.1594 -0.3376  0.2486
13829TIP3   OH262977   5.133   6.383  16.593 -0.4313  0.8614 -0.3197
13829TIP3    H162978   5.055   6.338  16.561 -0.0411 -0.7924  0.8907
13829TIP3    H262979   5.192   6.386  16.517  0.0262 -1.9017 -0.1651
13830TIP3   OH262980   1.662   1.064  12.586  0.0389  0.5263 -0.3194
13830TIP3    H162981   1.718   1.039  12.513 -0.2770  2.3150 -1.2414
13830TIP3    H262982   1.574   1.072  12.548 -0.2516  0.8447  0.3827
13831TIP3   OH262983   4.634   5.660   5.257  0.1156 -0.5205  0.0262
13831TIP3    H162984   4.698   5.598   5.294  1.7901  1.1463  0.0455
13831TIP3    H262985   4.553   5.640   5.304  1.3960 -0.5924  2.3914
13832TIP3   OH262986   4.429   2.619  14.162 -0.8936  0.1117 -0.0181
13832TIP3    H162987   4.481   2.692  14.197  0.6891 -0.8362 -0.2774
13832TIP3    H262988   4.436   2.551  14.229 -1.3633 -0.2172 -0.2978
13833TIP3   OH262989   5.329   6.094  16.391  0.1092 -0.2041 -0.2884
13833TIP3    H162990   5.349   6.147  16.468 -1.0894 -0.4794  0.2408
13833TIP3    H262991   5.270   6.026  16.424  1.7813 -2.0475 -0.8778
13834TIP3   OH262992   5.129   3.213   4.077 -0.3009  0.5699 -0.3503
13834TIP3    H162993   5.065   3.276   4.112 -0.1804  1.0899 -1.0467
13834TIP3    H262994   5.085   3.128   4.084 -1.9523  1.1407 -2.7651
13835TIP3   OH262995   0.179   4.477   4.851  0.1378  0.6534 -0.1502
13835TIP3    H162996   0.095   4.466   4.895 -0.0822  2.3208 -0.0951
13835TIP3    H262997   0.165   4.440   4.764 -0.2706 -0.1483  0.2427
13836TIP3   OH262998   4.203   6.832  11.505 -0.8662  0.2239 -0.0632
13836TIP3    H162999   4.286   6.819  11.458 -0.9680 -3.7444  0.4912
13836TIP3    H263000   4.225   6.894  11.574  1.2570  0.4292 -0.8300
13837TIP3   OH263001   1.067   5.861   4.694 -0.0158 -0.5789  0.2959
13837TIP3    H163002   1.079   5.917   4.771  2.0930  1.4229 -1.3408
13837TIP3    H263003   1.012   5.913   4.636 -0.4589 -1.4915 -0.1132
13838TIP3   OH263004   5.250   1.780  13.985  0.2542 -0.1156 -0.2639
13838TIP3    H163005   5.314   1.827  14.039 -1.6905  0.5544  1.5966
13838TIP3    H263006   5.191   1.739  14.049 -2.1780  0.7295 -1.8396
13839TIP3   OH263007   2.084   1.873  13.496  0.1552 -0.1541 -0.2923
13839TIP3    H163008   2.168   1.919  13.491 -0.5825  1.1814 -0.9632
13839TIP3    H263009   2.107   1.782  13.514  1.7298  0.2348 -0.2233
13840TIP3   OH263010   4.729   4.174   2.902 -0.1813 -0.1338 -0.7233
13840TIP3    H163011   4.799   4.232   2.932 -0.2394  0.7889 -2.2923
13840TIP3    H263012   4.774   4.107   2.851 -0.2174 -0.9609  0.2948
13841TIP3   OH263013   5.185   3.915  16.201  0.1722 -0.8937 -0.0259
13841TIP3    H163014   5.191   3.946  16.291 -0.9136 -1.5303  0.2844
13841TIP3    H263015   5.269   3.871  16.185  0.8173  0.2023  0.2822
13842TIP3   OH263016   1.857   4.341   1.952 -0.1302  0.1797  0.1055
13842TIP3    H163017   1.790   4.276   1.969  0.3800 -0.4861 -0.3539
13842TIP3    H263018   1.824   4.422   1.991 -0.3004 -0.5884  1.6156
13843TIP3   OH263019   5.970   2.784  15.536 -0.8155 -0.0717 -0.0859
13843TIP3    H163020   6.030   2.849  15.498  0.3308 -0.6191  0.7199
13843TIP3    H263021   5.899   2.835  15.574  0.0618  0.7169  0.5268
13844TIP3   OH263022   3.982   2.249   1.641 -0.4981  0.7640 -0.1470
13844TIP3    H163023   3.960   2.195   1.718  0.6427  1.4888  0.7226
13844TIP3    H263024   4.076   2.239   1.631 -0.6680  0.4434 -1.6705
13845TIP3   OH263025   2.884   5.788  10.672 -0.2116 -0.1171  0.1684
13845TIP3    H163026   2.944   5.718  10.700 -0.7339 -0.1347  1.2991
13845TIP3    H263027   2.941   5.864  10.658  0.0823 -0.1012  1.3358
13846TIP3   OH263028   3.989   3.176   1.405 -0.1202 -0.1703 -0.5919
13846TIP3    H163029   4.014   3.144   1.318 -2.2170 -1.8130 -0.6852
13846TIP3    H263030   3.930   3.249   1.387 -0.5789 -0.5301 -0.5826
13847TIP3   OH263031   3.027   4.737  12.505  0.3552  0.1137 -0.5158
13847TIP3    H163032   3.071   4.702  12.583  0.8748 -2.3771 -1.7877
13847TIP3    H263033   3.097   4.778  12.455  0.3663  0.1637 -0.4588
13848TIP3   OH263034   1.408   2.497   6.595  0.2618 -0.1663  0.0700
13848TIP3    H163035   1.383   2.537   6.679 -1.2975  1.4118 -1.0627
13848TIP3    H263036   1.379   2.406   6.603 -1.2916  0.3451  0.7257
13849TIP3   OH263037   2.351   4.963  15.932  0.0567 -0.6008 -0.1206
13849TIP3    H163038   2.431   4.929  15.892  0.7006 -1.5432  1.8312
13849TIP3    H263039   2.281   4.931  15.875  1.0234  2.4133 -3.4151
13850TIP3   OH263040   0.152   4.590  15.203  0.2802 -0.3207 -0.1443
13850TIP3    H163041   0.165   4.507  15.157  1.5781 -0.7092  0.8851
13850TIP3    H263042   0.160   4.656  15.134  2.6911 -0.8612 -0.4727
13851TIP3   OH263043   3.900   3.978  17.100  0.0543  0.3317 -0.6708
13851TIP3    H163044   3.893   3.990  17.195  0.5031 -1.2029 -0.4077
13851TIP3    H263045   3.861   3.892  17.085  1.5133 -0.1911 -1.6348
13852TIP3   OH263046   4.947   4.144   5.512  0.2662  0.0757 -0.1491
13852TIP3    H163047   4.875   4.181   5.461  0.6200  0.5416 -0.3154
13852TIP3    H263048   4.915   4.144   5.603 -0.4807 -1.0303 -0.3847
13853TIP3   OH263049   4.740   0.724   0.303 -0.0533 -0.4638 -0.2439
13853TIP3    H163050   4.802   0.759   0.239 -0.9695  1.3827 -0.1830
13853TIP3    H263051   4.677   0.795   0.316 -1.7142 -1.9791  0.3064
13854TIP3   OH263052   5.947   3.295   1.431  0.0229  0.5158 -0.2761
13854TIP3    H163053   6.029   3.329   1.394  0.9569 -1.7878 -0.4768
13854TIP3    H263054   5.927   3.219   1.377 -1.8373  0.5520  0.3176
13855TIP3   OH263055   0.160   1.275   3.058  0.2328 -0.2777 -0.1675
13855TIP3    H163056   0.114   1.295   2.976 -1.0183 -2.1202  0.0250
13855TIP3    H263057   0.185   1.183   3.049  2.2035  0.1540  0.5635
13856TIP3   OH263058   1.958   5.891  11.478 -0.0511 -0.0689  0.3912
13856TIP3    H163059   1.961   5.927  11.389  0.3454 -0.1229  0.3791
13856TIP3    H263060   1.887   5.828  11.476  0.9637 -1.2519 -0.3470
13857TIP3   OH263061   1.612   3.340   3.951  0.4463  0.4575  0.4543
13857TIP3    H163062   1.656   3.282   3.889 -0.1503 -0.9072  1.2623
13857TIP3    H263063   1.519   3.317   3.944  0.1530  1.5399  0.5817
13858TIP3   OH263064   0.490   1.523  10.462  0.1233  0.2423  0.1374
13858TIP3    H163065   0.585   1.535  10.468  0.3426 -1.2409  0.2088
13858TIP3    H263066   0.462   1.581  10.391  1.5285 -1.2948 -1.7732
13859TIP3   OH263067   4.681   1.659  14.570  0.0164  0.6134 -0.2153
13859TIP3    H163068   4.724   1.581  14.534  0.3439  0.2641  0.8935
13859TIP3    H263069   4.663   1.637  14.661 -1.2804  1.2814 -0.2918
13860TIP3   OH263070   0.102   2.134  13.204 -0.0634 -0.2044  0.1911
13860TIP3    H163071   0.050   2.189  13.145  0.7065  0.4916  0.1518
13860TIP3    H263072   0.045   2.059  13.223 -0.9185  0.3386 -0.1838
13861TIP3   OH263073   6.515   0.480  15.135  0.2159  0.3221 -0.1691
13861TIP3    H163074   6.490   0.443  15.220 -0.6199 -1.4314 -1.1248
13861TIP3    H263075   6.512   0.575  15.148 -2.0331  0.1340  1.1844
13862TIP3   OH263076   6.067   5.315  12.512  0.4890 -0.1492  1.1515
13862TIP3    H163077   6.105   5.329  12.425  0.8487  2.7154  1.6907
13862TIP3    H263078   6.082   5.222  12.529  2.1882 -0.3661 -1.0163
13863TIP3   OH263079   0.342   1.289   2.093  0.2682 -0.2619 -0.2970
13863TIP3    H163080   0.275   1.342   2.048  1.1512  0.7349 -0.4691
13863TIP3    H263081   0.405   1.268   2.024  1.3238  0.7747  0.3132
13864TIP3   OH263082   0.634   0.241   3.091  0.1307  0.1070 -0.0985
13864TIP3    H163083   0.660   0.255   3.182 -2.3834  0.5915  0.5982
13864TIP3    H263084   0.641   0.147   3.078  0.3002  0.0123  0.6469
13865TIP3   OH263085   1.576   3.650   3.653 -0.0083  0.2763 -0.1123
13865TIP3    H163086   1.651   3.642   3.711  0.2507 -1.4959 -0.6325
13865TIP3    H263087   1.608   3.703   3.580  0.2643  0.8122  0.3881
13866TIP3   OH263088   3.999   5.739   0.739  0.3795 -0.4623 -0.0318
13866TIP3    H163089   3.948   5.774   0.812 -1.3875 -0.2722 -1.2967
13866TIP3    H263090   4.010   5.814   0.680  0.0804 -1.0799 -0.8814
13867TIP3   OH263091   4.043   6.006   0.787 -0.3977  0.3250 -0.1001
13867TIP3    H163092   4.068   5.990   0.878  1.4766  3.2996  0.0391
13867TIP3    H263093   3.973   6.070   0.792 -0.1450  0.6624 -0.7621
13868TIP3   OH263094   4.125   2.257   4.003  0.3776  0.1525  0.2338
13868TIP3    H163095   4.195   2.202   3.967 -0.5197 -1.2767  0.5518
13868TIP3    H263096   4.060   2.194   4.035 -0.4892  1.4218  1.0695
13869TIP3   OH263097   5.396   0.587   1.617 -0.4159 -0.2011  0.3587
13869TIP3    H163098   5.483   0.554   1.642 -0.9641 -1.9384  0.0877
13869TIP3    H263099   5.335   0.524   1.656 -1.6321  1.4810  1.3153
13870TIP3   OH263100   1.592   3.048   3.497 -0.6006  0.1705  0.2964
13870TIP3    H163101   1.541   3.044   3.578  0.0142 -0.7735  0.6517
13870TIP3    H263102   1.619   3.140   3.489 -1.9017  0.5792  0.3707
13871TIP3   OH263103   0.630   2.376  10.358 -0.3495  0.1553 -0.1398
13871TIP3    H163104   0.645   2.336  10.443  0.6319  2.4333  0.8463
13871TIP3    H263105   0.716   2.377  10.316 -0.0077  2.3746  0.4644
13872TIP3   OH263106   2.227   3.084   3.521  0.4359  0.1094 -0.0814
13872TIP3    H163107   2.172   3.117   3.450 -0.2894 -0.2395  0.3118
13872TIP3    H263108   2.289   3.025   3.477  0.9193  0.9764 -0.6091
13873TIP3   OH263109   2.353   3.872   0.917 -0.1804 -0.5015 -0.0086
13873TIP3    H163110   2.359   3.941   0.982 -0.3153 -0.3311 -0.1750
13873TIP3    H263111   2.412   3.803   0.949 -0.1460 -0.3649  0.2228
13874TIP3   OH263112   2.185   5.145   5.969  0.3289  0.5808  0.0120
13874TIP3    H163113   2.256   5.081   5.963  1.5807  2.0116 -1.0849
13874TIP3    H263114   2.228   5.226   5.995 -1.0364  1.3108  0.0903
13875TIP3   OH263115   2.778   2.818  16.624  0.2543 -0.5898  0.3579
13875TIP3    H163116   2.739   2.764  16.692 -1.7962  0.3731  0.0309
13875TIP3    H263117   2.725   2.800  16.546  0.7587  0.4179 -0.2385
13876TIP3   OH263118   3.608   6.355  11.436 -0.0896 -0.2007  0.1763
13876TIP3    H163119   3.700   6.376  11.449 -0.1369 -0.4335  0.9609
13876TIP3    H263120   3.581   6.315  11.519 -0.9900  0.2056  0.0886
13877TIP3   OH263121   4.452   5.839  14.862  0.3157 -0.2871 -0.4382
13877TIP3    H163122   4.481   5.789  14.786  0.5843 -0.5932 -0.1389
13877TIP3    H263123   4.487   5.791  14.937 -0.8663 -0.6001 -0.0710
13878TIP3   OH263124   4.996   5.303   0.995 -0.3113 -0.1902 -0.0564
13878TIP3    H163125   5.054   5.347   1.057 -0.1188 -1.1456  0.4585
13878TIP3    H263126   4.978   5.369   0.927  0.0135  0.6487  0.6588
13879TIP3   OH263127   1.773   2.021   0.100  0.5537 -0.4746  0.3768
13879TIP3    H163128   1.835   2.020   0.026  1.2536 -1.6176  0.9546
13879TIP3    H263129   1.771   1.931   0.131 -0.4547 -0.1961  1.1785
13880TIP3   OH263130   6.488   3.528  11.165 -0.3550 -0.1526 -0.1979
13880TIP3    H163131   6.486   3.560  11.255  0.3238 -0.1145 -0.1897
13880TIP3    H263132   6.419   3.462  11.161  0.5711 -1.2012  0.7440
13881TIP3   OH263133   5.661   6.020   5.203 -0.0222  0.8529  0.1135
13881TIP3    H163134   5.585   5.964   5.217  0.7047 -0.1372  0.2290
13881TIP3    H263135   5.684   6.006   5.111  2.5595 -2.2605  1.0357
13882TIP3   OH263136   1.572   0.520  15.001 -0.2103 -0.2566  1.0832
13882TIP3    H163137   1.507   0.570  14.953  0.0846 -0.1946  0.7427
13882TIP3    H263138   1.542   0.429  14.995  0.1688 -0.3329  0.2109
13883TIP3   OH263139   0.600   1.020  15.062 -0.1259  0.3324  0.3064
13883TIP3    H163140   0.674   1.081  15.065  0.7447 -0.4090 -2.7053
13883TIP3    H263141   0.524   1.074  15.042  0.6418  0.5481 -2.3738
13884TIP3   OH263142   0.637   4.438  16.495  0.1010  0.8347  0.2828
13884TIP3    H163143   0.665   4.355  16.534 -1.2043  1.0743  1.8399
13884TIP3    H263144   0.570   4.413  16.431  1.0954  0.5682 -0.6893
13885TIP3   OH263145   3.470   5.300  13.319  0.5885  0.4979 -0.6465
13885TIP3    H163146   3.441   5.258  13.400  1.7041 -0.2879 -0.6365
13885TIP3    H263147   3.443   5.241  13.249  1.4310  0.1590 -0.6935
13886TIP3   OH263148   5.379   6.568   2.514 -0.3327 -0.0480  0.3306
13886TIP3    H163149   5.420   6.621   2.445 -1.8581 -0.1189 -0.6637
13886TIP3    H263150   5.450   6.510   2.543  0.9351  1.4248  0.3492
13887TIP3   OH263151   2.492   6.779  16.211  0.1495 -0.1061 -0.2859
13887TIP3    H163152   2.513   6.729  16.290  0.3782 -0.0922 -0.3367
13887TIP3    H263153   2.523   6.868  16.231 -0.2894  0.0245 -0.1808
13888TIP3   OH263154   0.434   1.353   3.641  0.0241  0.5958  0.1192
13888TIP3    H163155   0.424   1.448   3.639  2.2466  0.9006  0.5640
13888TIP3    H263156   0.515   1.336   3.592  0.5097 -0.8857  1.3262
13889TIP3   OH263157   1.301   2.775   1.314  0.4543 -0.1524 -0.6812
13889TIP3    H163158   1.374   2.726   1.277  1.6747  0.4582  0.7952
13889TIP3    H263159   1.228   2.713   1.315  1.6742 -1.6423  0.1999
13890TIP3   OH263160   5.339   1.413  16.848  0.0075  0.2583 -0.4535
13890TIP3    H163161   5.356   1.352  16.920 -0.1431  0.4469 -0.2579
13890TIP3    H263162   5.425   1.444  16.822  0.0989 -0.1687 -0.6680
13891TIP3   OH263163   2.773   3.948  14.050  0.4519 -0.0922 -0.2172
13891TIP3    H163164   2.759   3.862  14.090 -0.4797 -0.2515 -0.8306
13891TIP3    H263165   2.813   3.929  13.965  1.4739  0.1770  0.1902
13892TIP3   OH263166   2.690   2.944  15.649  0.3984  0.3081 -0.3188
13892TIP3    H163167   2.674   2.933  15.555  1.0287 -0.6254 -0.3359
13892TIP3    H263168   2.637   3.019  15.674 -0.8485 -0.2568 -1.1490
13893TIP3   OH263169   0.270   0.573  14.139  0.2918  0.0223 -0.2946
13893TIP3    H163170   0.286   0.578  14.045  1.6552  1.3799 -0.0226
13893TIP3    H263171   0.180   0.606  14.149 -0.0607 -0.6227 -1.1453
13894TIP3   OH263172   4.752   1.482   0.242  0.0213 -0.0355  0.6234
13894TIP3    H163173   4.803   1.406   0.212 -2.0569 -0.6164 -1.8859
13894TIP3    H263174   4.681   1.444   0.294 -0.5822  0.2295  0.0138
13895TIP3   OH263175   0.393   3.405   0.941 -0.1765  0.1577  0.6269
13895TIP3    H163176   0.379   3.367   1.028  0.6646  1.1552  1.2268
13895TIP3    H263177   0.305   3.422   0.908 -0.5077 -0.2026  1.2934
13896TIP3   OH263178   5.592   1.420   4.765  0.0218  0.7491 -0.2991
13896TIP3    H163179   5.614   1.510   4.790 -3.8807  1.7351  0.3016
13896TIP3    H263180   5.562   1.428   4.674  0.7039 -0.1955 -0.6216
13897TIP3   OH263181   2.716   0.971   5.628 -0.0265 -0.3986  0.0145
13897TIP3    H163182   2.756   1.043   5.675 -1.2496  0.2025  0.1797
13897TIP3    H263183   2.709   0.901   5.693 -0.2395 -0.1285  0.2863
13898TIP3   OH263184   2.436   5.116  16.126 -0.2716 -0.2142  0.0443
13898TIP3    H163185   2.414   5.076  16.042 -0.9433  0.0912  0.0684
13898TIP3    H263186   2.531   5.106  16.134 -0.0162  0.8721 -1.3332
13899TIP3   OH263187   3.019   5.468  15.550  0.2043 -0.1875  0.2407
13899TIP3    H163188   3.027   5.563  15.539 -0.7398 -0.0228  0.8696
13899TIP3    H263189   3.092   5.445  15.607 -0.1909  0.3396  0.9775
13900TIP3   OH263190   2.474   1.535  15.810  0.0926 -0.2413  0.4342
13900TIP3    H163191   2.521   1.463  15.769  0.6091 -1.0237  2.2775
13900TIP3    H263192   2.501   1.533  15.902 -1.3175  1.1336  0.9445
13901TIP3   OH263193   4.921   4.050  13.704 -0.0347 -0.7409  0.0804
13901TIP3    H163194   4.912   3.963  13.664 -0.4311 -0.8232  0.3524
13901TIP3    H263195   4.981   4.036  13.777 -0.3250 -0.8402  0.2989
13902TIP3   OH263196   4.600   3.588   1.955 -0.0217 -0.2984 -0.2004
13902TIP3    H163197   4.559   3.531   1.890 -1.0178  0.3465 -0.1537
13902TIP3    H263198   4.528   3.637   1.994  0.8183  1.2041 -0.4439
13903TIP3   OH263199   4.736   1.755  17.180 -0.2795 -0.0538  0.3335
13903TIP3    H163200   4.824   1.751  17.219 -0.2775  0.1481  0.3503
13903TIP3    H263201   4.677   1.737  17.254 -0.3130  1.0838  0.6007
13904TIP3   OH263202   1.919   6.507   1.242  0.4592  0.2077  0.2406
13904TIP3    H163203   1.876   6.522   1.326 -2.5753 -0.7015 -0.9815
13904TIP3    H263204   1.937   6.413   1.241 -3.3117 -0.7014 -1.5169
13905TIP3   OH263205   6.069   0.989   6.493 -0.6171 -0.8570  0.1200
13905TIP3    H163206   6.124   0.923   6.536 -0.4154 -2.4634 -2.4156
13905TIP3    H263207   6.122   1.069   6.495  1.8539 -2.2892 -2.0040
13906TIP3   OH263208   4.094   0.945  15.073 -0.7084  0.3885 -0.2931
13906TIP3    H163209   4.138   0.889  15.009  0.3952 -0.3204  1.0321
13906TIP3    H263210   4.002   0.921  15.067 -0.5218 -0.1541 -1.1292
13907TIP3   OH263211   4.568   2.007  16.918  0.2903  0.4013  0.1826
13907TIP3    H163212   4.514   1.990  16.841 -1.5900 -0.3427  1.5763
13907TIP3    H263213   4.634   1.937  16.917 -0.3627 -0.2265 -0.2149
13908TIP3   OH263214   4.945   3.060   1.955  0.4627  0.1501  0.0195
13908TIP3    H163215   4.897   3.017   1.884  0.1288 -0.2467  0.4812
13908TIP3    H263216   5.032   3.020   1.953  0.4506  0.1289 -0.1481
13909TIP3   OH263217   3.216   6.475  14.895  0.7329 -0.2034 -0.1837
13909TIP3    H163218   3.302   6.492  14.934 -0.0350 -0.6790  1.8514
13909TIP3    H263219   3.164   6.439  14.967 -0.9746 -0.5910 -1.5449
13910TIP3   OH263220   4.341   4.532  16.537  0.1171  0.2087  0.2506
13910TIP3    H163221   4.413   4.587  16.506 -0.3382  0.9919  0.5503
13910TIP3    H263222   4.319   4.477  16.461  2.5998 -1.8130  0.8596
13911TIP3   OH263223   0.022   3.406   6.313 -0.0659 -0.1235  0.2312
13911TIP3    H163224   0.034   3.466   6.387  0.8185  1.2854 -1.0135
13911TIP3    H263225  -0.035   3.337   6.348  1.3340 -0.2016  2.6023
13912TIP3   OH263226   6.038   5.212   3.669 -0.1871  0.3417 -0.9390
13912TIP3    H163227   6.066   5.174   3.587 -2.1559 -2.1496 -0.5798
13912TIP3    H263228   6.104   5.185   3.733  0.3508  0.6967 -1.3389
13913TIP3   OH263229   5.574   5.972  12.445  0.0173 -0.3244  0.6076
13913TIP3    H163230   5.526   5.914  12.386  1.5858 -0.5394 -0.5031
13913TIP3    H263231   5.645   5.918  12.479 -1.6134 -0.6577  3.8816
13914TIP3   OH263232   5.750   5.801  13.667 -0.1289 -0.8368  0.1319
13914TIP3    H163233   5.800   5.747  13.728  0.0885 -0.6995  0.0726
13914TIP3    H263234   5.766   5.760  13.582  1.3742  0.2944 -0.1589
13915TIP3   OH263235   3.595   3.305   3.739 -0.2663  0.2892 -0.7198
13915TIP3    H163236   3.674   3.266   3.702 -0.1702 -0.9758  0.7182
13915TIP3    H263237   3.523   3.272   3.685 -0.3317 -3.0334  1.1205
13916TIP3   OH263238   4.086   0.095   3.774  0.4429  0.3874 -0.0775
13916TIP3    H163239   4.100   0.162   3.707 -0.8688  1.1599  0.3797
13916TIP3    H263240   4.078   0.013   3.726  0.3731  0.8030 -0.7889
13917TIP3   OH263241   3.105   5.513  17.113  0.3998 -0.0977 -0.4244
13917TIP3    H163242   3.160   5.499  17.035  2.5050 -1.2966  1.1905
13917TIP3    H263243   3.125   5.603  17.139  1.6614 -0.5320  0.1623
13918TIP3   OH263244   0.572   5.073  12.070  0.1162  0.0799  0.0851
13918TIP3    H163245   0.657   5.031  12.061 -0.5218 -1.5726  1.2674
13918TIP3    H263246   0.511   5.013  12.026 -0.6486  0.4348  0.6282
13919TIP3   OH263247   3.887   0.440   1.088 -0.0580 -0.3784 -0.1146
13919TIP3    H163248   3.941   0.380   1.139  0.8612  0.5521  0.0319
13919TIP3    H263249   3.949   0.493   1.038 -0.8409  0.5247 -0.1723
13920TIP3   OH263250   5.250   6.199   5.253 -0.3461  0.3105  0.3495
13920TIP3    H163251   5.292   6.153   5.180 -1.3782 -0.3504  0.1568
13920TIP3    H263252   5.267   6.144   5.329 -0.2677  0.4040  0.4002
13921TIP3   OH263253   5.891   1.794  16.137  0.6563 -0.2491  0.2390
13921TIP3    H163254   5.872   1.777  16.044 -2.5557  2.4654  0.2265
13921TIP3    H263255   5.945   1.873  16.136 -0.9674  0.8992  0.6622
13922TIP3   OH263256   4.686   3.553  10.893  0.4291  0.1298 -0.0113
13922TIP3    H163257   4.619   3.575  10.957 -0.3601 -0.6336 -0.5512
13922TIP3    H263258   4.722   3.638  10.866 -1.2935  0.6717 -0.7282
13923TIP3   OH263259   4.545   3.742  12.924  0.4081  0.3871 -0.3095
13923TIP3    H163260   4.524   3.754  13.016 -2.2174 -0.8013 -0.6552
13923TIP3    H263261   4.547   3.647  12.912 -1.6433  0.4557 -1.8413
13924TIP3   OH263262   5.326   4.208   2.601  0.2448  0.1441 -0.2042
13924TIP3    H163263   5.401   4.162   2.639 -1.4311 -2.5439  0.1660
13924TIP3    H263264   5.347   4.216   2.508  1.1556 -0.1594 -0.0373
13925TIP3   OH263265   0.764   3.969   1.449 -0.0429 -0.1842  0.7896
13925TIP3    H163266   0.724   4.043   1.403 -0.8143 -0.2998  1.2533
13925TIP3    H263267   0.734   3.978   1.540 -2.1542 -2.3813  0.4033
13926TIP3   OH263268   4.896   3.672  12.291 -0.5508  0.3835 -0.5933
13926TIP3    H163269   4.951   3.708  12.221  0.6048 -0.5039 -0.1742
13926TIP3    H263270   4.889   3.579  12.270  0.2572 -0.0045  0.7414
13927TIP3   OH263271   5.392   4.114  16.702  0.0942 -0.2762 -0.1310
13927TIP3    H163272   5.367   4.120  16.794 -0.0647 -2.1786 -0.0093
13927TIP3    H263273   5.389   4.205  16.670 -1.8342  0.1906  1.2104
13928TIP3   OH263274   1.187   5.030  12.766  0.4113 -0.9897  0.3799
13928TIP3    H163275   1.240   5.044  12.844  1.5527 -0.7722 -0.4087
13928TIP3    H263276   1.131   5.107  12.760  1.3028 -0.3379  0.2372
13929TIP3   OH263277   3.101   4.044   2.749  0.0865 -0.9086  0.2506
13929TIP3    H163278   3.175   4.042   2.810 -0.8645  0.7059  1.5122
13929TIP3    H263279   3.026   4.014   2.800 -0.5933 -0.1956 -0.3008
13930TIP3   OH263280   6.429   0.997  13.970 -0.2224  0.3092 -0.7046
13930TIP3    H163281   6.468   1.083  13.963 -0.5452  0.4683 -0.5694
13930TIP3    H263282   6.402   0.990  14.062 -2.0493  0.8817 -1.1569
13931TIP3   OH263283   2.630   3.727  11.833  0.5920  0.3338  0.2325
13931TIP3    H163284   2.696   3.671  11.793 -2.1166 -2.1340 -1.1673
13931TIP3    H263285   2.626   3.699  11.924  0.7218 -0.2701  0.0550
13932TIP3   OH263286   5.374   3.791  13.369  0.2196  0.0132 -0.2889
13932TIP3    H163287   5.375   3.834  13.454 -0.8042 -1.3391  0.4667
13932TIP3    H263288   5.281   3.773  13.353  0.4975 -0.7395 -1.1545
13933TIP3   OH263289   3.857   2.711   0.103  0.1639 -0.5650  0.2500
13933TIP3    H163290   3.937   2.669   0.071 -0.1911 -1.4546  0.4848
13933TIP3    H263291   3.788   2.647   0.085 -0.8985  1.0777 -2.0176
13934TIP3   OH263292   3.975   5.405   1.142 -0.3662 -0.4378 -0.5778
13934TIP3    H163293   4.034   5.448   1.080 -0.6976 -0.8053 -1.1566
13934TIP3    H263294   4.031   5.381   1.216  0.4962 -1.9279 -1.6609
13935TIP3   OH263295   6.749   3.085   3.647 -0.1742  0.1288 -0.0262
13935TIP3    H163296   6.722   3.009   3.698  0.9332 -1.1303 -1.2203
13935TIP3    H263297   6.671   3.113   3.601 -1.3933  1.7179  2.7240
13936TIP3   OH263298   6.065   0.839   6.262  0.5430 -0.4819 -0.1583
13936TIP3    H163299   6.002   0.767   6.266  0.2925 -0.2104  1.2374
13936TIP3    H263300   6.043   0.894   6.337  2.1914 -0.1861  0.1415
13937TIP3   OH263301   6.290   5.003   1.806  0.0699 -0.1327 -0.7439
13937TIP3    H163302   6.378   4.982   1.836  1.1300  2.5266 -1.6542
13937TIP3    H263303   6.250   5.049   1.879 -1.3466 -2.9415  0.3660
13938TIP3   OH263304   4.204   4.134   2.331  0.0382  0.1943 -0.0072
13938TIP3    H163305   4.201   4.047   2.293  1.6489 -0.6264  1.6073
13938TIP3    H263306   4.212   4.119   2.425 -0.2885  2.1053  0.3711
13939TIP3   OH263307   2.545   6.820   4.150  0.4811  0.2606 -0.3419
13939TIP3    H163308   2.612   6.769   4.195  0.6643 -0.2521 -1.1814
13939TIP3    H263309   2.472   6.824   4.212  1.1960  0.6439  0.4936
13940TIP3   OH263310   6.735   2.476   2.958 -0.3433 -0.1764  0.0061
13940TIP3    H163311   6.712   2.517   2.875 -2.7642  1.0596  1.1913
13940TIP3    H263312   6.697   2.388   2.953  0.2234 -0.4006 -0.4817
13941TIP3   OH263313   2.832   1.802  13.772 -0.6616 -0.2169 -0.1848
13941TIP3    H163314   2.784   1.727  13.737  0.1537 -1.4656  1.2369
13941TIP3    H263315   2.905   1.763  13.821  1.4002  1.5903 -1.6508
13942TIP3   OH263316   0.228   6.051  12.895  0.5207 -0.0454  0.3584
13942TIP3    H163317   0.225   6.072  12.988  1.7742 -0.7190  0.5721
13942TIP3    H263318   0.249   5.957  12.892 -2.4802 -0.7833 -0.5852
13943TIP3   OH263319   5.973   3.843  17.149  0.2651 -0.0845  0.1360
13943TIP3    H163320   5.909   3.906  17.116  0.0565  2.3701  4.5280
13943TIP3    H263321   5.926   3.760  17.153 -1.2684  0.7088 -0.5596
13944TIP3   OH263322   6.533   1.735  12.508  0.0714 -0.6071 -0.0212
13944TIP3    H163323   6.531   1.805  12.574  2.3784 -1.5170  1.1258
13944TIP3    H263324   6.452   1.747  12.458  0.8169  3.4582 -0.5398
13945TIP3   OH263325   4.909   5.695  15.858 -0.6831  0.3455  0.0841
13945TIP3    H163326   5.002   5.716  15.852 -0.9703  1.7250  0.2162
13945TIP3    H263327   4.888   5.706  15.951 -0.7006 -1.3061  0.3130
13946TIP3   OH263328   2.794   1.698   3.926 -0.3075  0.3011 -0.0702
13946TIP3    H163329   2.748   1.776   3.954 -2.3377 -1.1665  0.9579
13946TIP3    H263330   2.794   1.702   3.831 -1.2297  1.0922 -0.0460
13947TIP3   OH263331   4.662   6.528  15.120 -0.0846 -0.2745  0.1337
13947TIP3    H163332   4.665   6.531  15.216  0.3651  0.6407  0.0978
13947TIP3    H263333   4.654   6.619  15.094 -2.1938 -0.6264 -0.6549
13948TIP3   OH263334   5.914   4.570   4.141  0.0562 -0.1009  0.9333
13948TIP3    H163335   5.826   4.606   4.144  0.8112  2.0051 -0.1952
13948TIP3    H263336   5.950   4.583   4.229  1.1855  4.5568  0.0347
13949TIP3   OH263337   0.683   1.016   1.123  0.2222 -0.4287 -0.2899
13949TIP3    H163338   0.768   1.052   1.150 -0.3414 -0.9505  2.3999
13949TIP3    H263339   0.619   1.076   1.160 -0.6470 -2.0886  1.0123
13950TIP3   OH263340   2.528   4.046   1.982 -0.1073  0.1158 -0.1892
13950TIP3    H163341   2.499   4.135   1.959 -0.6663 -0.4189 -1.6340
13950TIP3    H263342   2.447   3.997   1.993  0.2060 -0.4837 -0.5217
13951TIP3   OH263343   2.582   4.273   4.069  0.1155 -0.1743  0.1966
13951TIP3    H163344   2.568   4.354   4.020 -0.3800 -0.6741 -0.5092
13951TIP3    H263345   2.610   4.210   4.003 -5.1696 -2.2582 -0.5719
13952TIP3   OH263346   3.539   2.329   1.942  0.3583  0.2148 -0.2998
13952TIP3    H163347   3.518   2.283   2.024 -0.7183 -1.0502 -1.2358
13952TIP3    H263348   3.635   2.334   1.942  0.5563 -2.1455 -0.1565
13953TIP3   OH263349   2.011   3.827  15.795  0.0575  0.1172 -0.3256
13953TIP3    H163350   2.035   3.784  15.877 -0.1909 -0.6248 -0.6324
13953TIP3    H263351   1.951   3.897  15.821  0.0409 -0.0639  0.1278
13954TIP3   OH263352   1.239   0.563  12.556 -0.6799  0.1194  0.7562
13954TIP3    H163353   1.172   0.628  12.580 -0.7305 -0.5424  2.6291
13954TIP3    H263354   1.299   0.610  12.498 -2.2126  1.0155 -0.1563
13955TIP3   OH263355   3.705   0.072   4.895  0.4068 -0.2742 -0.0497
13955TIP3    H163356   3.738   0.121   4.971  1.5411  0.0063 -0.7021
13955TIP3    H263357   3.756   0.105   4.821 -1.5848  0.4205 -1.2024
13956TIP3   OH263358   1.245   4.035  10.071 -0.5148  0.8769 -0.1388
13956TIP3    H163359   1.309   4.037  10.142 -0.8557  0.3705  0.1853
13956TIP3    H263360   1.298   4.018   9.992 -0.2891  0.0050  0.1846
13957TIP3   OH263361   6.767   5.407   1.204  0.1186 -0.1378  0.0894
13957TIP3    H163362   6.855   5.444   1.194 -0.0845  0.0858 -0.9815
13957TIP3    H263363   6.710   5.466   1.155 -0.3446 -1.3124 -0.8503
13958TIP3   OH263364   3.291   4.419  11.299 -0.0047 -0.2608 -0.1435
13958TIP3    H163365   3.328   4.411  11.386 -0.3565 -2.1296 -0.1209
13958TIP3    H263366   3.219   4.356  11.298 -0.1694 -0.0853 -1.6936
13959TIP3   OH263367   4.993   2.755  12.339  0.4368  0.1750  0.2266
13959TIP3    H163368   5.052   2.680  12.334 -0.9355 -0.9672  0.5876
13959TIP3    H263369   4.987   2.786  12.248  0.3015 -0.7349 -0.0840
13960TIP3   OH263370   1.752   2.280  13.790 -0.5612 -0.0037  0.5618
13960TIP3    H163371   1.795   2.332  13.858 -2.8079  0.9728  1.3572
13960TIP3    H263372   1.745   2.192  13.827  1.6354 -0.4829 -0.0395
13961TIP3   OH263373   5.177   0.092  14.463  0.3017  0.2917  0.5720
13961TIP3    H163374   5.159   0.131  14.548  1.3898 -1.3440  1.6188
13961TIP3    H263375   5.236   0.154  14.420 -0.9813  1.5684  0.5960
13962TIP3   OH263376   6.411   5.353   0.695 -0.0131 -0.3545  0.0822
13962TIP3    H163377   6.321   5.322   0.706 -0.0933 -0.1333  0.0688
13962TIP3    H263378   6.441   5.312   0.615  0.0156 -0.7016  0.2718
13963TIP3   OH263379   3.489   5.521  12.428 -0.0820  0.0399  0.6537
13963TIP3    H163380   3.498   5.616  12.437 -0.9009  0.1503  0.3419
13963TIP3    H263381   3.404   5.501  12.467 -0.5943 -0.3648 -0.6199
13964TIP3   OH263382   0.988   1.408  17.155 -0.6467 -0.0863 -0.2126
13964TIP3    H163383   1.082   1.411  17.138 -0.6780  1.2145 -0.2927
13964TIP3    H263384   0.950   1.371  17.075 -0.3620  1.2451 -0.9927
13965TIP3   OH263385   3.034   4.919   5.741  0.2921 -0.9360 -0.1551
13965TIP3    H163386   2.958   4.957   5.697  1.4634  0.1876 -1.2940
13965TIP3    H263387   3.044   4.972   5.821 -0.4449 -1.4662  0.3002
13966TIP3   OH263388   0.532   1.912  13.710 -0.0228  0.1394 -0.2762
13966TIP3    H163389   0.506   1.934  13.621  1.4466  0.9852 -0.5364
13966TIP3    H263390   0.618   1.871  13.701  1.0848  2.0232  0.8422
13967TIP3   OH263391   2.222   2.797  11.423 -0.4335  0.1143  0.1627
13967TIP3    H163392   2.163   2.779  11.496  1.3577 -2.6419  1.0469
13967TIP3    H263393   2.234   2.892  11.425 -2.3902  0.3981  1.8271
13968TIP3   OH263394   2.769   0.987   0.552 -0.9901  0.0891 -0.2376
13968TIP3    H163395   2.762   1.015   0.461  0.2383  0.3396 -0.2725
13968TIP3    H263396   2.712   0.911   0.558 -0.5730 -0.3326 -1.3939
13969TIP3   OH263397   6.822   1.601   4.587 -0.2119  0.4635 -0.2678
13969TIP3    H163398   6.858   1.690   4.584 -0.3325  0.4966 -1.0453
13969TIP3    H263399   6.838   1.572   4.676  1.3462  0.6383 -0.4529
13970TIP3   OH263400   5.980   3.074   5.777  0.1960  0.2074 -0.1121
13970TIP3    H163401   5.946   3.094   5.689 -2.6669  1.8784  1.2148
13970TIP3    H263402   5.916   3.013   5.814 -0.0096  1.3792  1.5823
13971TIP3   OH263403   3.904   4.745   4.268 -0.6539 -0.1999 -0.4291
13971TIP3    H163404   3.940   4.824   4.309 -0.4933  0.3450 -1.5609
13971TIP3    H263405   3.818   4.773   4.235 -0.1842 -0.1793 -1.7217
13972TIP3   OH263406   3.538   1.688   5.427  0.1148 -0.5385  0.1736
13972TIP3    H163407   3.472   1.631   5.388 -0.6707  1.7351 -2.1148
13972TIP3    H263408   3.501   1.776   5.420  3.7406  1.0778 -2.4908
13973TIP3   OH263409   2.609   4.260  16.087 -0.2277 -0.2359 -0.6510
13973TIP3    H163410   2.673   4.326  16.061  0.1142  0.1838  1.1315
13973TIP3    H263411   2.534   4.311  16.119 -0.1296 -0.6929  0.3352
13974TIP3   OH263412   5.024   3.869  16.545 -0.6377  0.2030  0.3025
13974TIP3    H163413   4.992   3.779  16.541 -1.1703  0.2868  1.9949
13974TIP3    H263414   5.114   3.863  16.514 -0.9521 -0.7382 -0.5062
13975TIP3   OH263415   5.254   4.306   4.176 -0.5614  0.3020 -0.0048
13975TIP3    H163416   5.251   4.249   4.099 -0.3146  0.0005  0.2070
13975TIP3    H263417   5.347   4.318   4.193 -0.6016  1.1338 -0.3106
13976TIP3   OH263418   4.924   2.978  11.620  0.1517  0.1911  0.1742
13976TIP3    H163419   5.012   2.940  11.620  0.9323  1.8871  0.3417
13976TIP3    H263420   4.932   3.057  11.567 -0.9941  0.9763  1.1174
13977TIP3   OH263421   2.986   2.342  15.287  0.3549  0.2597 -0.1858
13977TIP3    H163422   2.972   2.249  15.270  2.2729  0.0700 -0.8831
13977TIP3    H263423   3.022   2.345  15.375 -0.8102  0.4706  0.3027
13978TIP3   OH263424   4.927   2.904  12.122  0.2321  0.3929 -0.1535
13978TIP3    H163425   4.834   2.918  12.136  0.1630  0.0721 -0.2755
13978TIP3    H263426   4.937   2.900  12.027 -0.1420 -2.7256 -0.1779
13979TIP3   OH263427   2.220   5.364  12.047  0.2765 -0.9600  1.1225
13979TIP3    H163428   2.137   5.382  12.092  0.6934  1.0547  1.1679
13979TIP3    H263429   2.287   5.379  12.113  0.7295 -3.6569  1.4148
13980TIP3   OH263430   4.360   1.015   3.744  0.6193  0.0383 -0.1703
13980TIP3    H163431   4.377   0.970   3.827  0.3239 -2.2554 -1.2713
13980TIP3    H263432   4.446   1.030   3.706  0.6758 -1.2834 -0.6038
13981TIP3   OH263433   6.628   4.725  12.119 -0.1038 -0.8517  0.6230
13981TIP3    H163434   6.709   4.764  12.090 -0.9015  1.4781  1.3361
13981TIP3    H263435   6.648   4.631  12.127  2.9289 -0.1956  2.1932
13982TIP3   OH263436   0.981   3.682  12.543  0.2716 -0.0974  0.0210
13982TIP3    H163437   0.915   3.624  12.505 -0.0871 -1.1728  2.1749
13982TIP3    H263438   0.932   3.761  12.567 -0.1156 -0.6091  0.9565
13983TIP3   OH263439   4.614   4.981  15.713 -0.3465  0.2105 -0.1813
13983TIP3    H163440   4.610   4.972  15.618  1.1066 -0.2714 -0.2175
13983TIP3    H263441   4.523   4.992  15.740 -0.7028  1.2712 -1.7098
13984TIP3   OH263442   4.456   4.206   1.089 -0.0781  0.0611  0.1195
13984TIP3    H163443   4.468   4.283   1.033  0.8400  0.3748  0.7218
13984TIP3    H263444   4.416   4.241   1.169 -1.7756 -0.4467 -0.4624
13985TIP3   OH263445   6.581   4.383  14.268  0.4117 -0.7484  0.4463
13985TIP3    H163446   6.512   4.448  14.255  1.0487 -0.5226 -2.6216
13985TIP3    H263447   6.536   4.299  14.259  0.0860 -0.7184  1.5426
13986TIP3   OH263448   0.393   5.486  14.791 -0.5695  0.4155  0.5177
13986TIP3    H163449   0.411   5.500  14.698 -0.8226 -0.9383  0.2334
13986TIP3    H263450   0.310   5.438  14.791 -1.2878  1.6300  1.5183
13987TIP3   OH263451   2.581   4.009  14.982  0.1283  0.2337  0.1248
13987TIP3    H163452   2.518   4.011  14.910  0.8419  1.6123 -0.4770
13987TIP3    H263453   2.648   4.072  14.958  1.7900 -1.2081  0.7424
13988TIP3   OH263454   6.616   2.100  14.129 -0.2551  0.2862  0.0324
13988TIP3    H163455   6.634   2.006  14.134 -1.3124  0.0847  0.3017
13988TIP3    H263456   6.528   2.106  14.091 -1.3493  1.0292  2.4597
13989TIP3   OH263457   0.769   4.529   5.788  0.8140 -0.3077 -0.1410
13989TIP3    H163458   0.760   4.443   5.831 -0.1841 -0.4685 -0.6393
13989TIP3    H263459   0.735   4.515   5.700 -2.4354  1.3397  0.6962
13990TIP3   OH263460   1.960   1.141   3.309  0.2340 -0.3894 -0.2557
13990TIP3    H163461   2.024   1.107   3.371 -0.9917  0.0815  1.3243
13990TIP3    H263462   1.964   1.236   3.319 -0.2840 -0.3288 -0.5735
13991TIP3   OH263463   4.468   5.101  14.614 -0.3813  0.0807 -0.3467
13991TIP3    H163464   4.394   5.113  14.674 -1.0176  0.0032 -1.1069
13991TIP3    H263465   4.474   5.006  14.602  0.6592 -0.0097  0.7068
13992TIP3   OH263466   4.647   6.398  16.725  0.0490  0.1625  0.1368
13992TIP3    H163467   4.604   6.318  16.755 -0.1491 -0.1408 -0.9348
13992TIP3    H263468   4.699   6.427  16.800 -0.0406 -0.8523  0.6001
13993TIP3   OH263469   6.134   3.704   4.184  0.7153  0.2612  0.6841
13993TIP3    H163470   6.207   3.654   4.220  1.0672 -0.1173 -0.5216
13993TIP3    H263471   6.061   3.686   4.244  1.1096 -0.8622  0.8550
13994TIP3   OH263472   5.499   6.608   3.199  0.3777 -0.0331 -0.1838
13994TIP3    H163473   5.468   6.668   3.267 -1.1068  1.0050 -1.7000
13994TIP3    H263474   5.440   6.533   3.203 -0.7237  0.7367 -1.3073
13995TIP3   OH263475   1.286   5.498   4.475 -0.2001  0.3739 -0.0580
13995TIP3    H163476   1.351   5.434   4.448 -0.9772 -0.7538  0.6433
13995TIP3    H263477   1.209   5.478   4.422  0.0656  1.8635 -1.0731
13996TIP3   OH263478   0.149   4.361   1.365  0.0332 -0.2824  0.3800
13996TIP3    H163479   0.058   4.338   1.347 -1.2905  4.1463  0.2363
13996TIP3    H263480   0.166   4.326   1.452 -2.0799 -0.5679  0.7396
13997TIP3   OH263481   1.138   3.858   0.298  0.2253 -0.5051  0.4955
13997TIP3    H163482   1.140   3.944   0.341  1.7451  0.5044 -1.4639
13997TIP3    H263483   1.052   3.855   0.256  0.3594  0.2911  0.1511
13998TIP3   OH263484   2.125   5.742  11.883  0.4889  0.2862 -0.1891
13998TIP3    H163485   2.157   5.719  11.796 -0.9401  0.1244 -0.6932
13998TIP3    H263486   2.098   5.659  11.922 -0.8536  0.5820 -0.4308
13999TIP3   OH263487   5.274   3.707  11.706  0.1328  0.1019  0.5767
13999TIP3    H163488   5.284   3.612  11.712 -0.1662 -0.0480 -0.8984
13999TIP3    H263489   5.248   3.734  11.794 -1.8834 -1.4625  0.5453
14000TIP3   OH263490   0.832   3.051   1.876 -0.8677 -0.0810 -0.3567
14000TIP3    H163491   0.769   2.981   1.860  0.1968 -1.2689  0.4861
14000TIP3    H263492   0.918   3.008   1.869 -0.0371  1.7178 -2.6736
14001TIP3   OH263493   3.640   3.011  13.142  0.5457 -0.1716  0.0219
14001TIP3    H163494   3.563   3.066  13.159  0.4425 -0.0252 -0.8857
14001TIP3    H263495   3.715   3.067  13.161  0.4361 -0.3649  1.0686
14002TIP3   OH263496   2.399   2.538   6.135  0.0305 -0.0982 -0.3985
14002TIP3    H163497   2.379   2.478   6.207 -0.4707  1.3436  0.7195
14002TIP3    H263498   2.488   2.514   6.109  0.9901  0.5309  1.9997
14003TIP3   OH263499   6.093   0.509  13.902 -0.1786 -0.1785 -0.9725
14003TIP3    H163500   6.051   0.567  13.838  0.7700  3.7030  1.5477
14003TIP3    H263501   6.050   0.529  13.984  1.5450 -1.6942  0.3940
14004TIP3   OH263502   6.235   4.887   3.521  0.3935 -0.1657  0.0791
14004TIP3    H163503   6.314   4.863   3.473  1.4902  0.0336  1.7245
14004TIP3    H263504   6.266   4.915   3.607 -1.4198  0.5693  0.5402
14005TIP3   OH263505   0.752   6.221  10.964 -0.1349 -0.2795 -0.1916
14005TIP3    H163506   0.745   6.300  10.911 -0.1426 -0.9569 -1.2276
14005TIP3    H263507   0.811   6.164  10.915  0.2097 -0.7540  0.7515
14006TIP3   OH263508   3.169   5.511  16.459  0.2761  0.1068  0.2466
14006TIP3    H163509   3.077   5.486  16.450  0.0101  0.6431  1.2879
14006TIP3    H263510   3.189   5.557  16.378 -0.9676  1.7052  0.7921
14007TIP3   OH263511   5.021   0.026  11.702  0.5566 -0.2625 -0.5463
14007TIP3    H163512   4.938  -0.016  11.682  0.3285 -0.3607  0.5377
14007TIP3    H263513   5.042   0.077  11.624 -0.5776 -0.1452 -0.7835
14008TIP3   OH263514   6.168   3.584   2.124 -0.0697  0.2938 -0.0740
14008TIP3    H163515   6.218   3.664   2.109 -0.1389  0.4926  0.7152
14008TIP3    H263516   6.082   3.601   2.086 -0.0900  0.6005  0.1079
14009TIP3   OH263517   4.158   0.390  15.333  0.0629  0.2391  0.1021
14009TIP3    H163518   4.079   0.339  15.352 -0.1809  0.7174  0.4035
14009TIP3    H263519   4.200   0.401  15.418  2.3406 -2.9729 -0.4216
14010TIP3   OH263520   5.862   2.937  13.218 -0.2569 -0.2783  0.1410
14010TIP3    H163521   5.946   2.908  13.182 -1.4646 -1.2870 -2.1393
14010TIP3    H263522   5.885   2.999  13.287  2.3386  0.3029 -1.1151
14011TIP3   OH263523   3.399   2.679   0.935 -0.1964  0.0008  0.0431
14011TIP3    H163524   3.376   2.644   0.849 -0.8174 -0.4663  0.4016
14011TIP3    H263525   3.495   2.680   0.935 -0.1835  0.5967 -0.8898
14012TIP3   OH263526   2.084   0.858   3.247 -0.6343  0.1558 -0.4845
14012TIP3    H163527   2.165   0.865   3.297 -0.5961  0.1379 -0.5443
14012TIP3    H263528   2.093   0.921   3.176 -0.5735 -0.0137 -0.6269
14013TIP3   OH263529   5.986   2.310   3.723  0.3847 -0.0521 -0.1206
14013TIP3    H163530   5.969   2.382   3.663  0.7180  0.1919  0.0758
14013TIP3    H263531   5.938   2.236   3.686 -0.8642  0.5411  0.2624
14014TIP3   OH263532   0.719   4.665   5.447 -0.1192  0.0856 -0.4606
14014TIP3    H163533   0.739   4.757   5.433  0.6150 -0.0954 -0.6562
14014TIP3    H263534   0.656   4.643   5.378  1.4222 -0.1163 -1.8787
14015TIP3   OH263535   0.378   3.469   4.973 -0.1877 -0.3770  0.0760
14015TIP3    H163536   0.466   3.490   5.002 -0.4601 -0.5427  1.0522
14015TIP3    H263537   0.321   3.524   5.026 -0.7118 -0.8475  0.0130
14016TIP3   OH263538   2.784   6.305  13.154  0.1654  0.3975 -0.5545
14016TIP3    H163539   2.771   6.212  13.137  0.3683  0.6145 -1.9970
14016TIP3    H263540   2.743   6.349  13.079 -0.8096  1.5267  0.5806
14017TIP3   OH263541   0.890   5.922  13.067 -0.3510 -0.2071 -0.3721
14017TIP3    H163542   0.804   5.962  13.081  0.3377  1.1232  0.1410
14017TIP3    H263543   0.919   5.895  13.154  0.3426  0.6044 -0.3406
14018TIP3   OH263544   1.131   5.799  15.155 -0.7211  0.4356  0.3904
14018TIP3    H163545   1.204   5.855  15.129  1.5122 -3.3040 -2.2419
14018TIP3    H263546   1.080   5.787  15.075 -1.4932 -0.7924  1.0278
14019TIP3   OH263547   2.408   3.405  14.134 -0.2568 -0.1521 -0.2467
14019TIP3    H163548   2.337   3.345  14.158 -0.6007  0.2507 -0.2428
14019TIP3    H263549   2.376   3.491  14.159  0.9120 -0.1187  1.2801
14020TIP3   OH263550   1.703   5.628   1.037  0.3396 -0.2085  0.7366
14020TIP3    H163551   1.641   5.658   0.971 -0.4951  1.9443  2.3745
14020TIP3    H263552   1.789   5.642   0.997 -0.1480 -0.7784 -0.5821
14021TIP3   OH263553   3.204   4.143  11.992  0.9501  0.3613  0.0642
14021TIP3    H163554   3.174   4.056  12.019  0.7764  0.4184  0.0597
14021TIP3    H263555   3.288   4.127  11.950 -0.3118 -0.1741 -2.4572
14022TIP3   OH263556   4.744   6.515   0.032  0.6996  0.0363  0.4798
14022TIP3    H163557   4.771   6.570  -0.042 -2.3062  0.9376 -0.0784
14022TIP3    H263558   4.690   6.572   0.087  0.1741 -1.4919  1.6302
14023TIP3   OH263559   4.876   5.517   3.913 -0.0124 -0.6034 -0.3545
14023TIP3    H163560   4.822   5.515   3.834 -1.7215  0.1080  0.7418
14023TIP3    H263561   4.966   5.507   3.881 -0.5346  0.9312 -2.5064
14024TIP3   OH263562   1.214   4.951   5.533  0.6286 -0.4286  0.0003
14024TIP3    H163563   1.158   5.026   5.554 -0.8773 -1.0554 -1.4967
14024TIP3    H263564   1.205   4.892   5.608  0.3937  0.0974  0.3905
14025TIP3   OH263565   2.386   0.599   4.110  0.4212  0.1886 -0.4882
14025TIP3    H163566   2.435   0.520   4.088 -0.3476 -0.4606  0.0544
14025TIP3    H263567   2.363   0.637   4.025 -1.3073 -1.5233 -0.8561
14026TIP3   OH263568   1.145   4.712  14.372 -0.1541 -0.1535 -0.0630
14026TIP3    H163569   1.136   4.730  14.278  0.5095  0.7971  0.0394
14026TIP3    H263570   1.142   4.617  14.379  0.9837 -0.2936 -1.1824
14027TIP3   OH263571   5.181   0.333  15.020 -0.1706  0.4103 -0.6231
14027TIP3    H163572   5.238   0.294  14.954 -0.6504  1.9429 -2.0368
14027TIP3    H263573   5.149   0.414  14.979 -1.8544  0.5609  0.8444
14028TIP3   OH263574   1.181   4.464  16.430 -0.4159  0.3973 -0.6352
14028TIP3    H163575   1.209   4.552  16.455 -0.7014  0.4042 -0.3221
14028TIP3    H263576   1.155   4.423  16.513 -0.0071 -0.0815 -0.7443
14029TIP3   OH263577   0.725   2.665  13.850  1.2689  0.1785  0.7026
14029TIP3    H163578   0.673   2.585  13.840  0.8373  0.1611  2.6607
14029TIP3    H263579   0.720   2.708  13.765 -0.3226 -0.7905  0.2676
14030TIP3   OH263580   6.476   4.584  12.631  0.0175  0.2282  0.3721
14030TIP3    H163581   6.430   4.645  12.689  0.2144  1.0888 -0.3455
14030TIP3    H263582   6.442   4.604  12.544  0.6273 -0.1902  0.0323
14031TIP3   OH263583   0.287   4.555  14.325  0.2223  0.2024  0.2483
14031TIP3    H163584   0.288   4.549  14.230  0.4435 -1.7789  0.3413
14031TIP3    H263585   0.348   4.488  14.355 -0.6222  0.0640  1.7955
14032TIP3   OH263586   5.557   3.446  11.875 -0.6653  0.2392 -0.1517
14032TIP3    H163587   5.536   3.423  11.965  1.6581 -0.3357  0.3233
14032TIP3    H263588   5.649   3.422  11.866 -0.5905  1.1694 -2.3984
14033TIP3   OH263589   0.321   2.766   2.553  0.2104  0.3285  0.5980
14033TIP3    H163590   0.296   2.793   2.465  1.8252  0.0103  0.0122
14033TIP3    H263591   0.239   2.770   2.603 -0.6942  0.7229 -0.8430
14034TIP3   OH263592   0.325   3.419  13.122  0.1017 -0.7106 -0.2236
14034TIP3    H163593   0.276   3.337  13.133  1.1622 -1.5113 -1.3143
14034TIP3    H263594   0.288   3.459  13.044 -0.6969  0.0823  0.5394
14035TIP3   OH263595   6.454   3.460  16.516  0.0104  0.3641  0.2829
14035TIP3    H163596   6.517   3.408  16.467  0.6520  0.2209  1.2245
14035TIP3    H263597   6.487   3.550  16.509 -0.9846  0.6530 -1.1718
14036TIP3   OH263598   4.221   1.219  14.365  0.3472 -0.0519 -0.7802
14036TIP3    H163599   4.205   1.313  14.361 -0.5518  0.3168  4.4423
14036TIP3    H263600   4.150   1.180  14.315  0.0429  1.9544 -2.0254
14037TIP3   OH263601   3.340   0.879  16.805 -0.5390  0.2459  0.5598
14037TIP3    H163602   3.282   0.803  16.809  0.5619 -0.6636 -0.0855
14037TIP3    H263603   3.365   0.884  16.712  0.4958  0.5454  0.8499
14038TIP3   OH263604   0.363   3.210   4.856 -0.3280  0.3272 -0.3072
14038TIP3    H163605   0.348   3.284   4.914 -0.6024  0.1240 -0.1122
14038TIP3    H263606   0.440   3.165   4.893 -2.0976 -1.3725  1.5640
14039TIP3   OH263607   3.716   2.806  16.906 -0.1950 -0.1905 -0.2184
14039TIP3    H163608   3.656   2.774  16.974 -3.2573  0.6701 -2.3051
14039TIP3    H263609   3.744   2.727  16.860 -2.0089 -0.4991 -0.8896
14040TIP3   OH263610   4.285   1.460  15.187 -0.3704 -0.2534  0.5222
14040TIP3    H163611   4.362   1.517  15.187  1.0248 -2.0199 -1.0044
14040TIP3    H263612   4.223   1.502  15.128  1.4223 -1.1730 -2.1827
14041TIP3   OH263613   0.343   2.947   3.454 -0.1311 -0.9433  0.1358
14041TIP3    H163614   0.388   2.950   3.538 -0.4292  0.6454  0.2586
14041TIP3    H263615   0.374   2.866   3.413  1.5447 -0.7404  0.9344
14042TIP3   OH263616   3.397   0.089   0.202  0.3760  0.2247 -0.1357
14042TIP3    H163617   3.324   0.095   0.263  0.2539 -0.0137 -0.2553
14042TIP3    H263618   3.357   0.058   0.121  0.4707  0.9494 -0.4631
14043TIP3   OH263619   5.687   3.178  12.117 -0.0195 -0.2932  0.5385
14043TIP3    H163620   5.774   3.216  12.125 -0.2209  0.9744 -2.0473
14043TIP3    H263621   5.694   3.117  12.043 -1.7633  1.5496 -1.2777
14044TIP3   OH263622   3.643   1.736  14.508 -0.0836 -0.2011 -0.0614
14044TIP3    H163623   3.686   1.680  14.444 -0.4182 -2.0556  1.2594
14044TIP3    H263624   3.604   1.676  14.571 -1.2953  1.5074  0.9208
14045TIP3   OH263625   3.557   4.074   3.988  0.0036  0.1994 -0.1442
14045TIP3    H163626   3.556   4.148   3.927  0.1491 -1.1400 -1.8446
14045TIP3    H263627   3.609   4.007   3.943  0.7139 -0.6064  1.7720
14046TIP3   OH263628   4.813   6.078   3.117 -0.0208  0.0578  0.1979
14046TIP3    H163629   4.793   5.994   3.076  1.0720 -1.4268  2.5490
14046TIP3    H263630   4.741   6.092   3.179 -0.8371  1.5174 -1.0004
14047TIP3   OH263631   3.721   2.420  15.890 -0.1181  0.4990  0.5655
14047TIP3    H163632   3.758   2.422  15.802 -0.9901 -0.4354  0.1620
14047TIP3    H263633   3.631   2.452  15.879 -0.9098 -1.5195  0.7423
14048TIP3   OH263634   0.340   1.890   0.174 -0.0512  0.0324 -0.3319
14048TIP3    H163635   0.352   1.795   0.164 -0.0916  0.1017 -1.1817
14048TIP3    H263636   0.381   1.911   0.257 -2.1706 -1.0928  1.0736
14049TIP3   OH263637   4.711   6.836   1.721  0.1218 -0.0463 -0.4999
14049TIP3    H163638   4.742   6.804   1.806  0.6377  0.3148 -0.5488
14049TIP3    H263639   4.620   6.808   1.717  0.6359 -1.8499 -0.6877
14050TIP3   OH263640   3.039   1.120   3.482  0.3146 -0.2245 -0.3033
14050TIP3    H163641   3.079   1.207   3.492 -0.2691  0.1163 -0.8200
14050TIP3    H263642   3.104   1.059   3.517  0.4661  0.4706  0.6641
14051TIP3   OH263643   1.098   4.204  14.463 -0.2592 -0.3004 -0.2461
14051TIP3    H163644   1.161   4.169  14.400  0.4873  0.9374 -0.2222
14051TIP3    H263645   1.020   4.149  14.453 -0.3674  0.1799 -2.6193
14052TIP3   OH263646   2.445   4.737   4.671 -0.2655  0.4833  0.2636
14052TIP3    H163647   2.446   4.822   4.714 -0.2092  0.0769  1.0816
14052TIP3    H263648   2.352   4.714   4.664 -0.2573  0.3418  0.5963
14053TIP3   OH263649   6.088   3.897  13.776 -0.3381 -0.3010 -0.6844
14053TIP3    H163650   6.061   3.824  13.722  0.2104  0.4413 -2.0104
14053TIP3    H263651   6.068   3.870  13.866 -1.6469 -1.3889 -1.2769
14054TIP3   OH263652   3.099   1.931  14.601  0.0467  0.2989 -0.2006
14054TIP3    H163653   3.069   1.963  14.686  0.8313 -2.7351  1.3927
14054TIP3    H263654   3.179   1.881  14.621 -0.2861 -1.3686 -2.5329
14055TIP3   OH263655   3.456   4.733   6.268 -0.5889 -0.6647 -0.0062
14055TIP3    H163656   3.531   4.751   6.212 -2.5608  1.3436 -2.1924
14055TIP3    H263657   3.449   4.809   6.325  0.1291 -1.7333  1.5758
14056TIP3   OH263658   5.342   0.829   5.412  0.1640  0.1297  0.1926
14056TIP3    H163659   5.392   0.814   5.492  1.0011  0.8825 -0.1684
14056TIP3    H263660   5.258   0.785   5.427  0.7387 -0.7113  1.0157
14057TIP3   OH263661   1.416   2.027  15.085 -0.3694 -0.3388  0.2131
14057TIP3    H163662   1.424   1.932  15.075 -2.3334 -0.4292 -0.9567
14057TIP3    H263663   1.336   2.050  15.038  0.1413  1.9399  0.3265
14058TIP3   OH263664   5.859   6.635  11.941 -0.1550 -0.3627 -0.3962
14058TIP3    H163665   5.769   6.646  11.972  0.0718 -0.3827  0.2891
14058TIP3    H263666   5.854   6.566  11.876 -0.5287 -0.8455  0.1356
14059TIP3   OH263667   2.985   0.952  13.158 -0.4045 -0.1680 -0.4360
14059TIP3    H163668   2.960   0.889  13.226  0.6401  1.4179  1.5077
14059TIP3    H263669   2.926   1.026  13.171  1.5007  1.2539  0.5502
14060TIP3   OH263670   0.630   5.237   1.938  0.2408  0.3858 -0.8028
14060TIP3    H163671   0.648   5.166   1.999  0.0658 -0.3349 -1.5810
14060TIP3    H263672   0.558   5.206   1.884 -1.5500  2.1357  0.4519
14061TIP3   OH263673   4.971   3.938   1.123 -0.1840 -0.2130  0.1048
14061TIP3    H163674   4.944   3.849   1.144  1.1316 -0.8588 -0.7753
14061TIP3    H263675   4.901   3.973   1.068 -1.8786  0.1974  2.3745
14062TIP3   OH263676   6.520   1.276   0.407 -0.6564  0.3934 -0.1719
14062TIP3    H163677   6.489   1.218   0.477 -0.0555  0.3773  0.0860
14062TIP3    H263678   6.459   1.262   0.335 -0.9476 -0.0104  0.1521
14063TIP3   OH263679   6.770   5.573  14.834 -0.0663  0.1473  0.2084
14063TIP3    H163680   6.741   5.515  14.905  0.0035  0.3636  0.4132
14063TIP3    H263681   6.764   5.661  14.870  2.4027  0.1445  0.8755
14064TIP3   OH263682   1.387   5.075  14.411  0.1618  0.6520 -0.2074
14064TIP3    H163683   1.331   5.039  14.479  0.3817 -2.0292 -1.3271
14064TIP3    H263684   1.476   5.065  14.445  0.1862  0.8512 -0.2125
14065TIP3   OH263685   6.743   6.300  12.532 -0.1346 -0.4805  0.0852
14065TIP3    H163686   6.775   6.240  12.465 -0.7344 -0.3268 -0.3498
14065TIP3    H263687   6.648   6.287  12.532 -0.5159  1.8164 -1.3508
14066TIP3   OH263688   2.047   5.870   1.882 -0.0726 -0.1586 -0.2472
14066TIP3    H163689   2.026   5.837   1.970 -1.0305 -0.9486 -0.7489
14066TIP3    H263690   2.082   5.793   1.836  0.2303  0.2044 -0.6231
14067TIP3   OH263691   5.677   2.317   3.423 -0.1251 -0.4354  0.0494
14067TIP3    H163692   5.681   2.228   3.458 -1.1780  0.3271  2.3295
14067TIP3    H263693   5.651   2.305   3.331  0.9548 -2.4975 -0.0483
14068TIP3   OH263694   2.470   2.369   5.534  0.6424 -0.1373  0.2167
14068TIP3    H163695   2.465   2.454   5.579 -1.1283  0.1848 -0.5343
14068TIP3    H263696   2.527   2.386   5.459 -0.1908  0.5713 -0.2757
14069TIP3   OH263697   6.331   4.765  12.147  0.2217 -0.9747 -0.3708
14069TIP3    H163698   6.301   4.676  12.129  0.3870 -1.1836  0.3600
14069TIP3    H263699   6.418   4.754  12.184 -0.2091 -0.5899  0.8114
14070TIP3   OH263700   3.402   4.535  12.557 -0.7654 -0.0253  0.8441
14070TIP3    H163701   3.491   4.538  12.522 -0.3173 -0.9467  1.8577
14070TIP3    H263702   3.378   4.627  12.569 -1.0031  0.3806 -1.9358
14071TIP3   OH263703   1.322   1.853  16.389 -0.6304 -0.5362  0.2130
14071TIP3    H163704   1.380   1.878  16.461 -1.7777 -0.8110  1.2802
14071TIP3    H263705   1.378   1.801  16.331  0.6805  0.8592  0.1446
14072TIP3   OH263706   4.054   5.171  12.731  0.0944 -0.6100  0.2703
14072TIP3    H163707   3.974   5.125  12.703 -0.3405 -0.0913  0.6301
14072TIP3    H263708   4.114   5.101  12.756  0.0649 -1.0475 -0.7950
14073TIP3   OH263709   5.653   1.543  14.013  0.7114  0.6048  0.1977
14073TIP3    H163710   5.644   1.448  14.007  0.6824  0.6389 -0.4225
14073TIP3    H263711   5.582   1.570  14.071  1.0443  0.2002  0.8084
14074TIP3   OH263712   6.682   2.349  14.029 -0.0639 -0.8438  0.8975
14074TIP3    H163713   6.631   2.269  14.040 -0.8985 -0.5588 -0.5978
14074TIP3    H263714   6.621   2.420  14.049  0.2122 -0.5477  0.7053
14075TIP3   OH263715   1.399   2.733  16.675 -0.2883  0.4411  0.2675
14075TIP3    H163716   1.384   2.828  16.679 -2.0970  0.1708  1.5903
14075TIP3    H263717   1.373   2.702  16.762 -1.0469 -1.4203 -0.5599
14076TIP3   OH263718   3.785   4.995   2.484  0.0984  0.4375 -0.4379
14076TIP3    H163719   3.748   5.020   2.400 -0.1777  0.4686 -0.3064
14076TIP3    H263720   3.829   4.911   2.467 -0.6437  0.0408 -0.4310
14077TIP3   OH263721   1.146   4.106  15.048 -0.5508 -0.0349  0.1907
14077TIP3    H163722   1.130   4.013  15.067 -0.8561 -0.3121 -1.2384
14077TIP3    H263723   1.195   4.138  15.123 -1.8897 -0.9298  1.5067
14078TIP3   OH263724   2.620   0.204  11.355  0.1861 -0.5341 -0.4926
14078TIP3    H163725   2.626   0.294  11.323 -3.4209  0.4070  0.9485
14078TIP3    H263726   2.664   0.206  11.440  2.3024 -0.8690 -1.5171
14079TIP3   OH263727   5.450   0.227   4.139  0.6163 -0.2380  0.1113
14079TIP3    H163728   5.459   0.224   4.234  1.1004 -0.3091  0.0643
14079TIP3    H263729   5.467   0.318   4.116 -0.3179 -0.0425  0.1717
14080TIP3   OH263730   0.647   4.850   0.909 -0.6368  0.4632 -0.2662
14080TIP3    H163731   0.586   4.924   0.911 -0.1142  0.9517 -1.2670
14080TIP3    H263732   0.731   4.888   0.882 -0.1581 -0.3680 -0.0073
14081TIP3   OH263733   3.291   3.021  13.325  0.0889 -0.1580 -0.0567
14081TIP3    H163734   3.266   3.041  13.234 -0.7845 -1.0345 -0.0250
14081TIP3    H263735   3.234   2.948  13.350  0.6098 -0.1975  1.0646
14082TIP3   OH263736   1.308   5.378  16.620 -0.6422  0.4373 -0.2454
14082TIP3    H163737   1.339   5.342  16.703 -1.8085 -0.2413 -0.0874
14082TIP3    H263738   1.378   5.437  16.592  0.5149 -0.6069  0.3720
14083TIP3   OH263739   0.446   3.747  11.298  0.0616 -0.3639 -0.3297
14083TIP3    H163740   0.491   3.761  11.214 -0.1442 -0.0367 -0.3854
14083TIP3    H263741   0.387   3.821  11.306  0.6415  0.0228  0.4727
14084TIP3   OH263742   2.015   5.161   0.699 -0.2226 -0.0481 -0.0939
14084TIP3    H163743   1.982   5.250   0.703 -2.1667 -0.5723 -2.1437
14084TIP3    H263744   2.026   5.144   0.605 -1.6832 -2.5272  0.1064
14085TIP3   OH263745   2.397   6.401  17.076  0.1863 -0.2915 -0.2747
14085TIP3    H163746   2.432   6.460  17.142 -2.5805 -0.3727  1.4363
14085TIP3    H263747   2.449   6.321  17.086  2.0182  0.8047 -0.5841
14086TIP3   OH263748   0.976   4.710   5.655 -0.1574 -0.0278 -0.3004
14086TIP3    H163749   0.901   4.657   5.683  0.7818 -2.1720 -1.5129
14086TIP3    H263750   1.029   4.721   5.733 -1.7759  1.6965  0.6219
14087TIP3   OH263751   6.420   3.383  16.816 -0.6936 -0.3297 -0.0921
14087TIP3    H163752   6.331   3.416  16.803 -1.2113 -1.7072 -0.2888
14087TIP3    H263753   6.443   3.342  16.732 -0.7419 -1.8465  0.5888
14088TIP3   OH263754   0.044   2.738   1.070 -0.0061  0.5707  0.4920
14088TIP3    H163755   0.105   2.802   1.106  0.5423  0.3024  0.0634
14088TIP3    H263756  -0.043   2.774   1.087  0.2953  1.4334  0.2473
14089TIP3   OH263757   6.456   5.262   3.417 -0.4880  0.2861  0.2319
14089TIP3    H163758   6.493   5.206   3.486  0.0059  1.1933  0.7176
14089TIP3    H263759   6.527   5.271   3.354 -0.6491  0.1708  0.0341
14090TIP3   OH263760   4.936   1.929  14.248  0.1670 -0.0692 -0.1294
14090TIP3    H163761   4.980   1.980  14.316  2.8647 -0.4306 -1.4902
14090TIP3    H263762   4.935   1.987  14.172  0.4363 -0.9158 -0.7944
14091TIP3   OH263763   2.359   2.522  15.485 -0.1547 -0.4017  0.2906
14091TIP3    H163764   2.283   2.463  15.478  1.4782 -2.7322  1.0397
14091TIP3    H263765   2.393   2.507  15.573  0.8938  1.0121  0.1524
14092TIP3   OH263766   5.535   3.158  13.605 -0.6005 -0.0023 -0.4503
14092TIP3    H163767   5.463   3.220  13.603  1.2614  2.3174 -0.8006
14092TIP3    H263768   5.582   3.174  13.523 -0.8393 -2.9803 -1.2754
14093TIP3   OH263769   6.281   3.260   0.596  0.1467  0.4721 -0.6888
14093TIP3    H163770   6.306   3.323   0.663  1.4581 -2.0549  1.3732
14093TIP3    H263771   6.242   3.187   0.644 -0.2730 -0.8269 -2.8342
14094TIP3   OH263772   1.568   5.234   3.579  0.6911  0.1291 -0.3981
14094TIP3    H163773   1.647   5.258   3.628 -0.5158  0.3280  1.5939
14094TIP3    H263774   1.496   5.255   3.639 -0.7354 -3.5374 -0.5807
14095TIP3   OH263775   6.660   0.548   4.044  0.4406 -0.1096 -0.3163
14095TIP3    H163776   6.691   0.485   4.109 -0.3786 -1.0572 -0.8174
14095TIP3    H263777   6.569   0.564   4.068 -0.5378 -2.0386 -2.3383
14096TIP3   OH263778   1.992   2.020   0.617  0.3118  0.3826 -0.1174
14096TIP3    H163779   2.023   2.037   0.706 -3.0543 -0.4739  1.3964
14096TIP3    H263780   1.960   1.929   0.620 -1.7267  0.9790 -1.5447
14097TIP3   OH263781   4.823   1.738   3.195 -0.1409 -0.1999 -0.1304
14097TIP3    H163782   4.743   1.699   3.228 -0.2650 -1.5524 -1.8556
14097TIP3    H263783   4.793   1.808   3.137  0.0015  0.6204  0.7733
14098TIP3   OH263784   5.889   3.253  14.395 -0.1862 -0.2209 -0.9775
14098TIP3    H163785   5.802   3.245  14.434 -0.3348 -0.7594 -1.4117
14098TIP3    H263786   5.926   3.165  14.399  1.6104  0.5172  2.0621
14099TIP3   OH263787   3.383   4.420  14.464 -0.3434 -0.2432  0.1393
14099TIP3    H163788   3.349   4.375  14.541  1.4540 -1.5572  0.2223
14099TIP3    H263789   3.473   4.443  14.487 -0.0884  0.2069 -1.2103
14100TIP3   OH263790   0.234   1.132   0.130 -0.1880 -0.0173 -0.0300
14100TIP3    H163791   0.246   1.226   0.140  0.2766 -0.0724 -0.0132
14100TIP3    H263792   0.167   1.108   0.194 -0.7026  0.3858 -0.4101
14101TIP3   OH263793   5.417   4.018  14.917 -0.2088 -0.5350  0.3415
14101TIP3    H163794   5.445   3.991  14.830 -0.1791 -1.6358  0.6874
14101TIP3    H263795   5.496   4.056  14.956 -0.7811  2.2438 -0.9416
14102TIP3   OH263796   5.753   3.497   2.181  0.8092  0.0785  0.0831
14102TIP3    H163797   5.748   3.579   2.133  0.3374 -0.8589 -1.5738
14102TIP3    H263798   5.813   3.442   2.129  0.2663 -0.9817  0.5406
14103TIP3   OH263799   3.824   5.640   1.308 -0.8395 -0.1510  0.2943
14103TIP3    H163800   3.765   5.714   1.313 -0.6095  0.1175 -0.8569
14103TIP3    H263801   3.815   5.597   1.393  0.1687  2.0492  1.6133
14104TIP3   OH263802   3.674   3.095   0.156 -0.2327  0.0412  0.1531
14104TIP3    H163803   3.634   3.102   0.069  0.7164 -1.2988 -0.4168
14104TIP3    H263804   3.673   3.002   0.176  1.1723  0.1474  0.8022
14105TIP3   OH263805   5.511   4.399   4.305  0.0749  0.5981  0.2065
14105TIP3    H163806   5.508   4.313   4.347  1.0084 -0.2118 -1.2861
14105TIP3    H263807   5.575   4.448   4.357 -1.0293  0.6803  1.5279
14106TIP3   OH263808   2.686   1.360  12.212  0.6055  0.5316  0.5512
14106TIP3    H163809   2.644   1.280  12.178 -0.5712  0.8124  1.2783
14106TIP3    H263810   2.770   1.330  12.247  1.3951  0.0627 -1.5998
14107TIP3   OH263811   5.811   4.718  14.461  0.3782 -0.2007  0.3017
14107TIP3    H163812   5.789   4.734  14.369 -0.3861  1.8812  0.7863
14107TIP3    H263813   5.728   4.726  14.508  0.4538 -2.9631  1.0401
14108TIP3   OH263814   2.534   5.260  14.254  0.2547 -0.0772 -0.2946
14108TIP3    H163815   2.519   5.196  14.323  0.1180 -0.1465 -0.3884
14108TIP3    H263816   2.629   5.261  14.243  0.3294  0.4686  0.3954
14109TIP3   OH263817   3.314   0.327   0.784  0.2025  0.0585 -0.4329
14109TIP3    H163818   3.379   0.352   0.719  0.8805 -1.6777 -0.4840
14109TIP3    H263819   3.255   0.267   0.738  0.0073 -0.2757  0.2321
14110TIP3   OH263820   3.017   2.816  12.282  0.2313 -0.1731 -0.3268
14110TIP3    H163821   2.980   2.783  12.363 -0.6158  1.1835 -0.1308
14110TIP3    H263822   2.950   2.799  12.216  0.6187 -0.6235 -0.6120
14111TIP3   OH263823   4.091   3.650  17.197 -0.2066 -0.3567  0.0803
14111TIP3    H163824   4.091   3.745  17.180 -0.2655 -0.0866  1.4737
14111TIP3    H263825   4.014   3.635  17.251  0.8494 -0.8641  1.5038
14112TIP3   OH263826   3.449   1.436   4.151  0.8558  0.6386 -0.2383
14112TIP3    H163827   3.470   1.354   4.195 -0.3708 -0.4600 -1.6034
14112TIP3    H263828   3.505   1.436   4.073  1.1298  1.3016 -0.0510
14113TIP3   OH263829   6.477   1.893   3.653 -0.1036  0.6055  0.3314
14113TIP3    H163830   6.540   1.844   3.706  0.2401 -0.3305 -0.8735
14113TIP3    H263831   6.526   1.968   3.620 -0.2759  1.1052  1.1938
14114TIP3   OH263832   1.673   3.048  13.288  0.1197 -0.7130 -0.7530
14114TIP3    H163833   1.690   3.050  13.194 -0.5180  0.1034 -0.8659
14114TIP3    H263834   1.616   3.124  13.304  0.7286 -0.4724  0.3906
14115TIP3   OH263835   1.014   1.686   1.051  0.2762 -0.4362 -0.1641
14115TIP3    H163836   1.043   1.776   1.037 -1.0160  0.2246  1.1608
14115TIP3    H263837   1.009   1.677   1.146 -0.6089 -1.5769 -0.2943
14116TIP3   OH263838   0.199   5.421   0.140 -0.2293 -0.7652  0.7661
14116TIP3    H163839   0.286   5.457   0.160 -0.7634  1.0713 -0.0027
14116TIP3    H263840   0.212   5.326   0.140  2.0711 -0.5318 -0.5192
14117TIP3   OH263841   6.371   4.164   3.190  0.5654  0.7783 -0.2737
14117TIP3    H163842   6.317   4.244   3.198 -1.7016 -0.7198  0.3663
14117TIP3    H263843   6.385   4.135   3.280 -0.3081 -0.5721 -0.5467
14118TIP3   OH263844   3.109   6.762   0.094  0.1179  0.1338 -0.2694
14118TIP3    H163845   3.134   6.784   0.005 -0.0924  1.3862 -0.0523
14118TIP3    H263846   3.162   6.687   0.118  0.2947 -0.0987 -1.3897
14119TIP3   OH263847   0.945   0.891   6.018 -0.5951 -0.4416  0.7462
14119TIP3    H163848   0.966   0.872   6.110  0.7041  1.2641  0.8434
14119TIP3    H263849   0.996   0.969   5.998 -2.2474  0.2529 -0.9262
14120TIP3   OH263850   4.380   4.642   0.309  0.2259 -0.0523  0.3585
14120TIP3    H163851   4.340   4.558   0.333  0.8440  0.2906  2.9066
14120TIP3    H263852   4.332   4.670   0.231 -0.5617 -2.3567 -0.0598
14121TIP3   OH263853   1.802   1.616   4.332  0.6445  0.1746  0.0264
14121TIP3    H163854   1.816   1.529   4.296  0.2201  0.2179 -0.2623
14121TIP3    H263855   1.707   1.622   4.343  0.5351  1.0823 -1.2203
14122TIP3   OH263856   0.797   6.409   2.364 -0.0699 -0.1307  0.1870
14122TIP3    H163857   0.837   6.402   2.451 -0.0390 -0.3603  0.1544
14122TIP3    H263858   0.867   6.440   2.308  0.6076 -2.2705 -0.2543
14123TIP3   OH263859   6.028   1.920   2.664 -0.3924 -0.5967  0.1593
14123TIP3    H163860   5.986   1.898   2.747 -0.8877  1.6875  0.5614
14123TIP3    H263861   6.121   1.909   2.681 -0.4950 -0.2583  0.9819
14124TIP3   OH263862   3.214   6.058  14.059  0.6007 -0.3101 -0.2703
14124TIP3    H163863   3.197   5.964  14.068  1.4372 -0.3160  1.7815
14124TIP3    H263864   3.303   6.063  14.025  1.1294 -0.2989  1.0509
14125TIP3   OH263865   5.040   3.326   5.288  0.3667 -0.0773 -0.1286
14125TIP3    H163866   5.064   3.404   5.338 -0.2868  0.0554 -0.0134
14125TIP3    H263867   5.029   3.358   5.198  0.4408 -0.1019 -0.1461
14126TIP3   OH263868   1.046   3.645  12.810  0.1604 -0.0436  0.3651
14126TIP3    H163869   1.028   3.669  12.719 -1.0801  2.4680  1.1901
14126TIP3    H263870   0.982   3.576  12.830  0.4198 -0.5863 -0.6270
14127TIP3   OH263871   5.351   0.249   2.580 -0.1914 -0.4128  0.1825
14127TIP3    H163872   5.305   0.172   2.546 -0.9281  0.3914 -0.7108
14127TIP3    H263873   5.387   0.291   2.502  0.6397 -0.1136  0.7118
14128TIP3   OH263874   1.142   1.915   1.032 -0.0083  0.1515  0.6446
14128TIP3    H163875   1.190   1.926   1.114 -1.5628  1.3699  1.4278
14128TIP3    H263876   1.164   1.993   0.981  0.7713 -0.4929 -0.0426
14129TIP3   OH263877   5.441   0.590   5.144  0.7387  0.1258 -0.1211
14129TIP3    H163878   5.406   0.536   5.215  1.0876 -0.0595 -0.0889
14129TIP3    H263879   5.446   0.531   5.069 -1.6911  0.8428 -0.9406
14130TIP3   OH263880   3.240   1.096   3.769  0.2420  0.1166  0.3015
14130TIP3    H163881   3.216   1.140   3.851  1.1861 -0.8243  1.1021
14130TIP3    H263882   3.246   1.167   3.705 -2.0745  0.7016  0.6350
14131TIP3   OH263883   1.653   0.745   3.833  0.3159  0.5611 -0.3970
14131TIP3    H163884   1.559   0.764   3.832  0.2524  0.2262 -0.9782
14131TIP3    H263885   1.693   0.825   3.866 -0.3129  0.0585  1.7719
14132TIP3   OH263886   1.625   4.952   1.392 -0.0869 -0.2358  0.4269
14132TIP3    H163887   1.594   5.021   1.450 -1.7427  0.8309 -1.5820
14132TIP3    H263888   1.549   4.929   1.339  0.0698 -4.4282  1.6653
14133TIP3   OH263889   0.688   1.594   1.104  0.2711 -0.2543  0.1327
14133TIP3    H163890   0.672   1.525   1.169 -1.4647 -1.3846 -1.4154
14133TIP3    H263891   0.761   1.560   1.052 -0.5855 -0.9620 -0.6329
14134TIP3   OH263892   0.258   5.361  15.536 -0.4860  0.6999 -0.2877
14134TIP3    H163893   0.269   5.301  15.610  0.8781  0.7021 -0.4738
14134TIP3    H263894   0.259   5.448  15.575 -1.2464  0.6604 -0.1574
14135TIP3   OH263895   1.136   4.508  12.204  0.0783  0.1958 -0.0235
14135TIP3    H163896   1.065   4.445  12.217  0.4010 -0.3925 -1.0275
14135TIP3    H263897   1.094   4.585  12.165 -0.0669 -0.0060 -0.2654
14136TIP3   OH263898   1.266   4.217  14.668 -0.3408  0.0239 -0.5132
14136TIP3    H163899   1.230   4.153  14.729 -1.6859  0.2831 -1.0047
14136TIP3    H263900   1.201   4.223  14.598  0.7242  0.4286 -1.5068
14137TIP3   OH263901   1.792   5.695  12.905 -0.5799  0.3173 -0.0623
14137TIP3    H163902   1.869   5.683  12.960 -1.6706 -1.2270  1.2249
14137TIP3    H263903   1.796   5.787  12.878  1.3239  0.4519  0.4978
14138TIP3   OH263904   5.145   5.017  13.801  0.0491 -0.0313 -0.6611
14138TIP3    H163905   5.167   4.991  13.712  0.2089  0.1966 -0.6889
14138TIP3    H263906   5.052   5.040  13.796  0.1076  0.1777 -0.8163
14139TIP3   OH263907   1.118   3.567   1.297 -0.4897  0.8614  0.0879
14139TIP3    H163908   1.161   3.632   1.241  0.8357 -1.1698 -1.3484
14139TIP3    H263909   1.066   3.514   1.236  1.5654 -1.8830  0.5549
14140TIP3   OH263910   6.083   4.659   3.772 -0.0245  0.1610 -0.0132
14140TIP3    H163911   6.023   4.722   3.812 -0.6526 -0.1415 -0.4533
14140TIP3    H263912   6.079   4.678   3.679 -1.4355 -1.5074 -0.3435
14141TIP3   OH263913   2.005   4.293  11.868  0.1631  0.3540  0.6227
14141TIP3    H163914   2.001   4.383  11.902  0.4197  1.6382 -2.3567
14141TIP3    H263915   1.952   4.242  11.928  1.7686  2.0216  3.6767
14142TIP3   OH263916   5.791   6.248  16.996 -0.2185  0.1136  0.7971
14142TIP3    H163917   5.803   6.159  16.964  0.9586  1.0132 -1.4680
14142TIP3    H263918   5.771   6.238  17.089  1.6222 -2.4128  1.0009
14143TIP3   OH263919   3.889   2.743   1.409  0.8035 -0.1180 -0.8178
14143TIP3    H163920   3.821   2.706   1.464  0.1831  2.2407  0.1088
14143TIP3    H263921   3.970   2.729   1.459  0.4424  0.6749  0.0122
14144TIP3   OH263922   6.171   1.620  10.299  0.0287  0.1326 -0.1979
14144TIP3    H163923   6.164   1.714  10.319  1.7623  0.5357 -1.2605
14144TIP3    H263924   6.228   1.617  10.222  1.2524 -1.8922  0.7313
14145TIP3   OH263925   2.976   4.215   0.550 -0.6955  0.3679  0.0679
14145TIP3    H163926   2.924   4.135   0.554  0.2425 -0.2831 -0.4506
14145TIP3    H263927   2.996   4.226   0.457 -2.0577  2.0406 -0.0763
14146TIP3   OH263928   2.547   4.661   1.794 -0.0239 -0.4006 -0.6540
14146TIP3    H163929   2.452   4.660   1.800 -0.0450 -1.4257 -0.9696
14146TIP3    H263930   2.567   4.605   1.719  0.8358 -0.3420 -0.4808
14147TIP3   OH263931   0.712   0.138  12.522  0.4510  0.4687 -0.1267
14147TIP3    H163932   0.661   0.083  12.580 -3.3340 -0.3789 -3.8055
14147TIP3    H263933   0.669   0.223  12.525  0.8130  0.6917 -0.9505
14148TIP3   OH263934   3.250   3.143  13.056  0.2533  0.0181 -0.5292
14148TIP3    H163935   3.300   3.224  13.067  2.3077 -1.1803 -0.5119
14148TIP3    H263936   3.162   3.172  13.033  1.2409  2.2426 -1.8484
14149TIP3   OH263937   0.216   6.099   2.869 -0.6619  0.1797  0.1865
14149TIP3    H163938   0.237   6.176   2.921 -1.3774  0.1897  0.4639
14149TIP3    H263939   0.302   6.063   2.845 -0.2727 -0.4353  2.2724
14150TIP3   OH263940   1.273   3.828  16.461  0.4007 -0.1157  0.2297
14150TIP3    H163941   1.268   3.922  16.476  2.0716  0.1670 -0.6946
14150TIP3    H263942   1.239   3.816  16.373  0.1167 -0.3793  0.3757
14151TIP3   OH263943   1.620   0.846  16.588 -0.7003  0.2435 -0.4457
14151TIP3    H163944   1.568   0.893  16.523  0.5514  2.6091  0.1456
14151TIP3    H263945   1.624   0.906  16.662  2.2697 -0.1254 -0.2091
14152TIP3   OH263946   5.443   0.494   5.457 -0.1843  0.4705 -0.5896
14152TIP3    H163947   5.454   0.539   5.541 -1.4758  2.0128 -1.2001
14152TIP3    H263948   5.349   0.492   5.443 -0.3101 -3.1703 -0.2877
14153TIP3   OH263949   4.568   6.244   3.154  0.0107  0.1276 -0.4203
14153TIP3    H163950   4.546   6.330   3.119  0.2394  0.6177  0.6162
14153TIP3    H263951   4.576   6.188   3.076  1.5432  1.4184 -1.2599
14154TIP3   OH263952   1.746   0.135  12.523 -0.2137 -0.4632 -0.4630
14154TIP3    H163953   1.693   0.067  12.565  0.9696 -0.3492  1.3514
14154TIP3    H263954   1.734   0.212  12.579  1.6336 -0.3732 -0.1179
14155TIP3   OH263955   3.764   0.629  16.975  0.4900  0.1762 -0.5280
14155TIP3    H163956   3.773   0.540  16.941  2.1107  0.2519 -0.3404
14155TIP3    H263957   3.715   0.619  17.057 -0.2768 -0.4054 -1.0455
14156TIP3   OH263958   4.154   6.200   1.049 -0.3024  0.0534 -0.0834
14156TIP3    H163959   4.157   6.235   1.138 -2.9131 -0.2537  0.2173
14156TIP3    H263960   4.069   6.229   1.015  0.0987 -0.8893 -2.0314
14157TIP3   OH263961   4.295   0.573   5.645 -0.7000 -0.4242  0.3186
14157TIP3    H163962   4.237   0.566   5.721 -1.1790 -0.9860 -0.0827
14157TIP3    H263963   4.313   0.666   5.637 -1.8623 -0.1896  0.2347
14158TIP3   OH263964   6.829   5.844   4.952 -0.0991  0.1783 -0.3195
14158TIP3    H163965   6.848   5.825   5.044  2.8789  1.2955 -0.5679
14158TIP3    H263966   6.884   5.783   4.903 -0.3051  0.7648 -1.3140
14159TIP3   OH263967   2.868   2.147   0.141 -0.1826  0.4945 -0.8541
14159TIP3    H163968   2.943   2.198   0.171 -1.0094  0.0535  2.3131
14159TIP3    H263969   2.888   2.057   0.165 -2.5573  0.6380  2.2884
14160TIP3   OH263970   2.780   3.867  13.390  0.1668  0.4324  0.6800
14160TIP3    H163971   2.772   3.957  13.420  1.4074  0.8169 -0.0727
14160TIP3    H263972   2.693   3.829  13.403 -1.3620  2.6724 -2.0455
14161TIP3   OH263973   0.057   1.838  11.448 -0.0698  0.2911  0.1508
14161TIP3    H163974   0.013   1.879  11.523 -0.7689  1.5679 -0.9231
14161TIP3    H263975   0.148   1.867  11.455  0.6161 -2.0305  2.1530
14162TIP3   OH263976   4.365   3.773   1.832 -0.6145  0.0079  0.4249
14162TIP3    H163977   4.340   3.701   1.890  0.0943 -0.3853  0.2552
14162TIP3    H263978   4.387   3.845   1.890  1.9879 -0.9665  0.8019
14163TIP3   OH263979   2.478   5.335   0.547 -0.1087  0.1535  0.1573
14163TIP3    H163980   2.529   5.353   0.627  1.6340 -0.9292 -0.6499
14163TIP3    H263981   2.387   5.345   0.574  0.4613  0.5119  2.1033
14164TIP3   OH263982   5.060   3.502   5.042 -0.0559  0.2153 -0.0146
14164TIP3    H163983   5.026   3.497   4.952  0.5919 -3.0784 -0.2057
14164TIP3    H263984   5.104   3.587   5.046 -0.9032  0.8652 -2.5126
14165TIP3   OH263985   3.962   6.840  15.958  0.6041 -0.3858  0.0785
14165TIP3    H163986   3.956   6.904  16.030 -0.5485 -0.7524  0.3299
14165TIP3    H263987   3.893   6.866  15.898  1.3967 -0.2415 -0.7957
14166TIP3   OH263988   0.850   5.076  13.107  0.1799  0.4390  0.2096
14166TIP3    H163989   0.823   5.132  13.180  0.9610  0.7511  0.2719
14166TIP3    H263990   0.833   5.129  13.029 -0.2117  0.2907  0.1943
14167TIP3   OH263991   2.351   1.137  13.126  0.0859 -0.3803  0.1520
14167TIP3    H163992   2.274   1.169  13.173  1.3516  3.9975 -0.2509
14167TIP3    H263993   2.417   1.121  13.194 -0.0443 -0.4208  0.2687
14168TIP3   OH263994   6.327   3.966   1.563 -0.2986  0.3912  0.1008
14168TIP3    H163995   6.303   3.925   1.647  0.2908  2.0640  1.1325
14168TIP3    H263996   6.420   3.986   1.572 -0.0374 -0.0602 -1.2793
14169TIP3   OH263997   4.118   3.063  12.385 -0.7456  0.1326  0.4726
14169TIP3    H163998   4.158   3.044  12.470  2.3599  1.0370 -0.6490
14169TIP3    H263999   4.116   3.158  12.380  1.4562  0.1790 -1.3304
14170TIP3   OH264000   5.857   2.245  12.572  0.0832  0.4334  0.3030
14170TIP3    H164001   5.777   2.289  12.544 -0.2556  0.2917  1.0348
14170TIP3    H264002   5.925   2.282  12.515 -0.2027  1.8898  0.8705
14171TIP3   OH264003   4.568   3.320  13.247 -0.3867  0.3717  0.4250
14171TIP3    H164004   4.620   3.401  13.244  0.2439 -0.0523 -1.2783
14171TIP3    H264005   4.582   3.286  13.335  1.7132  0.6267  0.2392
14172TIP3   OH264006   5.441   4.148  15.855  0.0328 -0.1914  0.1044
14172TIP3    H164007   5.457   4.153  15.761  0.2641  1.3375  0.1920
14172TIP3    H264008   5.505   4.207  15.894 -3.2080  3.2930  0.7756
14173TIP3   OH264009   4.708   6.492  12.100 -0.4578 -0.6774  0.5261
14173TIP3    H164010   4.667   6.406  12.114 -0.4405 -0.8186 -0.2180
14173TIP3    H264011   4.779   6.474  12.039 -0.7974 -0.0502 -0.0580
14174TIP3   OH264012   3.983   3.308   5.710 -0.5455  0.0834 -0.2307
14174TIP3    H164013   3.938   3.343   5.787 -0.5919  2.1994 -1.1265
14174TIP3    H264014   3.956   3.217   5.705 -1.2008  0.1138  1.7614
14175TIP3   OH264015   2.716   4.778  13.521 -0.3154 -0.1030  0.1980
14175TIP3    H164016   2.710   4.806  13.612  1.6813 -1.1500  0.7337
14175TIP3    H264017   2.708   4.682  13.525 -0.1662 -0.1635 -0.7152
14176TIP3   OH264018   3.748   6.152  16.716  0.0901 -0.1318 -0.0043
14176TIP3    H164019   3.810   6.082  16.697 -0.7599 -0.7258 -0.6353
14176TIP3    H264020   3.775   6.224  16.659  0.2609 -0.3446 -0.1953
14177TIP3   OH264021   1.586   6.782  15.291  0.2913 -0.8666 -0.1678
14177TIP3    H164022   1.508   6.740  15.326  2.2768 -3.0767  1.9530
14177TIP3    H264023   1.604   6.853  15.353  0.3933 -0.8547 -0.2122
14178TIP3   OH264024   0.046   0.767   2.750 -0.0874 -0.0203  0.1600
14178TIP3    H164025  -0.018   0.794   2.815  0.1687 -0.6880  0.7047
14178TIP3    H264026   0.013   0.802   2.667 -0.7236  0.3295  0.5529
14179TIP3   OH264027   4.019   4.338  11.207 -0.0280 -0.2044  0.0988
14179TIP3    H164028   3.982   4.347  11.295 -0.3355  1.3910 -0.1657
14179TIP3    H264029   4.101   4.388  11.211  1.3455 -2.3296  0.2015
14180TIP3   OH264030   3.911   4.540   0.113 -0.8396 -0.6702  0.0807
14180TIP3    H164031   3.821   4.507   0.121 -1.5340  1.2587  0.5751
14180TIP3    H264032   3.908   4.600   0.039  0.1259 -0.7638 -0.0508
14181TIP3   OH264033   5.719   6.119  16.075 -0.3252  0.3948 -0.4858
14181TIP3    H164034   5.675   6.035  16.058  0.5313  0.0282 -0.9764
14181TIP3    H264035   5.691   6.144  16.163 -0.9817 -0.1633 -0.5313
14182TIP3   OH264036   0.686   2.297   2.249  0.5342 -0.1595  0.4665
14182TIP3    H164037   0.590   2.294   2.245  0.5044 -1.3864  1.4527
14182TIP3    H264038   0.710   2.374   2.198 -0.9596 -0.0326 -0.0817
14183TIP3   OH264039   4.035   3.019   1.182 -0.3554  0.0437 -0.4907
14183TIP3    H164040   4.097   3.061   1.122 -0.7001  1.6834  0.2540
14183TIP3    H264041   4.081   2.940   1.213  0.8959  0.6173 -0.8371
14184TIP3   OH264042   0.583   3.192  11.899 -0.2530 -0.9349  0.0599
14184TIP3    H164043   0.539   3.241  11.969  0.2811  0.1506 -0.3447
14184TIP3    H264044   0.627   3.259  11.846  0.6881 -1.8657 -0.3851
14185TIP3   OH264045   0.006   4.792  15.879 -0.0017 -0.0379 -0.5515
14185TIP3    H164046  -0.033   4.746  15.804 -1.8714  0.2679  0.1890
14185TIP3    H264047  -0.067   4.806  15.939  0.7158  2.8726 -0.2304
14186TIP3   OH264048   5.440   6.311   3.262 -0.1638 -0.4219 -0.2243
14186TIP3    H164049   5.354   6.297   3.222 -0.2743  0.4000 -0.3002
14186TIP3    H264050   5.420   6.346   3.349  0.0958 -0.6224 -0.0812
14187TIP3   OH264051   1.119   6.070  12.948 -0.0048 -0.1720  0.3891
14187TIP3    H164052   1.151   6.005  12.885 -2.6074 -1.3406  0.1597
14187TIP3    H264053   1.114   6.022  13.031 -0.3402  0.2375  0.6046
14188TIP3   OH264054   6.237   3.100   3.832 -0.7822  0.7214 -0.4514
14188TIP3    H164055   6.229   3.008   3.854  0.7224  0.5018 -0.6979
14188TIP3    H264056   6.182   3.111   3.754 -0.7080 -0.0492 -0.6197
14189TIP3   OH264057   1.918   4.291  17.034 -0.6296  0.0854 -0.1721
14189TIP3    H164058   1.942   4.248  17.116 -0.4438  1.1688  0.3581
14189TIP3    H264059   2.002   4.308  16.990 -0.4910  1.9849  0.7156
14190TIP3   OH264060   4.748   3.123   5.705  0.1544  0.3501 -0.0471
14190TIP3    H164061   4.813   3.188   5.681 -1.5847  2.5749  0.9280
14190TIP3    H264062   4.696   3.110   5.625 -1.3558  2.5472  0.4879
14191TIP3   OH264063   5.520   1.681  12.152  0.2312 -0.7184 -0.2736
14191TIP3    H164064   5.555   1.729  12.077 -1.7413  2.0507  0.4294
14191TIP3    H264065   5.515   1.746  12.222 -3.7613 -1.4585  0.3898
14192TIP3   OH264066   0.455   0.403  17.091  0.5004 -0.5848 -0.7767
14192TIP3    H164067   0.394   0.428  17.161 -0.2420  1.1123 -1.9614
14192TIP3    H264068   0.516   0.476  17.086  0.6933 -0.8024 -1.7326
14193TIP3   OH264069   6.526   4.802   1.892  1.0439  0.0857  0.3936
14193TIP3    H164070   6.521   4.718   1.937 -1.0403 -0.7588 -1.2278
14193TIP3    H264071   6.573   4.783   1.811  0.4599  0.4219 -0.0359
14194TIP3   OH264072   1.330   6.399   5.443  0.2527  0.3529 -0.5038
14194TIP3    H164073   1.256   6.435   5.395 -0.5247  0.2848  0.6023
14194TIP3    H264074   1.340   6.456   5.519  1.0645  0.1109 -0.4196
14195TIP3   OH264075   1.324   3.228  17.150  0.4635 -0.4381 -0.2264
14195TIP3    H164076   1.320   3.236  17.245  1.4633 -2.6031  0.0669
14195TIP3    H264077   1.240   3.263  17.119 -0.0032  0.0305  1.4732
14196TIP3   OH264078   4.637   5.011   3.307 -0.2718 -0.2363 -0.0843
14196TIP3    H164079   4.661   5.102   3.291  0.6222 -0.7173 -1.7848
14196TIP3    H264080   4.627   5.004   3.402 -2.0282  1.9965 -0.0434
14197TIP3   OH264081   4.446   4.223  15.093  0.4928 -0.0563 -0.2894
14197TIP3    H164082   4.440   4.136  15.053 -1.2742  0.2594 -0.7846
14197TIP3    H264083   4.524   4.262  15.055 -0.1325 -0.4564 -2.0840
14198TIP3   OH264084   0.453   5.835  11.151  0.0824 -0.0532 -0.5546
14198TIP3    H164085   0.433   5.786  11.071 -0.3259  1.5238 -1.4673
14198TIP3    H264086   0.546   5.816  11.167 -0.5524 -2.8468  0.4293
14199TIP3   OH264087   4.964   4.264  11.705 -0.1997  0.2369  0.1300
14199TIP3    H164088   4.871   4.280  11.689 -0.1213  3.6412  2.1604
14199TIP3    H264089   5.006   4.286  11.621 -1.1117 -0.3755 -0.5071
14200TIP3   OH264090   1.094   1.102   3.572 -0.1683  0.0988 -0.1180
14200TIP3    H164091   1.101   1.022   3.519  1.4375 -0.0273  0.2169
14200TIP3    H264092   1.025   1.153   3.531 -0.4590 -0.9768 -1.0009
14201TIP3   OH264093   0.203   2.355  12.440  0.1346 -0.2897 -0.1018
14201TIP3    H164094   0.142   2.351  12.366  0.0862  1.0407 -0.1534
14201TIP3    H264095   0.217   2.449  12.455  2.9569 -0.4911 -0.7436
14202TIP3   OH264096   1.645   4.269   1.735  0.2161  0.4456 -0.0900
14202TIP3    H164097   1.588   4.309   1.800 -0.1041  0.7281 -0.5401
14202TIP3    H264098   1.622   4.176   1.738  1.4485  0.1494  1.4445
14203TIP3   OH264099   0.146   4.693  15.502  0.0900 -0.0894  0.0947
14203TIP3    H164100   0.162   4.694  15.408 -1.2108 -0.7464 -0.1582
14203TIP3    H264101   0.101   4.776  15.520  1.1790  0.4695  0.3184
14204TIP3   OH264102   3.322   6.652   0.403  0.1263  0.5972  0.4502
14204TIP3    H164103   3.284   6.569   0.373 -1.8901  0.5641  2.8024
14204TIP3    H264104   3.416   6.642   0.388 -0.2900 -1.1978 -1.3598
14205TIP3   OH264105   0.773   1.732  16.808  0.4677 -0.5467  0.0413
14205TIP3    H164106   0.733   1.651  16.840  2.1331 -1.1919  0.6503
14205TIP3    H264107   0.860   1.704  16.777  0.9835  0.9671  0.0407
14206TIP3   OH264108   6.294   1.051   1.646 -0.1176 -0.0614  0.2300
14206TIP3    H164109   6.376   1.093   1.673 -1.3989  2.6979  0.1922
14206TIP3    H264110   6.312   1.018   1.558  0.9259  0.6530  0.1511
14207TIP3   OH264111   0.805   4.950  14.193 -0.0990  0.4859 -0.0065
14207TIP3    H164112   0.855   4.930  14.114  0.0930 -0.1331  0.2662
14207TIP3    H264113   0.715   4.964  14.162 -0.6097 -2.3384 -0.0973
14208TIP3   OH264114   4.846   1.091   4.215  0.1738  1.0100 -0.2013
14208TIP3    H164115   4.863   1.015   4.270  0.0857  1.0434 -0.1275
14208TIP3    H264116   4.805   1.155   4.274  0.0623  1.0387 -0.3092
14209TIP3   OH264117   5.124   1.239  15.217 -0.2232 -0.1083  0.1779
14209TIP3    H164118   5.184   1.314  15.213 -0.3447 -0.0330 -0.2935
14209TIP3    H264119   5.119   1.217  15.310  0.5259 -0.1085  0.2186
14210TIP3   OH264120   2.300   5.681  10.999  0.5778 -0.0884  0.0935
14210TIP3    H164121   2.216   5.634  11.002  0.3414  0.3218  0.0570
14210TIP3    H264122   2.283   5.762  11.048  0.8712  0.1254 -0.1568
14211TIP3   OH264123   4.852   3.467  11.115 -0.1603 -0.0059  0.8260
14211TIP3    H164124   4.786   3.499  11.053  1.4072 -0.0923 -1.0032
14211TIP3    H264125   4.852   3.372  11.103  1.1267  0.0884 -0.1438
14212TIP3   OH264126   6.066   3.455   1.802 -0.1243 -0.4986  0.3473
14212TIP3    H164127   6.075   3.371   1.757 -1.1402  1.2618 -3.5666
14212TIP3    H264128   6.151   3.496   1.793  0.0429 -0.6191  1.2668
14213TIP3   OH264129   0.634   0.926   0.068  0.3571  0.0371  0.7620
14213TIP3    H164130   0.621   0.901   0.160  2.2224  0.4172  1.1655
14213TIP3    H264131   0.551   0.968   0.043 -0.3377 -0.4642  2.1206
14214TIP3   OH264132   4.770   3.473   1.782  0.0948  0.3293 -0.5987
14214TIP3    H164133   4.719   3.489   1.862 -0.0720  0.3003 -0.6998
14214TIP3    H264134   4.830   3.403   1.807 -0.2562  0.0141 -0.6255
14215TIP3   OH264135   4.422   6.030   5.033  0.2342  0.3867 -0.1244
14215TIP3    H164136   4.435   5.939   5.059 -2.3218  0.1354  0.5085
14215TIP3    H264137   4.386   6.025   4.945 -1.3909  0.6546  0.4915
14216TIP3   OH264138   2.665   0.414   6.087 -0.1637 -0.2493  0.4832
14216TIP3    H164139   2.685   0.386   6.176  0.8491 -2.8758 -0.4826
14216TIP3    H264140   2.582   0.462   6.096  0.0775 -0.1390  2.8508
14217TIP3   OH264141   6.108   5.562   0.102 -0.3308  0.0277 -0.2649
14217TIP3    H164142   6.183   5.617   0.080 -0.7537  0.8856  0.3894
14217TIP3    H264143   6.079   5.593   0.187 -0.7760 -1.0124 -0.0173
14218TIP3   OH264144   6.790   3.425  13.837 -0.1909 -0.0982 -0.0333
14218TIP3    H164145   6.797   3.361  13.907 -1.2008  0.5211  0.6636
14218TIP3    H264146   6.877   3.428  13.798 -0.0918 -1.7760 -0.0022
14219TIP3   OH264147   2.177   2.741   1.422 -0.0952 -0.8975 -0.1144
14219TIP3    H164148   2.172   2.836   1.412 -2.4365 -0.8801  0.7872
14219TIP3    H264149   2.248   2.728   1.485  0.4262  0.2137 -0.4383
14220TIP3   OH264150   4.352   4.989  13.046 -0.0184  0.1157  0.2712
14220TIP3    H164151   4.348   4.979  12.951  1.2758 -0.7408  0.2703
14220TIP3    H264152   4.339   5.082  13.061  2.4231  0.7643 -0.9958
14221TIP3   OH264153   4.815   6.464   1.529  0.0325  0.1296 -0.1483
14221TIP3    H164154   4.870   6.385   1.525 -0.8382 -0.4579 -1.2123
14221TIP3    H264155   4.783   6.466   1.619  2.2935  0.8770  0.7167
14222TIP3   OH264156   1.706   3.764   1.098  0.1974 -0.1910 -0.1102
14222TIP3    H164157   1.775   3.733   1.038  0.2370 -2.6886  1.0827
14222TIP3    H264158   1.753   3.803   1.171  0.3015 -0.3708 -0.0796
14223TIP3   OH264159   4.499   4.163  16.444  0.2944 -0.0096  0.5087
14223TIP3    H164160   4.556   4.183  16.518  1.0241 -0.3401  0.0509
14223TIP3    H264161   4.548   4.099  16.392 -0.9448 -1.0921  0.6373
14224TIP3   OH264162   5.728   2.660  16.759  0.1132  0.4296 -0.6163
14224TIP3    H164163   5.820   2.685  16.764  0.1619  0.7409 -2.4450
14224TIP3    H264164   5.725   2.590  16.695 -0.4392 -2.4646  2.3335
14225TIP3   OH264165   0.448   5.564   0.097 -0.0414  0.2385 -0.0470
14225TIP3    H164166   0.456   5.571   0.002  0.8111  1.6748  0.1053
14225TIP3    H264167   0.538   5.560   0.129 -0.3061 -2.0282  0.6321
14226TIP3   OH264168   6.314   3.830   3.313 -0.5052 -0.1730  0.3760
14226TIP3    H164169   6.315   3.920   3.346 -3.9405  0.0459  0.1861
14226TIP3    H264170   6.390   3.826   3.254  1.2656  1.7195  2.3501
14227TIP3   OH264171   3.516   3.039  17.120  0.5366 -0.0414 -0.1022
14227TIP3    H164172   3.513   2.945  17.101  1.9106 -0.2982  0.8130
14227TIP3    H264173   3.462   3.079  17.052 -1.4871 -1.6161  0.4645
14228TIP3   OH264174   4.338   3.601   1.138 -0.3752 -0.3906 -0.4286
14228TIP3    H164175   4.363   3.674   1.195 -0.6702 -1.3285  0.9408
14228TIP3    H264176   4.386   3.526   1.172 -3.1713 -1.7391  0.8335
14229TIP3   OH264177   6.394   3.034  13.128 -0.1750 -0.3187 -0.3644
14229TIP3    H164178   6.410   3.115  13.177 -0.1502 -0.7215  0.3011
14229TIP3    H264179   6.480   2.993  13.120 -0.5304 -1.7240  1.8814
14230TIP3   OH264180   1.682   1.216  15.642  0.6414 -0.1096  0.1095
14230TIP3    H164181   1.756   1.159  15.660 -0.5892 -1.9416 -0.3389
14230TIP3    H264182   1.659   1.197  15.551 -0.4769  0.2984  0.2870
14231TIP3   OH264183   0.081   6.256   5.614  0.2408  0.2348  0.0665
14231TIP3    H164184   0.030   6.176   5.613 -0.1289  0.4632 -1.5765
14231TIP3    H264185   0.017   6.326   5.598  0.8612  0.6403 -0.7200
14232TIP3   OH264186   2.022   4.873  16.096  0.4420 -0.2598 -0.4720
14232TIP3    H164187   2.083   4.939  16.127  0.1355 -0.3294  0.3000
14232TIP3    H264188   2.044   4.794  16.146  0.2772 -0.5161 -0.8012
14233TIP3   OH264189   5.329   0.819   3.419 -0.3046 -0.0150 -0.1765
14233TIP3    H164190   5.250   0.765   3.423 -0.3194  0.0141 -0.0531
14233TIP3    H264191   5.348   0.840   3.511  1.2649 -2.0917  0.0668
14234TIP3   OH264192   3.284   6.674   1.399  0.6645 -0.2775 -0.3582
14234TIP3    H164193   3.346   6.667   1.472 -0.0277  1.1679  0.3847
14234TIP3    H264194   3.263   6.767   1.393 -0.6535 -0.6060 -1.2704
14235TIP3   OH264195   2.707   2.348  17.194  0.0354  0.4987 -0.3481
14235TIP3    H164196   2.768   2.285  17.234  0.0874  0.7948  0.0405
14235TIP3    H264197   2.734   2.352  17.102 -0.5804 -0.7836 -0.6085
14236TIP3   OH264198   1.704   5.442   4.285  0.0234  0.5391 -0.1764
14236TIP3    H164199   1.711   5.534   4.313 -0.7820  1.3430 -2.4139
14236TIP3    H264200   1.789   5.404   4.306  0.5690  1.9396  0.2728
14237TIP3   OH264201   6.309   3.133  14.068 -0.1676  0.1870 -0.0203
14237TIP3    H164202   6.229   3.170  14.103 -0.2199 -0.2513  0.3321
14237TIP3    H264203   6.285   3.100  13.982  0.5547  3.6281 -1.6865
14238TIP3   OH264204   2.367   3.770   4.615  0.2126 -0.1705  0.0083
14238TIP3    H164205   2.330   3.772   4.527 -0.4175 -0.7744  0.2485
14238TIP3    H264206   2.399   3.859   4.629  1.4306 -0.3758 -1.2839
14239TIP3   OH264207   3.404   0.834  12.175 -0.4583 -0.0822  0.1613
14239TIP3    H164208   3.448   0.750  12.180 -0.0652  0.1750  1.3944
14239TIP3    H264209   3.312   0.815  12.196 -0.3014 -0.1646  0.8052
14240TIP3   OH264210   0.972   5.352  14.204  0.5290  1.0377 -0.2639
14240TIP3    H164211   1.007   5.312  14.283  0.2251  0.8377 -0.2305
14240TIP3    H264212   0.882   5.319  14.197 -0.6702  3.6690  1.1746
14241TIP3   OH264213   6.730   3.687  13.906  0.0553  0.3559 -0.7232
14241TIP3    H164214   6.683   3.731  13.835 -2.6017 -1.3031 -0.1462
14241TIP3    H264215   6.755   3.602  13.869 -0.2413 -0.0275 -0.0575
14242TIP3   OH264216   3.603   1.981   5.639  0.0352 -0.2405 -0.0963
14242TIP3    H164217   3.585   2.006   5.730  0.3588  0.5230 -0.2412
14242TIP3    H264218   3.695   2.004   5.626  0.6883 -2.4927  0.0950
14243TIP3   OH264219   4.744   1.003   0.455  0.5355  0.0300  0.6388
14243TIP3    H164220   4.801   1.065   0.500  0.3255 -0.8945  2.2813
14243TIP3    H264221   4.671   0.989   0.516 -0.8783  0.3126 -0.9195
14244TIP3   OH264222   3.408   6.434   5.366  0.2725  0.6748 -0.2177
14244TIP3    H164223   3.341   6.480   5.417 -1.3153 -0.5384 -1.1313
14244TIP3    H264224   3.488   6.444   5.418 -1.1723 -0.2269  2.3773
14245TIP3   OH264225   6.454   2.974   2.946 -0.0768 -0.2715 -0.5890
14245TIP3    H164226   6.466   3.001   3.037 -1.0821  0.2889 -0.6073
14245TIP3    H264227   6.362   2.948   2.941 -0.0119 -0.3589 -1.4351
14246TIP3   OH264228   1.649   0.985  13.715 -0.2734 -0.2286  0.1781
14246TIP3    H164229   1.660   0.890  13.703 -0.4162 -0.1296 -0.8483
14246TIP3    H264230   1.557   1.001  13.693  0.2243  0.4090 -1.6996
14247TIP3   OH264231   4.489   2.261   5.315 -0.2891  0.3876 -0.6476
14247TIP3    H164232   4.461   2.176   5.281  2.0068 -0.3433 -0.9098
14247TIP3    H264233   4.515   2.244   5.405  2.2289  0.2301 -1.3131
14248TIP3   OH264234   1.816   3.609   6.346  0.2596 -0.0475 -0.1932
14248TIP3    H164235   1.869   3.656   6.282  0.5841 -1.1025 -0.7179
14248TIP3    H264236   1.726   3.616   6.314  0.4460 -0.7627 -0.9045
14249TIP3   OH264237   6.617   6.369   3.558 -0.1655  0.0630  0.1069
14249TIP3    H164238   6.658   6.316   3.626  2.0913 -0.0940 -1.2452
14249TIP3    H264239   6.554   6.311   3.516  0.9525 -0.9973 -0.1680
14250TIP3   OH264240   6.771   0.836  15.730 -0.1302  0.0172  0.1026
14250TIP3    H164241   6.817   0.766  15.683 -0.7552 -0.6289  0.4344
14250TIP3    H264242   6.820   0.847  15.811  0.0959  0.1228 -0.0463
14251TIP3   OH264243   1.754   2.222  11.186  0.1886  0.1119  0.0665
14251TIP3    H164244   1.678   2.241  11.132 -0.3505  2.0605  1.3946
14251TIP3    H264245   1.772   2.129  11.170 -1.8736 -0.1690 -0.9959
14252TIP3   OH264246   0.573   4.065  15.028 -0.6270  0.3825 -0.3038
14252TIP3    H164247   0.522   4.135  15.070  1.1321  1.5449 -0.0077
14252TIP3    H264248   0.636   4.038  15.094 -0.9497 -1.1845 -0.5965
14253TIP3   OH264249   0.081   5.813  13.372 -0.0484 -0.0759 -0.7280
14253TIP3    H164250   0.029   5.868  13.431  1.7649 -1.5447  2.5201
14253TIP3    H264251   0.171   5.842  13.386  0.8072 -2.8048  0.0036
14254TIP3   OH264252   4.263   4.654  12.035  0.5516 -0.6557 -0.7023
14254TIP3    H164253   4.317   4.601  12.094  0.1131 -0.0896  0.2264
14254TIP3    H264254   4.196   4.595  12.003 -1.7640 -0.1102  2.5992
14255TIP3   OH264255   2.757   4.822   1.734  0.3517 -0.2438  0.3473
14255TIP3    H164256   2.699   4.768   1.789  0.8218  0.1298  1.2309
14255TIP3    H264257   2.704   4.845   1.658 -1.3969  1.8231  2.0877
14256TIP3   OH264258   5.408   1.574  16.099  0.0422 -0.3309  0.4739
14256TIP3    H164259   5.393   1.479  16.093  0.1548 -0.4161  1.3504
14256TIP3    H264260   5.501   1.585  16.078  0.2648 -0.5326  1.3196
14257TIP3   OH264261   2.878   4.351  16.903  0.0123 -1.0896 -0.6634
14257TIP3    H164262   2.965   4.388  16.888  0.0598  0.1355  2.0613
14257TIP3    H264263   2.854   4.311  16.819  2.6861 -0.4575 -1.8313
14258TIP3   OH264264   2.750   0.043   5.736 -0.0439  0.4688 -0.4016
14258TIP3    H164265   2.755   0.059   5.830 -0.5424 -0.6344 -0.1639
14258TIP3    H264266   2.777  -0.049   5.726 -1.7202  0.0115 -1.1025
14259TIP3   OH264267   0.213   1.722   4.881 -0.8700 -0.2912 -0.2619
14259TIP3    H164268   0.137   1.781   4.879 -0.1414  0.7310  0.6555
14259TIP3    H264269   0.208   1.680   4.967 -0.5451 -0.4217 -0.3066
14260TIP3   OH264270   1.340   1.609   2.820  0.0894 -0.6067 -0.4157
14260TIP3    H164271   1.316   1.648   2.736  0.4638 -0.7426 -0.5893
14260TIP3    H264272   1.378   1.682   2.870 -1.0769 -0.2919  0.0251
14261TIP3   OH264273   5.746   6.060   3.806 -0.4928  0.2229  0.8687
14261TIP3    H164274   5.816   6.046   3.870 -1.1562  0.6997  1.7198
14261TIP3    H264275   5.781   6.124   3.745  0.8473 -1.5892 -0.3774
14262TIP3   OH264276   3.036   0.609   4.138 -0.0572 -0.1191 -0.3403
14262TIP3    H164277   2.957   0.618   4.084 -0.3856 -2.0569 -0.2650
14262TIP3    H264278   3.014   0.649   4.222 -0.6881  0.0145 -0.5686
14263TIP3   OH264279   2.068   0.877  16.689  0.2917 -0.0761 -0.0623
14263TIP3    H164280   2.023   0.797  16.663 -1.2162 -0.0643  2.2151
14263TIP3    H264281   2.065   0.875  16.785  1.9671  1.7569  0.0772
14264TIP3   OH264282   4.442   0.465   5.013 -0.8944  0.0400  0.1269
14264TIP3    H164283   4.447   0.453   5.108 -0.7799 -0.6163  0.0471
14264TIP3    H264284   4.479   0.551   4.997  2.8469 -1.3578  0.3284
14265TIP3   OH264285   3.520   5.889   6.015  0.3851  0.7601  0.1403
14265TIP3    H164286   3.579   5.950   5.970 -0.3724  0.4719 -1.3023
14265TIP3    H264287   3.452   5.944   6.052 -0.1009  0.8589 -0.8542
14266TIP3   OH264288   0.374   1.718  11.861 -0.4268  0.5618  0.1664
14266TIP3    H164289   0.462   1.749  11.884  0.3479 -0.7891 -0.7957
14266TIP3    H264290   0.327   1.798  11.834  0.5142  1.3012  0.6397
14267TIP3   OH264291   0.211   4.175  16.450 -0.3820  0.5874 -0.0179
14267TIP3    H164292   0.247   4.091  16.422 -1.2760  0.5614 -1.1395
14267TIP3    H264293   0.280   4.214  16.504  0.2617 -0.6093  0.0481
14268TIP3   OH264294   6.112   2.797  12.552 -0.3056  0.0623  0.1455
14268TIP3    H164295   6.022   2.764  12.553 -0.1411 -0.5037 -1.3019
14268TIP3    H264296   6.138   2.800  12.644 -0.8518 -2.5011  0.4517
14269TIP3   OH264297   1.516   0.391   0.102  0.7098  0.0762 -0.0451
14269TIP3    H164298   1.554   0.395   0.015 -0.2114  0.4078 -0.4413
14269TIP3    H264299   1.584   0.351   0.156  2.3515  2.2493 -0.3424
14270TIP3   OH264300   5.192   3.399  12.679  0.2873  0.2890 -0.4512
14270TIP3    H164301   5.182   3.308  12.708 -0.7834  0.0504 -1.4560
14270TIP3    H264302   5.189   3.450  12.759  1.6562 -0.5978  0.2013
14271TIP3   OH264303   2.362   2.259  13.555  0.4898 -0.4918 -0.2020
14271TIP3    H164304   2.275   2.292  13.578  0.8208 -0.3732  0.9170
14271TIP3    H264305   2.385   2.199  13.626  1.1668 -0.8178 -0.6813
14272TIP3   OH264306   4.039   5.069  12.145  0.0678  0.4443  0.0880
14272TIP3    H164307   3.957   5.084  12.098 -0.0899 -1.8999 -0.4673
14272TIP3    H264308   4.102   5.127  12.103 -0.9479  1.1634 -0.4759
14273TIP3   OH264309   6.528   5.823  14.863 -0.3055 -0.0396 -0.4874
14273TIP3    H164310   6.623   5.833  14.876 -0.3128 -1.3273  0.9272
14273TIP3    H264311   6.517   5.816  14.769  1.0772 -0.3275 -0.6469
14274TIP3   OH264312   4.538   5.371  14.648 -0.4300  0.4757  0.3464
14274TIP3    H164313   4.535   5.276  14.647  1.1013  0.3931 -0.6614
14274TIP3    H264314   4.610   5.393  14.589 -1.1050  2.2781  0.1248
14275TIP3   OH264315   3.168   1.700  11.620 -0.0074  0.2610  0.4162
14275TIP3    H164316   3.241   1.638  11.612  0.1963  0.5766 -0.1924
14275TIP3    H264317   3.104   1.654  11.675  0.1186 -0.5120 -0.0697
14276TIP3   OH264318   3.988   6.550   5.068  0.4850  0.0377 -0.7707
14276TIP3    H164319   4.056   6.606   5.106 -2.2170  1.4752  2.5177
14276TIP3    H264320   3.989   6.471   5.122  0.4641 -0.5430 -1.6120
14277TIP3   OH264321   4.020   0.436   1.722  0.4796  0.3060 -0.7433
14277TIP3    H164322   3.986   0.483   1.798  1.8374 -0.5326  0.4117
14277TIP3    H264323   4.017   0.501   1.651 -1.1333  0.9956 -0.0919
14278TIP3   OH264324   4.744   4.398  12.644  0.1900  0.0529 -0.0421
14278TIP3    H164325   4.698   4.482  12.639  0.3106  0.0836 -0.6947
14278TIP3    H264326   4.722   4.364  12.731 -0.0265  0.6628  0.1462
14279TIP3   OH264327   1.217   1.724  10.345 -0.0283  0.1633 -0.4628
14279TIP3    H164328   1.266   1.762  10.273  0.3121  0.8756  0.1301
14279TIP3    H264329   1.279   1.666  10.389  0.6946  1.9334  0.9779
14280TIP3   OH264330   3.643   0.283   2.338  0.2492 -0.1970  0.6614
14280TIP3    H164331   3.680   0.195   2.340 -1.0576 -0.7682  0.8349
14280TIP3    H264332   3.657   0.313   2.248  2.2201  0.1188  1.0365
14281TIP3   OH264333   5.532   1.415  14.668  0.1634 -0.0950 -0.2701
14281TIP3    H164334   5.545   1.490  14.725 -2.7181 -1.0376  1.8567
14281TIP3    H264335   5.553   1.339  14.723 -1.3626 -0.9777 -0.8505
14282TIP3   OH264336   0.656   0.100  12.967 -0.0933 -0.4913 -0.1318
14282TIP3    H164337   0.588   0.151  13.009  0.4197 -1.0985  1.4981
14282TIP3    H264338   0.737   0.124  13.012  0.8803  0.4446 -2.2177
14283TIP3   OH264339   2.042   5.482  11.026  0.0398 -0.0290  0.2922
14283TIP3    H164340   2.076   5.394  11.011  0.9819  0.6590 -1.9828
14283TIP3    H264341   2.025   5.517  10.938 -1.5220  1.6198  1.1747
14284TIP3   OH264342   5.938   4.850   0.825  0.7491  0.3965 -0.4421
14284TIP3    H164343   5.900   4.793   0.758 -0.7933 -0.6571  1.2407
14284TIP3    H264344   5.904   4.937   0.805 -1.5906 -0.2878  0.1997
14285TIP3   OH264345   1.360   0.647   5.294  0.7522 -0.0110 -0.5557
14285TIP3    H164346   1.278   0.654   5.342 -0.6583 -0.1211 -2.7823
14285TIP3    H264347   1.350   0.568   5.241  2.1193  0.2122 -1.2088
14286TIP3   OH264348   2.311   0.991  15.758 -0.1708 -0.4691  0.2865
14286TIP3    H164349   2.312   0.923  15.691  1.3726 -1.3479  1.1401
14286TIP3    H264350   2.256   1.060  15.721 -1.2919 -1.8996 -0.8666
14287TIP3   OH264351   1.345   4.368   2.192 -0.2125  0.4715 -0.8418
14287TIP3    H164352   1.315   4.279   2.176 -1.5208  0.5777  0.7688
14287TIP3    H264353   1.280   4.424   2.149 -0.2644  0.6634 -0.5199
14288TIP3   OH264354   2.626   0.751   3.867 -0.6387 -0.3627  0.0194
14288TIP3    H164355   2.547   0.699   3.854  0.6011 -2.3343  0.0763
14288TIP3    H264356   2.655   0.773   3.778 -0.4828 -0.8364 -0.0466
14289TIP3   OH264357   0.376   5.592   1.395 -0.3303  0.2390  0.1922
14289TIP3    H164358   0.434   5.548   1.333 -0.4814 -0.7429  0.7230
14289TIP3    H264359   0.433   5.651   1.444  0.0306  0.0393  0.0104
14290TIP3   OH264360   4.783   4.093   2.504  0.3000  0.3076  0.1483
14290TIP3    H164361   4.806   4.053   2.588 -0.2886 -1.8650 -0.6652
14290TIP3    H264362   4.692   4.122   2.515  0.4346  0.6209  0.4550
14291TIP3   OH264363   0.750   0.009  16.807 -0.2299  0.0905 -0.4631
14291TIP3    H164364   0.741  -0.056  16.876 -2.5265 -0.4973 -1.2242
14291TIP3    H264365   0.720   0.091  16.846  0.1208  0.1273 -0.2713
14292TIP3   OH264366   1.435   5.077  16.067  0.2012 -0.0731  0.0553
14292TIP3    H164367   1.391   5.143  16.013 -0.1841 -0.3987 -0.0423
14292TIP3    H264368   1.479   5.126  16.135 -0.3094  0.2671  0.1443
14293TIP3   OH264369   5.126   6.664  14.696 -0.2128  0.3518  0.4994
14293TIP3    H164370   5.081   6.596  14.747  0.3589 -0.0552  0.4668
14293TIP3    H264371   5.118   6.743  14.750 -0.4241  0.1421  0.7822
14294TIP3   OH264372   2.612   1.897  13.577 -0.3760 -0.0056 -0.0308
14294TIP3    H164373   2.680   1.958  13.606 -0.0478 -1.1987  1.8795
14294TIP3    H264374   2.534   1.925  13.624 -1.0607  0.8739 -1.6200
14295TIP3   OH264375   0.732   4.439   2.828 -0.4720 -0.1709  0.0616
14295TIP3    H164376   0.815   4.454   2.873 -0.1127  0.1617 -0.6868
14295TIP3    H264377   0.712   4.347   2.843 -0.3048 -0.0932  0.7918
14296TIP3   OH264378   2.701   4.920   1.444  0.5118  0.3790  0.3179
14296TIP3    H164379   2.676   4.990   1.384  0.5924 -0.0246 -0.1899
14296TIP3    H264380   2.749   4.857   1.390 -0.8397 -0.8061  0.4349
14297TIP3   OH264381   5.154   3.126  10.308 -0.3895  0.2456 -0.0200
14297TIP3    H164382   5.083   3.163  10.359  0.0021  0.0684  0.6586
14297TIP3    H264383   5.114   3.052  10.262 -0.6487  0.1512  0.3532
14298TIP3   OH264384   1.753   2.504  12.535  0.2304  0.4061 -0.2756
14298TIP3    H164385   1.708   2.481  12.616 -0.2424  0.6067 -0.4733
14298TIP3    H264386   1.771   2.420  12.493  0.2996  0.3111 -0.0530
14299TIP3   OH264387   1.048   1.792  10.604 -0.7764 -0.0483 -0.0734
14299TIP3    H164388   1.037   1.718  10.544  0.4768 -0.1642 -0.1948
14299TIP3    H264389   0.959   1.824  10.620 -1.6934 -3.3192  2.2476
14300TIP3   OH264390   3.575   3.257   1.017  0.1992  0.1639  0.7104
14300TIP3    H164391   3.503   3.220   1.068  0.1550 -2.0517 -0.8191
14300TIP3    H264392   3.653   3.234   1.067  0.1591 -1.9725 -0.1191
14301TIP3   OH264393   2.660   2.616  16.801 -0.3377  0.0136  0.5274
14301TIP3    H164394   2.613   2.555  16.745 -1.2335 -0.6319  1.9218
14301TIP3    H264395   2.728   2.563  16.843 -0.6294  0.1263  1.1654
14302TIP3   OH264396   0.714   5.623   1.239 -0.6109  0.0171 -0.1454
14302TIP3    H164397   0.794   5.571   1.233  0.8553  2.0109  1.1099
14302TIP3    H264398   0.644   5.559   1.229  1.1048 -1.8875 -0.6980
14303TIP3   OH264399   1.326   5.373   5.921 -0.4667  0.0941  0.2861
14303TIP3    H164400   1.383   5.309   5.964  0.8369  0.5551 -0.6932
14303TIP3    H264401   1.299   5.433   5.991  3.3702  2.1464  0.2468
14304TIP3   OH264402   0.497   3.959  15.327  0.1058  0.4429  0.3872
14304TIP3    H164403   0.477   3.874  15.288 -2.7045  0.3541  1.7329
14304TIP3    H264404   0.555   3.939  15.401  0.2855 -0.1871  0.0766
14305TIP3   OH264405   2.460   5.986  11.940 -0.2363  0.1476  0.1720
14305TIP3    H164406   2.460   5.907  11.885 -0.7418  0.3817 -0.1712
14305TIP3    H264407   2.548   5.989  11.978  0.7589  0.9513 -2.0363
14306TIP3   OH264408   5.749   2.364  14.821  0.2141 -0.5781  0.2702
14306TIP3    H164409   5.843   2.343  14.818  0.0250 -1.8173  1.9101
14306TIP3    H264410   5.706   2.279  14.833 -1.0189  0.1443  1.1039
14307TIP3   OH264411   2.991   1.500   1.363 -0.1330  0.2142  0.6014
14307TIP3    H164412   3.080   1.520   1.394 -0.0277  2.4277 -0.8970
14307TIP3    H264413   2.950   1.585   1.350 -1.4385 -0.6484 -1.5837
14308TIP3   OH264414   3.690   3.871   2.931  0.0913  0.2631 -0.3793
14308TIP3    H164415   3.649   3.885   2.846 -1.2393  1.6900  0.4483
14308TIP3    H264416   3.637   3.923   2.992  1.4362 -0.1530  1.2079
14309TIP3   OH264417   2.606   4.931  11.840 -0.6726 -0.7684 -0.3690
14309TIP3    H164418   2.599   4.962  11.749  1.5600 -1.0506 -0.7069
14309TIP3    H264419   2.623   5.010  11.891  0.9616 -0.9011 -0.6517
14310TIP3   OH264420   1.986   0.647  12.179  0.3290  0.4712  0.3008
14310TIP3    H164421   1.968   0.567  12.129 -0.2112  0.0760  1.1037
14310TIP3    H264422   1.912   0.705  12.160 -0.3215 -0.0047  1.2676
14311TIP3   OH264423   5.882   0.051  12.995 -0.2850  0.0806  0.3085
14311TIP3    H164424   5.908   0.063  12.904 -2.6660  0.7485 -0.3359
14311TIP3    H264425   5.958   0.081  13.045  2.0232 -2.4278 -1.3380
14312TIP3   OH264426   5.141   2.494   1.723 -0.1349  0.4615 -0.0519
14312TIP3    H164427   5.233   2.476   1.699 -0.7120 -3.2670 -0.0483
14312TIP3    H264428   5.142   2.500   1.818  0.2907  2.3577 -0.1267
14313TIP3   OH264429   1.592   0.483   4.492 -0.5148  0.4415  0.0763
14313TIP3    H164430   1.516   0.475   4.549 -1.0375  0.0630 -0.6561
14313TIP3    H264431   1.596   0.399   4.446  0.4643  0.3850  0.2425
14314TIP3   OH264432   5.551   5.585   4.158  0.0720  0.2313 -0.1196
14314TIP3    H164433   5.545   5.511   4.097  1.9914  0.1032 -0.1955
14314TIP3    H264434   5.485   5.647   4.127  0.1141 -0.3997 -1.5277
14315TIP3   OH264435   0.701   0.412   4.936  0.4073 -0.2552 -0.5130
14315TIP3    H164436   0.668   0.438   4.850  0.3263 -0.4783 -0.5500
14315TIP3    H264437   0.622   0.407   4.991  0.4158 -0.4961 -0.5249
14316TIP3   OH264438   1.398   1.984   1.145 -0.1572  0.0567 -0.3088
14316TIP3    H164439   1.477   1.971   1.092  0.3382  1.7985 -0.0707
14316TIP3    H264440   1.408   1.924   1.219 -0.1703 -1.3646 -1.4335
14317TIP3   OH264441   6.209   2.096   2.447 -0.3098 -0.5019  0.4929
14317TIP3    H164442   6.188   2.131   2.534  0.9066 -0.5578  0.8371
14317TIP3    H264443   6.270   2.023   2.465 -0.8003 -1.1420 -0.3559
14318TIP3   OH264444   5.026   2.812  14.220 -0.1106 -0.4940  0.3091
14318TIP3    H164445   5.004   2.720  14.232  0.1529 -0.9103 -1.9900
14318TIP3    H264446   4.967   2.858  14.279 -0.7801 -2.0894  0.9415
14319TIP3   OH264447   4.540   1.913   3.587  0.3058 -0.3558 -0.1678
14319TIP3    H164448   4.615   1.944   3.638 -2.4446  2.0444  2.8787
14319TIP3    H264449   4.492   1.992   3.565 -2.1373 -1.8628 -0.5861
14320TIP3   OH264450   0.760   0.724  15.884 -0.1961  0.5368 -0.1482
14320TIP3    H164451   0.752   0.818  15.902 -0.5817  0.1051  2.1513
14320TIP3    H264452   0.833   0.695  15.938  0.0363 -0.4778 -0.9725
14321TIP3   OH264453   5.386   5.959   3.530  0.5298 -0.1234  0.6485
14321TIP3    H164454   5.442   5.887   3.500 -1.4687 -1.7556  0.6563
14321TIP3    H264455   5.307   5.952   3.477 -1.4878 -0.6085  3.4938
14322TIP3   OH264456   0.621   2.586   0.419 -0.0855 -0.7103 -0.3343
14322TIP3    H164457   0.635   2.563   0.511  0.0808  0.4098 -0.0618
14322TIP3    H264458   0.526   2.590   0.409 -0.1240  1.4536  0.4256
14323TIP3   OH264459   1.657   4.376   2.232  0.4411 -0.3661  0.0390
14323TIP3    H164460   1.652   4.288   2.269  0.1990  0.3496  1.7791
14323TIP3    H264461   1.567   4.409   2.237  0.6820  0.2748  0.1333
14324TIP3   OH264462   0.107   5.658   2.954  0.2975  0.2802 -0.4435
14324TIP3    H164463   0.169   5.716   2.910 -1.3291  2.0433 -0.5471
14324TIP3    H264464   0.032   5.654   2.894  0.0105 -1.2056 -0.0005
14325TIP3   OH264465   2.794   2.972   5.687  0.4439  0.1125  0.2697
14325TIP3    H164466   2.726   3.028   5.724  0.1587  0.0992 -0.2246
14325TIP3    H264467   2.809   2.905   5.754  0.1669  0.2717  0.4951
14326TIP3   OH264468   1.146   4.190  12.490  0.1209 -0.1879  0.0314
14326TIP3    H164469   1.223   4.247  12.485  1.2411 -1.6164  0.3796
14326TIP3    H264470   1.153   4.133  12.415  0.3581 -1.4699  0.9992
14327TIP3   OH264471   3.282   1.192   2.632 -0.3116  0.3997 -0.1409
14327TIP3    H164472   3.295   1.111   2.582 -0.3014 -0.3915  1.1134
14327TIP3    H264473   3.189   1.191   2.656 -0.0735  0.1902  0.8161
14328TIP3   OH264474   5.020   4.669   4.183 -0.4430  0.1979 -0.3792
14328TIP3    H164475   5.009   4.655   4.278 -0.3535  0.4085 -0.3387
14328TIP3    H264476   4.965   4.744   4.164  0.0628  0.5706 -0.3767
14329TIP3   OH264477   1.989   3.133   4.138  0.2203 -0.3523  0.5744
14329TIP3    H164478   2.056   3.076   4.176  0.4802 -0.2675  0.2508
14329TIP3    H264479   1.984   3.106   4.046 -0.1485 -0.3178  0.5816
14330TIP3   OH264480   5.354   4.539  15.795 -0.5024  0.0362 -0.3354
14330TIP3    H164481   5.296   4.612  15.816  1.1378  0.6405  2.6822
14330TIP3    H264482   5.366   4.493  15.878  0.6399 -2.1219 -1.5949
14331TIP3   OH264483   4.807   2.338  14.043  0.0918 -0.5224  0.2433
14331TIP3    H164484   4.733   2.312  13.989 -0.4241  0.2365  0.5586
14331TIP3    H264485   4.874   2.272  14.026 -0.2304 -0.5651 -0.9481
14332TIP3   OH264486   2.084   0.628   4.838 -0.1663  0.8694 -0.1797
14332TIP3    H164487   2.059   0.713   4.872  0.3361  1.4543 -1.2223
14332TIP3    H264488   2.180   0.633   4.830 -0.2064  0.5025 -0.9859
14333TIP3   OH264489   6.736   4.263  14.607 -0.6248  0.0749 -0.2068
14333TIP3    H164490   6.792   4.197  14.647  0.2604  0.7397 -0.3212
14333TIP3    H264491   6.794   4.313  14.549 -0.5846  2.7131  1.8812
14334TIP3   OH264492   1.253   3.603  10.972  0.5294  0.1631 -0.2695
14334TIP3    H164493   1.248   3.649  10.888  1.4555  0.3319 -0.2415
14334TIP3    H264494   1.299   3.521  10.951  2.4838  1.0281  0.3787
14335TIP3   OH264495   6.501   5.328   1.422 -0.2016 -0.2376  1.0076
14335TIP3    H164496   6.536   5.375   1.498  0.6127 -1.2615  1.2814
14335TIP3    H264497   6.540   5.373   1.347 -0.8988  0.6878  1.1826
14336TIP3   OH264498   1.609   5.297  15.498  0.2002 -0.1258 -0.0134
14336TIP3    H164499   1.673   5.344  15.444 -0.1457 -1.2980 -1.5269
14336TIP3    H264500   1.527   5.344  15.485 -0.0790 -0.9059 -1.2869
14337TIP3   OH264501   2.114   4.790  16.932  0.0368 -0.5299  0.7841
14337TIP3    H164502   2.191   4.752  16.889 -1.3593 -1.1280 -1.2984
14337TIP3    H264503   2.045   4.787  16.866 -1.2365  1.9841  1.8718
14338TIP3   OH264504   4.552   2.327   2.647  0.3983 -0.0557  0.7178
14338TIP3    H164505   4.559   2.266   2.720  3.7106 -0.4148  0.2690
14338TIP3    H264506   4.624   2.389   2.660 -1.8666  2.8848  0.2858
14339TIP3   OH264507   2.301   3.650  14.235 -0.1399 -0.0736  0.5444
14339TIP3    H164508   2.326   3.740  14.211 -2.3599  0.3568 -0.4981
14339TIP3    H264509   2.271   3.657  14.325 -1.8674  0.6695 -0.0285
14340TIP3   OH264510   4.872   6.804  16.741  0.0041  0.3711  0.1737
14340TIP3    H164511   4.906   6.892  16.729  1.5847 -0.0356  1.3756
14340TIP3    H264512   4.923   6.750  16.680  2.0130 -0.3215  2.3389
14341TIP3   OH264513   4.506   4.733  11.713  0.0202 -0.2891 -0.1998
14341TIP3    H164514   4.450   4.779  11.776  1.2237  1.2304 -0.1695
14341TIP3    H264515   4.527   4.650  11.756 -2.1336 -0.9117 -0.2066
14342TIP3   OH264516   0.832   0.025   0.268 -0.4907 -0.0056  0.1732
14342TIP3    H164517   0.767   0.095   0.261  0.1591  0.6193  0.2628
14342TIP3    H264518   0.788  -0.053   0.233 -0.6623  0.8029 -1.4530
14343TIP3   OH264519   4.611   2.220  13.867 -0.4999  0.7476 -0.0439
14343TIP3    H164520   4.573   2.291  13.816 -0.4656 -0.1265 -1.3266
14343TIP3    H264521   4.677   2.181  13.810  0.1650  0.2917  0.9971
14344TIP3   OH264522   5.269   6.529   5.285  0.1588 -0.0947  0.3800
14344TIP3    H164523   5.253   6.484   5.368  0.3281  0.9165  0.9715
14344TIP3    H264524   5.182   6.542   5.248  0.0480 -0.0708  0.6500
14345TIP3   OH264525   0.731   6.214  11.571 -0.3351 -0.6527  0.0265
14345TIP3    H164526   0.648   6.217  11.525 -0.1998 -0.5852 -0.2157
14345TIP3    H264527   0.765   6.126  11.554 -0.4070 -0.7162  0.2130
14346TIP3   OH264528   1.879   4.245   3.708  0.0622  0.0163  0.1497
14346TIP3    H164529   1.784   4.259   3.714 -0.0843 -0.4073 -0.8740
14346TIP3    H264530   1.916   4.299   3.778 -0.9053  0.5169  0.2962
14347TIP3   OH264531   2.188   5.554   1.136 -0.7957 -0.0826 -0.2102
14347TIP3    H164532   2.215   5.642   1.109 -1.2743 -0.5620 -2.4951
14347TIP3    H264533   2.252   5.496   1.096 -2.1243 -0.9124 -1.2332
14348TIP3   OH264534   4.479   1.997  16.066  0.3951 -0.0333  0.3849
14348TIP3    H164535   4.435   1.951  15.994  1.3479  0.1068 -0.3119
14348TIP3    H264536   4.503   2.082  16.028 -1.1422  0.9874  1.5843
14349TIP3   OH264537   5.498   5.738  16.351  0.3919 -0.2502  0.0730
14349TIP3    H164538   5.472   5.648  16.370  1.3628 -0.3752  0.9052
14349TIP3    H264539   5.416   5.785  16.341 -0.1350 -1.0860  0.3843
14350TIP3   OH264540   4.851   6.233  10.992 -0.0452 -1.2521 -0.2259
14350TIP3    H164541   4.772   6.231  11.045 -0.1329 -1.4221 -0.3611
14350TIP3    H264542   4.848   6.318  10.948 -0.3927 -1.4510 -0.5901
14351TIP3   OH264543   3.655   0.828  15.836  0.1599 -0.6003 -0.5231
14351TIP3    H164544   3.620   0.803  15.922  1.3043 -0.2965  0.0451
14351TIP3    H264545   3.586   0.882  15.797  0.5355  1.2615  1.2080
14352TIP3   OH264546   5.436   0.898  15.792  0.0811  0.6369 -0.3220
14352TIP3    H164547   5.359   0.860  15.752  0.2279 -1.4230  1.1995
14352TIP3    H264548   5.446   0.983  15.749 -2.7770  0.8109 -0.8232
14353TIP3   OH264549   3.506   1.124  16.190  0.1834  0.0586  0.5167
14353TIP3    H164550   3.588   1.171  16.206  0.5006  0.2375 -1.4416
14353TIP3    H264551   3.446   1.157  16.256  1.6290  0.0188  1.9176
14354TIP3   OH264552   5.784   6.599   4.405  0.3375  0.7222  0.6697
14354TIP3    H164553   5.778   6.509   4.372  0.7688  0.5304  1.0941
14354TIP3    H264554   5.701   6.613   4.450  0.2922  0.5127  0.6541
14355TIP3   OH264555   1.336   5.916  12.337 -0.1783 -0.3799 -0.2343
14355TIP3    H164556   1.393   5.955  12.403 -0.3928  0.4776 -0.5531
14355TIP3    H264557   1.395   5.861  12.285  0.3008  0.2646 -0.3761
14356TIP3   OH264558   4.699   5.606   2.536 -0.1025  0.2202 -0.2065
14356TIP3    H164559   4.710   5.697   2.507 -1.7331  0.3133 -0.6268
14356TIP3    H264560   4.618   5.577   2.494 -0.2859 -1.0206  0.9241
14357TIP3   OH264561   1.378   5.132  15.092  0.0125  0.3520 -0.0189
14357TIP3    H164562   1.307   5.185  15.055 -2.0369 -1.7079  0.7022
14357TIP3    H264563   1.425   5.099  15.015  0.9166  2.5620 -0.4868
14358TIP3   OH264564   3.459   2.286   5.225  0.1555  0.5457  0.0024
14358TIP3    H164565   3.407   2.310   5.148  1.7305  0.1313 -1.2206
14358TIP3    H264566   3.472   2.369   5.271 -0.3148  0.8944 -0.4767
14359TIP3   OH264567   3.165   4.041   1.096 -0.4845 -0.5241  0.5042
14359TIP3    H164568   3.129   4.009   1.179 -0.5972  0.0052  0.6614
14359TIP3    H264569   3.195   4.129   1.115  0.5922 -0.8312  0.2776
14360TIP3   OH264570   0.595   3.797  14.265  0.2543  0.1297 -0.0846
14360TIP3    H164571   0.511   3.795  14.219  0.3482  1.2187 -0.3464
14360TIP3    H264572   0.660   3.811  14.196  0.6759 -0.9121  0.0940
14361TIP3   OH264573   5.900   4.966   5.025  0.3181 -0.5176  0.1353
14361TIP3    H164574   5.872   4.876   5.041 -2.8362  0.5034  1.1344
14361TIP3    H264575   5.872   4.984   4.936  1.0237 -0.5126 -0.0937
14362TIP3   OH264576   3.240   3.521  15.132  0.0499  0.1949  0.1076
14362TIP3    H164577   3.251   3.430  15.105 -0.4429 -0.3641  1.6681
14362TIP3    H264578   3.149   3.542  15.109  0.0245  0.1385  0.1557
14363TIP3   OH264579   2.452   3.981  11.130 -0.6842 -0.2800  0.1775
14363TIP3    H164580   2.441   3.933  11.047  2.6775 -1.4411  0.2865
14363TIP3    H264581   2.505   4.057  11.107 -0.5825 -0.0566  1.1193
14364TIP3   OH264582   6.359   0.978   1.379 -0.4783  0.1889  0.4438
14364TIP3    H164583   6.378   1.066   1.346 -1.6649  0.4162  0.3276
14364TIP3    H264584   6.369   0.921   1.302 -0.5681  0.3389  0.3211
14365TIP3   OH264585   3.287   4.542  15.460  0.7291  0.7092  0.2640
14365TIP3    H164586   3.355   4.518  15.398  0.4838  1.9936 -0.5272
14365TIP3    H264587   3.210   4.491  15.433  0.7702  0.8702 -0.1456
14366TIP3   OH264588   6.340   1.955   3.072 -0.7795  0.0539  0.7677
14366TIP3    H164589   6.291   1.902   3.135  0.7343 -1.3319  0.8489
14366TIP3    H264590   6.384   1.890   3.016 -1.2372  1.2372 -1.0610
14367TIP3   OH264591   0.242   4.121   4.492  0.0850  0.5084 -0.1081
14367TIP3    H164592   0.211   4.032   4.479  0.1720  0.6593 -1.4449
14367TIP3    H264593   0.315   4.112   4.554 -0.2899 -0.2602  0.2333
14368TIP3   OH264594   0.089   1.293   4.146  0.0945  0.3935 -0.6120
14368TIP3    H164595   0.028   1.323   4.214  0.0017 -1.0108 -0.0421
14368TIP3    H264596   0.138   1.372   4.121 -0.9552  1.2587 -0.0612
14369TIP3   OH264597   2.137   1.623   3.820 -0.3695 -0.2654 -0.3939
14369TIP3    H164598   2.084   1.551   3.854 -0.6973  0.7690  1.3789
14369TIP3    H264599   2.208   1.633   3.883  0.4648  0.0921 -1.3525
14370TIP3   OH264600   5.156   2.219  15.854 -0.2395 -0.5191 -0.2038
14370TIP3    H164601   5.183   2.185  15.769  1.3435 -0.9518  0.4280
14370TIP3    H264602   5.129   2.309  15.837 -1.3674 -1.0408 -1.3740
14371TIP3   OH264603   0.825   6.717   6.881  0.4138  0.0366  0.4130
14371TIP3    H164604   0.904   6.663   6.871  0.8152  0.6786  0.0493
14371TIP3    H264605   0.852   6.804   6.850 -0.0345  0.6048  1.5730
14372TIP3   OH264606   3.393   2.988   0.832  0.1067 -0.0820 -0.8509
14372TIP3    H164607   3.317   3.046   0.841 -0.2836 -0.8474  2.0293
14372TIP3    H264608   3.356   2.900   0.825  0.6518 -0.4485  0.4323
14373TIP3   OH264609   6.022   2.357   4.441  0.0552  0.3731  0.1525
14373TIP3    H164610   6.071   2.375   4.361  0.7035  2.7853  1.0282
14373TIP3    H264611   5.972   2.437   4.459 -0.5144 -0.3015  1.8667
14374TIP3   OH264612   2.365   6.417   5.500  0.0595  0.4895 -0.0868
14374TIP3    H164613   2.413   6.378   5.573 -1.2616  0.7786  0.9745
14374TIP3    H264614   2.357   6.346   5.436  1.3510  0.2784 -0.0440
14375TIP3   OH264615   6.576   5.671   0.735  0.2820  0.2249 -0.5691
14375TIP3    H164616   6.670   5.663   0.749  0.0939  0.8590  1.4977
14375TIP3    H264617   6.539   5.597   0.783 -0.3666  1.5188  1.0245
14376TIP3   OH264618   2.113   2.689   2.123 -0.3817 -0.6008 -0.1325
14376TIP3    H164619   2.044   2.720   2.182  0.6193  1.4087  0.0566
14376TIP3    H264620   2.189   2.743   2.144  1.3599 -2.8370 -0.2279
14377TIP3   OH264621   1.732   0.058   4.412  0.0014  0.4371 -0.4603
14377TIP3    H164622   1.736   0.139   4.361 -2.2606 -0.2183 -1.8034
14377TIP3    H264623   1.671   0.002   4.364  2.6377 -2.7395 -0.4688
14378TIP3   OH264624   4.197   2.858   3.986  0.0084  0.1741 -0.2516
14378TIP3    H164625   4.121   2.895   3.942  0.6074  0.7408 -0.8326
14378TIP3    H264626   4.179   2.870   4.079  0.0699  1.7393 -0.4118
14379TIP3   OH264627   4.202   2.266  15.801 -0.8018  0.0312 -0.1184
14379TIP3    H164628   4.225   2.280  15.893 -0.4996  1.8126 -0.4418
14379TIP3    H264629   4.125   2.209  15.805  2.0198 -4.1675  1.0459
14380TIP3   OH264630   2.317   6.757   3.289  0.0090  0.4427  0.0203
14380TIP3    H164631   2.281   6.706   3.216  1.6173  1.0519 -1.2530
14380TIP3    H264632   2.347   6.839   3.249 -0.2393  1.3574  1.6021
14381TIP3   OH264633   0.431   6.801   3.734  0.2971  0.5491  0.4565
14381TIP3    H164634   0.526   6.795   3.729  0.3679  1.5052  0.3930
14381TIP3    H264635   0.403   6.717   3.769  1.1733  0.2900  0.5575
14382TIP3   OH264636   1.324   0.762  12.367  0.4928  1.1482  0.2407
14382TIP3    H164637   1.419   0.754  12.360  0.4900  1.1759  0.1652
14382TIP3    H264638   1.289   0.692  12.311  0.4572 -0.5579  2.2799
14383TIP3   OH264639   3.487   0.221  14.758  0.6558 -0.3956  0.1607
14383TIP3    H164640   3.421   0.249  14.822  0.9561  1.4469 -0.2597
14383TIP3    H264641   3.475   0.127  14.750  0.1239 -0.5771  2.3804
14384TIP3   OH264642   1.032   0.607  11.667 -0.0744 -0.1382 -0.3302
14384TIP3    H164643   1.017   0.634  11.576 -0.5707 -0.7364 -0.4345
14384TIP3    H264644   1.126   0.617  11.680  0.1345 -0.8873 -1.1910
14385TIP3   OH264645   3.526   4.742   1.581 -0.3207  0.6570 -0.1716
14385TIP3    H164646   3.466   4.690   1.528 -0.5092  1.2697 -0.5603
14385TIP3    H264647   3.475   4.764   1.659  0.6544 -2.1775  1.4275
14386TIP3   OH264648   1.397   1.735   3.627 -0.9126 -0.4956 -0.7431
14386TIP3    H164649   1.317   1.698   3.591 -0.6253  0.6301 -2.6878
14386TIP3    H264650   1.465   1.713   3.563  0.0723 -0.3201  0.2195
14387TIP3   OH264651   0.632   5.751   4.576 -0.2483  0.2980 -0.2082
14387TIP3    H164652   0.606   5.671   4.621 -1.4189  0.5080 -0.4750
14387TIP3    H264653   0.705   5.724   4.520  0.8830 -0.0713  1.3823
14388TIP3   OH264654   2.692   6.481   3.119 -1.4726  0.9888  0.2207
14388TIP3    H164655   2.674   6.439   3.204  0.9819  2.6371  1.6946
14388TIP3    H264656   2.729   6.411   3.065  0.0949  0.5721  1.7276
14389TIP3   OH264657   5.165   1.939   3.865 -0.0405 -0.1502  0.1149
14389TIP3    H164658   5.217   1.882   3.808  0.2906 -0.2141  0.4670
14389TIP3    H264659   5.107   1.880   3.912 -0.7360 -0.0295 -0.5924
14390TIP3   OH264660   3.249   2.587   1.428  0.0528  0.4940  0.6012
14390TIP3    H164661   3.321   2.644   1.456 -0.7305  1.3728  0.8776
14390TIP3    H264662   3.270   2.564   1.337  0.1699  1.5944  0.3370
14391TIP3   OH264663   4.029   4.994  13.364  0.2846  0.1544  1.1689
14391TIP3    H164664   4.080   5.064  13.324 -0.9277  0.1499 -0.4802
14391TIP3    H264665   3.939   5.028  13.368 -0.5757 -1.6205 -0.7390
14392TIP3   OH264666   4.296   3.493   2.569  0.2990  0.0282 -0.4390
14392TIP3    H164667   4.289   3.446   2.651  0.8643  0.7126  0.0144
14392TIP3    H264668   4.240   3.445   2.508  1.2129 -1.4791 -0.1253
14393TIP3   OH264669   1.318   3.546   5.599  0.0011  0.5812 -0.2689
14393TIP3    H164670   1.236   3.511   5.635  1.0444  0.2270  1.9230
14393TIP3    H264671   1.334   3.625   5.650  2.9818 -1.4053  2.2584
14394TIP3   OH264672   0.443   6.594  16.902  0.0593  0.3629  0.1591
14394TIP3    H164673   0.441   6.669  16.843 -0.0350  0.0321 -0.2569
14394TIP3    H264674   0.492   6.527  16.855 -0.2689 -0.0064  0.3327
14395TIP3   OH264675   6.346   4.376   4.721  0.2694  0.2272 -0.1739
14395TIP3    H164676   6.385   4.366   4.808  1.2084  1.0741 -0.4784
14395TIP3    H264677   6.271   4.433   4.734  1.1872  1.4508 -0.1090
14396TIP3   OH264678   6.353   2.877  11.347 -0.1792  0.4349  0.1843
14396TIP3    H164679   6.387   2.967  11.342  1.9433 -0.2509  1.1034
14396TIP3    H264680   6.360   2.845  11.257 -0.7372  1.1154 -0.1082
14397TIP3   OH264681   1.541   5.806   4.007  0.1698  0.5665 -0.2690
14397TIP3    H164682   1.485   5.871   4.050 -1.0183  0.7144 -1.9468
14397TIP3    H264683   1.629   5.843   4.014 -0.3748  1.9739 -0.4697
14398TIP3   OH264684   5.051   5.645   1.970  0.2616 -0.3738  0.1664
14398TIP3    H164685   5.147   5.640   1.971  0.3647  1.2505  1.2294
14398TIP3    H264686   5.025   5.579   1.906  2.2539  1.4829 -2.8273
14399TIP3   OH264687   1.214   2.458  12.534  0.5692 -0.5414 -0.0573
14399TIP3    H164688   1.259   2.455  12.618 -1.5884  3.1780  1.4644
14399TIP3    H264689   1.121   2.449  12.555  0.1027 -4.0246 -2.6652
14400TIP3   OH264690   0.685   1.024   4.433  0.3938  0.5867  0.2717
14400TIP3    H164691   0.654   0.992   4.518 -3.0126 -1.7116 -1.5689
14400TIP3    H264692   0.765   0.973   4.416 -0.2795 -0.8032  1.0730
14401TIP3   OH264693   1.759   1.739  16.247  0.1142 -0.2030 -0.5741
14401TIP3    H164694   1.706   1.748  16.326  1.3473 -0.8422  0.3605
14401TIP3    H264695   1.706   1.684  16.188 -0.2465 -0.8765  0.3546
14402TIP3   OH264696   1.341   5.492  12.462  0.1021 -0.0553  0.0619
14402TIP3    H164697   1.331   5.569  12.518 -0.5575 -0.5416  0.6259
14402TIP3    H264698   1.268   5.499  12.400  0.9108  0.5559 -0.8477
14403TIP3   OH264699   2.306   6.091   6.290 -0.8303  0.0207  0.1918
14403TIP3    H164700   2.291   6.003   6.256  1.0990 -0.1669 -0.2808
14403TIP3    H264701   2.400   6.106   6.277 -1.4422  2.9966 -1.8769
14404TIP3   OH264702   0.004   4.835  12.023  0.0531 -0.3719  0.3459
14404TIP3    H164703  -0.017   4.928  12.024 -3.0708 -0.9492  0.4933
14404TIP3    H264704   0.041   4.820  11.936 -2.1317  0.5769 -0.8301
14405TIP3   OH264705   2.902   2.958   6.293  0.4998 -0.4601  0.1064
14405TIP3    H164706   2.911   2.894   6.364 -0.4536 -0.7768 -0.0355
14405TIP3    H264707   2.864   3.035   6.336 -1.4202 -1.1316 -0.2487
14406TIP3   OH264708   4.310   1.817  13.186  0.3213 -0.0419  0.4080
14406TIP3    H164709   4.335   1.811  13.094 -1.2517 -1.4939  0.0360
14406TIP3    H264710   4.370   1.883  13.222 -0.2009  1.9275 -2.0269
14407TIP3   OH264711   4.179   4.781  14.928 -0.2551  0.3718 -0.6854
14407TIP3    H164712   4.137   4.824  15.003  0.4060  0.4428 -0.3514
14407TIP3    H264713   4.250   4.730  14.966  0.8640  1.3699 -1.3596
14408TIP3   OH264714   1.515   5.519  14.929  0.4313 -0.0472 -0.0063
14408TIP3    H164715   1.567   5.503  15.007  1.4161  1.3889 -0.3338
14408TIP3    H264716   1.516   5.614  14.917 -0.5466 -0.1467 -1.1998
14409TIP3   OH264717   5.251   3.935  15.637  0.0484  0.0860 -0.3374
14409TIP3    H164718   5.255   3.879  15.714 -3.7244 -0.1207 -0.0621
14409TIP3    H264719   5.190   3.891  15.578  1.5127  1.0785 -2.7557
14410TIP3   OH264720   3.322   0.068  16.353  0.1996  0.4004 -0.1574
14410TIP3    H164721   3.311   0.011  16.277  0.6084 -1.2247  0.9447
14410TIP3    H264722   3.299   0.013  16.428  0.0039  1.8930  0.9226
14411TIP3   OH264723   0.393   5.857   5.748 -0.0367  0.4495  0.7814
14411TIP3    H164724   0.301   5.838   5.767 -0.3365  0.2418 -0.7001
14411TIP3    H264725   0.391   5.939   5.699  0.4423 -0.0627 -0.1394
14412TIP3   OH264726   5.621   6.275  15.272  0.2481 -0.3611  0.6838
14412TIP3    H164727   5.666   6.340  15.218 -0.3447 -0.6945 -0.2192
14412TIP3    H264728   5.561   6.232  15.213 -1.3542  0.1340  1.8901
14413TIP3   OH264729   0.007   3.202   1.932 -0.0254 -0.3947 -0.0568
14413TIP3    H164730   0.099   3.203   1.905  0.2071 -1.3856  0.6192
14413TIP3    H264731  -0.042   3.223   1.853  0.6961 -1.8159 -0.9262
14414TIP3   OH264732   4.225   3.638   2.311  0.0097 -0.1443  0.2987
14414TIP3    H164733   4.210   3.633   2.406 -1.4043 -1.4166  0.0302
14414TIP3    H264734   4.190   3.556   2.277  1.1237 -0.0007 -1.2658
14415TIP3   OH264735   6.729   0.006   2.907 -0.4360  0.3634 -0.0868
14415TIP3    H164736   6.661   0.062   2.944 -1.0257 -0.3377 -0.0966
14415TIP3    H264737   6.681  -0.067   2.868  0.3680 -0.5395  0.5822
14416TIP3   OH264738   6.329   0.978  16.649 -0.0631  0.0651  0.2022
14416TIP3    H164739   6.401   0.959  16.710 -0.1987 -0.6737  0.1361
14416TIP3    H264740   6.265   1.025  16.702  1.2190  2.4018 -0.1433
14417TIP3   OH264741   1.164   5.427   5.708  0.1370  0.0968 -0.0574
14417TIP3    H164742   1.212   5.394   5.632  0.5257  1.1609 -0.2916
14417TIP3    H264743   1.209   5.388   5.783 -0.0040 -0.6454 -0.3527
14418TIP3   OH264744   1.101   3.206  14.206 -0.0096  0.4541  0.2270
14418TIP3    H164745   1.051   3.201  14.288 -0.3747  0.4799  0.0112
14418TIP3    H264746   1.035   3.191  14.138  0.0935  1.4838 -0.1147
14419TIP3   OH264747   6.552   2.094   5.397 -0.7542 -0.5625  0.3181
14419TIP3    H164748   6.583   2.078   5.486  0.1219 -1.9535 -0.2045
14419TIP3    H264749   6.626   2.137   5.354 -0.5529 -1.3559 -0.1574
14420TIP3   OH264750   2.570   6.166   0.961  0.1500 -0.2662 -0.7547
14420TIP3    H164751   2.609   6.252   0.974 -1.7402  0.5642 -0.1315
14420TIP3    H264752   2.515   6.153   1.039 -3.6144  0.2919 -3.0380
14421TIP3   OH264753   6.772   5.146  12.303  0.5205  0.3426 -0.0756
14421TIP3    H164754   6.680   5.143  12.276  0.6198  0.8763 -0.4893
14421TIP3    H264755   6.783   5.232  12.344  0.7218  0.0954  0.3959
14422TIP3   OH264756   1.803   4.558   4.878 -0.5124 -0.0055  0.3904
14422TIP3    H164757   1.793   4.463   4.882 -1.2630 -0.0600 -1.6172
14422TIP3    H264758   1.717   4.592   4.901 -0.4434  0.1648  0.3974
14423TIP3   OH264759   6.621   4.381  15.967  0.1707  0.3005 -0.2470
14423TIP3    H164760   6.590   4.350  16.052 -0.2421  1.3702  0.0074
14423TIP3    H264761   6.680   4.312  15.937  0.3035 -0.1037  0.8888
14424TIP3   OH264762   5.109   0.962   4.048 -1.0094  0.0124 -0.2408
14424TIP3    H164763   5.047   0.977   3.977 -2.1120  0.6537  0.8041
14424TIP3    H264764   5.055   0.932   4.121 -0.1811  1.0535  0.8506
14425TIP3   OH264765   2.076   3.097  14.737 -0.2808 -0.0581  0.0199
14425TIP3    H164766   1.983   3.111  14.717 -0.6084  0.3122  1.7185
14425TIP3    H264767   2.118   3.180  14.714 -0.4248 -0.0947 -0.3884
14426TIP3   OH264768   3.901   4.032  13.635  0.2589 -0.5480  0.4259
14426TIP3    H164769   3.830   4.014  13.574 -0.7531  0.6335  1.2130
14426TIP3    H264770   3.967   3.965  13.616 -0.0501 -0.2549 -1.8761
14427TIP3   OH264771   3.909   4.070  11.346  0.1945  0.1927 -0.0576
14427TIP3    H164772   3.910   4.068  11.250 -0.4465 -0.5656 -0.0615
14427TIP3    H264773   3.875   4.157  11.368  0.7927  0.5433 -0.5083
14428TIP3   OH264774   1.211   1.283  13.633  0.3062 -0.3163  0.8439
14428TIP3    H164775   1.119   1.270  13.655  0.4422  0.4298  1.9005
14428TIP3    H264776   1.209   1.321  13.545 -0.5783  2.2143  1.8552
14429TIP3   OH264777   2.524   4.815  16.568 -0.1809  0.0103  0.3147
14429TIP3    H164778   2.561   4.727  16.567  1.7013  0.7379  1.0119
14429TIP3    H264779   2.583   4.866  16.512 -0.3978  1.1147  1.0641
14430TIP3   OH264780   4.222   5.030  11.897 -0.1155 -0.5849 -0.1001
14430TIP3    H164781   4.239   5.044  11.990  0.8631 -0.9674 -0.2071
14430TIP3    H264782   4.236   5.115  11.857  0.3794 -0.6250 -0.0168
14431TIP3   OH264783   5.434   0.429   4.923  0.0858  0.1366  0.4724
14431TIP3    H164784   5.340   0.429   4.907  0.3840 -0.1927 -1.5936
14431TIP3    H264785   5.470   0.485   4.854  1.5611 -1.3171  0.0076
14432TIP3   OH264786   2.573   3.138  13.139  0.0713 -0.5210 -0.3257
14432TIP3    H164787   2.596   3.045  13.140 -0.4940 -0.6674 -0.4838
14432TIP3    H264788   2.481   3.140  13.165  0.3416  0.0776  0.6188
14433TIP3   OH264789   5.098   1.003  15.739  0.3931 -0.4862 -0.2364
14433TIP3    H164790   5.054   1.086  15.753 -0.9929 -0.9413 -1.6687
14433TIP3    H264791   5.107   0.965  15.827  0.4955  0.8870  0.3598
14434TIP3   OH264792   5.184   3.251   3.483 -0.5070 -0.1371 -0.2532
14434TIP3    H164793   5.178   3.252   3.578 -0.6839 -0.7916 -0.2521
14434TIP3    H264794   5.221   3.165   3.462  2.4059  1.0798 -0.6245
14435TIP3   OH264795   1.596   1.576   1.683 -0.7146 -0.6366 -0.3270
14435TIP3    H164796   1.577   1.502   1.741  2.9812 -0.8271  0.8976
14435TIP3    H264797   1.628   1.535   1.603 -0.9523 -0.3311 -0.5817
14436TIP3   OH264798   6.231   6.280  12.913  0.2530 -0.0765 -1.0023
14436TIP3    H164799   6.163   6.243  12.857 -0.6826 -0.9339  0.6035
14436TIP3    H264800   6.191   6.360  12.949  1.7923  1.9721 -3.4525
14437TIP3   OH264801   1.739   6.261  10.658  0.1389  0.6350 -0.6472
14437TIP3    H164802   1.742   6.197  10.587 -0.5203  0.3574 -0.4336
14437TIP3    H264803   1.692   6.216  10.728  0.7193  0.9274 -0.0564
14438TIP3   OH264804   1.539   5.615  14.636 -0.3053 -0.0103  0.0776
14438TIP3    H164805   1.451   5.589  14.664 -0.7871 -2.3762 -3.0133
14438TIP3    H264806   1.596   5.592  14.709 -1.9558 -0.7226  1.2020
14439TIP3   OH264807   5.679   0.199  10.975 -0.2498 -0.3910 -0.0047
14439TIP3    H164808   5.587   0.173  10.967  0.0219 -0.8554 -2.2394
14439TIP3    H264809   5.694   0.255  10.898  0.8504  1.2873  1.3560
14440TIP3   OH264810   0.600   1.294   4.416 -0.0898 -0.1863  0.3571
14440TIP3    H164811   0.623   1.364   4.477 -0.4959 -1.3690  1.9275
14440TIP3    H264812   0.622   1.213   4.463 -0.5568 -1.1410 -1.0173
14441TIP3   OH264813   1.710   4.411  15.479  0.2457 -0.1938  0.0967
14441TIP3    H164814   1.705   4.467  15.556 -0.8774 -0.6548  0.3753
14441TIP3    H264815   1.749   4.466  15.412 -0.2449  0.7203  0.5481
14442TIP3   OH264816   5.468   1.091   3.663  0.1075  0.4953 -0.3637
14442TIP3    H164817   5.510   1.016   3.706  0.3254  0.2888 -0.9249
14442TIP3    H264818   5.534   1.160   3.665  0.1529  0.4539 -0.4603
14443TIP3   OH264819   0.526   0.756  13.057  0.9262  0.1578 -0.2093
14443TIP3    H164820   0.607   0.791  13.095  1.5731 -0.2291 -1.2225
14443TIP3    H264821   0.508   0.813  12.982 -0.9378  1.5976  1.1907
14444TIP3   OH264822   4.425   5.946   3.120 -0.5412 -0.2787  0.1933
14444TIP3    H164823   4.435   5.858   3.156 -1.6628 -0.8842 -0.8919
14444TIP3    H264824   4.431   6.004   3.196  0.1394 -1.2841  0.9341
14445TIP3   OH264825   4.261   6.236   1.336 -0.6316 -0.5036 -0.0808
14445TIP3    H164826   4.294   6.321   1.366  1.0832 -1.6122  1.3706
14445TIP3    H264827   4.175   6.228   1.378 -0.5328  0.2371  0.2781
14446TIP3   OH264828   6.770   0.078  11.808  0.4491  0.1556 -0.0824
14446TIP3    H164829   6.725   0.013  11.754  0.9048 -0.1784 -0.0623
14446TIP3    H264830   6.843   0.107  11.755 -0.5917  1.7670 -0.7082
14447TIP3   OH264831   6.562   4.869  13.095 -0.4699  0.0186  0.0197
14447TIP3    H164832   6.521   4.864  13.008  1.4216 -1.1437 -0.8745
14447TIP3    H264833   6.583   4.961  13.107  0.4142  0.0191 -1.3535
14448TIP3   OH264834   4.656   6.619   3.595 -0.1380 -0.5304  0.3480
14448TIP3    H164835   4.621   6.655   3.677  1.5961  0.2356  0.8005
14448TIP3    H264836   4.613   6.671   3.526  2.4298  2.7988  0.9823
14449TIP3   OH264837   6.575   0.905   1.710 -0.1232  0.8175 -0.0397
14449TIP3    H164838   6.519   0.905   1.787 -0.0127 -0.1715  0.0554
14449TIP3    H264839   6.655   0.860   1.738 -0.3290 -0.1100 -0.9007
14450TIP3   OH264840   1.196   4.652   3.578 -0.1752 -0.1903  0.2256
14450TIP3    H164841   1.288   4.631   3.591 -0.0914 -0.1556 -0.2738
14450TIP3    H264842   1.157   4.646   3.665  0.0203 -1.5589  0.2339
14451TIP3   OH264843   5.304   5.946  16.146 -0.3816  0.1773  0.7731
14451TIP3    H164844   5.334   6.000  16.219  1.8219 -1.3233  1.0518
14451TIP3    H264845   5.212   5.927  16.167 -0.3304  1.2913  2.1752
14452TIP3   OH264846   4.441   2.694   1.637  0.4573 -1.0233 -0.5824
14452TIP3    H164847   4.521   2.741   1.661  1.0231 -1.5941 -1.3009
14452TIP3    H264848   4.470   2.605   1.617 -0.2938 -1.1332 -1.2471
14453TIP3   OH264849   1.568   3.508   2.956  0.3191  0.7864  0.1973
14453TIP3    H164850   1.607   3.591   2.984 -1.0535  1.0482  1.4651
14453TIP3    H264851   1.546   3.463   3.037  0.4497 -0.5558 -0.4781
14454TIP3   OH264852   1.379   1.584   0.457  0.0472 -0.4868  0.1453
14454TIP3    H164853   1.455   1.636   0.484 -2.2635  1.5619  3.5833
14454TIP3    H264854   1.325   1.645   0.407 -1.6409 -0.1037  2.2709
14455TIP3   OH264855   4.346   0.942  12.976 -0.0681 -0.0891 -0.5760
14455TIP3    H164856   4.288   0.979  13.042 -1.1502  0.9086 -2.0273
14455TIP3    H264857   4.378   1.017  12.927  2.5901 -0.5955  0.2126
14456TIP3   OH264858   5.840   5.247  14.733 -0.1527  0.0853 -0.0966
14456TIP3    H164859   5.873   5.275  14.648 -0.6917  0.6193 -0.1339
14456TIP3    H264860   5.775   5.313  14.757  0.6146  0.4123  1.1357
14457TIP3   OH264861   4.017   0.056  11.313 -0.3954  0.0203  0.3122
14457TIP3    H164862   4.069   0.033  11.390  0.1834 -2.0991 -0.6417
14457TIP3    H264863   4.079   0.100  11.255 -0.0967 -0.9018 -0.0825
14458TIP3   OH264864   5.533   0.966  13.865 -0.5095 -0.6948 -0.0470
14458TIP3    H164865   5.498   1.055  13.856 -0.2293 -0.7155 -1.8662
14458TIP3    H264866   5.481   0.914  13.804  0.4219 -1.4187 -0.2411
14459TIP3   OH264867   5.516   3.915  12.979 -0.0170 -0.3034 -0.3843
14459TIP3    H164868   5.612   3.917  12.979 -0.0107  1.6236  0.3881
14459TIP3    H264869   5.492   3.948  12.893 -0.0169 -1.6525 -0.9227
14460TIP3   OH264870   2.579   1.058   4.912  0.1274  0.2336  0.1566
14460TIP3    H164871   2.532   1.138   4.888 -1.8200 -0.8166  0.2724
14460TIP3    H264872   2.630   1.036   4.834  0.0957  1.1600 -0.1389
14461TIP3   OH264873   3.482   5.134   3.972 -0.6161  0.2656  0.0521
14461TIP3    H164874   3.489   5.072   3.900 -1.1091 -1.9361  1.7816
14461TIP3    H264875   3.560   5.119   4.025 -2.1828 -1.1494  2.1095
14462TIP3   OH264876   0.568   2.516  15.908  0.0693 -0.0882 -0.0386
14462TIP3    H164877   0.631   2.476  15.849 -0.3465  0.7371 -1.0740
14462TIP3    H264878   0.491   2.531  15.854  0.6473  3.3180 -0.1076
14463TIP3   OH264879   4.081   6.578  13.847  0.1105 -0.1147 -0.1437
14463TIP3    H164880   4.060   6.485  13.859 -0.4489 -0.1697 -1.3646
14463TIP3    H264881   4.171   6.578  13.813  0.9307 -0.0618  1.8784
14464TIP3   OH264882   3.384   0.846  11.513  0.8680  0.2516  0.3659
14464TIP3    H164883   3.314   0.860  11.577 -0.7149 -1.1504 -0.9696
14464TIP3    H264884   3.401   0.752  11.517 -0.6095 -0.2420 -2.4932
14465TIP3   OH264885   4.777   5.345   3.091  0.7035 -0.6940  0.2477
14465TIP3    H164886   4.768   5.338   3.186  0.9444 -0.4595  0.2892
14465TIP3    H264887   4.865   5.313   3.072  0.7696 -0.4535  0.1393
14466TIP3   OH264888   4.508   6.415   2.362 -0.2664 -0.0928  0.0439
14466TIP3    H164889   4.423   6.430   2.321 -0.1859  0.2626  0.0068
14466TIP3    H264890   4.502   6.326   2.397 -1.8314  1.0289  2.9411
14467TIP3   OH264891   5.351   4.308   5.936 -0.0225 -0.1839  0.2142
14467TIP3    H164892   5.384   4.253   5.865 -0.1494  0.5895 -0.4708
14467TIP3    H264893   5.412   4.381   5.940  0.6816 -0.8229  1.7522
14468TIP3   OH264894   2.412   5.881  16.778 -0.5483 -0.1561  0.5698
14468TIP3    H164895   2.453   5.961  16.811 -3.4953  1.1984  1.2155
14468TIP3    H264896   2.486   5.824  16.756  1.6608  2.5476  0.4668
14469TIP3   OH264897   0.308   6.778   1.730 -0.2822 -0.4192  0.5280
14469TIP3    H164898   0.374   6.846   1.737  1.2195 -1.6435 -0.9230
14469TIP3    H264899   0.252   6.806   1.658  1.6099 -1.6398 -1.5348
14470TIP3   OH264900   2.169   0.635   1.845  0.1980  0.7362 -0.3087
14470TIP3    H164901   2.116   0.649   1.767 -0.9725  0.1099  0.3421
14470TIP3    H264902   2.129   0.690   1.912  0.8378  0.8320  0.0061
14471TIP3   OH264903   0.401   2.793   0.521  0.9236 -0.4923 -0.6776
14471TIP3    H164904   0.464   2.864   0.525  0.4095 -0.0420 -0.3755
14471TIP3    H264905   0.386   2.778   0.428  0.1056  0.6420 -0.7408
14472TIP3   OH264906   0.436   1.101  13.925 -0.1590  0.0585  0.3607
14472TIP3    H164907   0.444   1.056  14.009 -2.6002 -0.9857  0.1119
14472TIP3    H264908   0.366   1.164  13.938 -1.7246 -1.2307 -1.2817
14473TIP3   OH264909   1.017   4.187   6.287  0.6055 -0.1344 -0.6684
14473TIP3    H164910   0.992   4.252   6.352 -1.5925 -0.3385 -1.2331
14473TIP3    H264911   1.102   4.155   6.316  0.9439  1.7472  0.5504
14474TIP3   OH264912   6.314   5.164  11.759  0.2579  0.3836 -0.6612
14474TIP3    H164913   6.342   5.098  11.696  1.4418  1.5548 -1.4227
14474TIP3    H264914   6.316   5.119  11.844 -0.5098 -0.9672 -1.3138
14475TIP3   OH264915   3.421   3.566   0.825  0.0620  0.0062 -0.4563
14475TIP3    H164916   3.463   3.482   0.807 -0.0542 -0.0946 -0.2585
14475TIP3    H264917   3.438   3.582   0.918  0.2441  0.2907 -0.5352
14476TIP3   OH264918   4.925   3.846  13.454  0.2594 -0.4433  0.1630
14476TIP3    H164919   4.876   3.768  13.479  3.0299 -1.3719  3.5217
14476TIP3    H264920   5.013   3.815  13.434  0.5189  1.4932 -2.1520
14477TIP3   OH264921   6.087   4.286  12.364 -0.0454 -0.0323  0.4281
14477TIP3    H164922   6.157   4.224  12.387  1.0216  0.7926 -0.5000
14477TIP3    H264923   6.087   4.349  12.436  1.0662  0.6870 -0.1673
14478TIP3   OH264924   1.424   5.434   5.062  0.5173 -0.3198  0.2029
14478TIP3    H164925   1.343   5.479   5.038  0.4554 -0.6185 -0.1503
14478TIP3    H264926   1.483   5.449   4.988  0.0584 -1.9127 -0.5277
14479TIP3   OH264927   0.819   2.913   2.981  0.4902  0.2590 -0.5825
14479TIP3    H164928   0.763   2.846   3.022  1.6672 -0.3275  0.1278
14479TIP3    H264929   0.813   2.894   2.887 -1.1022  0.7062 -0.5986
14480TIP3   OH264930   4.698   6.012   5.107  0.4468  0.4091  0.2919
14480TIP3    H164931   4.606   6.037   5.104  0.3630  0.1554  0.7073
14480TIP3    H264932   4.706   5.942   5.042 -0.1379 -1.1079  1.7793
14481TIP3   OH264933   6.617   4.439  10.953  0.3163  0.0051 -0.3776
14481TIP3    H164934   6.572   4.373  10.901  1.1469 -1.1077  0.2762
14481TIP3    H264935   6.698   4.457  10.906  0.6636 -0.3619  0.0715
14482TIP3   OH264936   4.863   1.337  11.991  0.3985 -0.4237  0.3787
14482TIP3    H164937   4.873   1.300  11.903 -2.3861 -0.2697 -0.1034
14482TIP3    H264938   4.854   1.260  12.048 -0.4255 -0.5245  0.1206
14483TIP3   OH264939   0.728   5.792   1.037 -0.3731  0.4191  0.5702
14483TIP3    H164940   0.709   5.765   0.947 -0.5057  1.3400  0.3111
14483TIP3    H264941   0.729   5.710   1.087 -1.2307 -0.0086 -0.0932
14484TIP3   OH264942   1.517   5.201  11.254  0.1550  0.0321 -0.3073
14484TIP3    H164943   1.606   5.236  11.257 -0.4327  1.5351  0.9925
14484TIP3    H264944   1.461   5.279  11.255 -1.1886 -0.8751 -1.3915
14485TIP3   OH264945   0.575   0.593   0.852 -0.3267 -0.1324 -0.1712
14485TIP3    H164946   0.542   0.555   0.933 -0.6377 -2.0681 -1.1614
14485TIP3    H264947   0.538   0.682   0.851 -1.8431 -0.7086  0.8927
14486TIP3   OH264948   1.074   0.664  10.935  0.0184 -0.4955  0.5334
14486TIP3    H164949   1.121   0.582  10.944  0.6621 -0.1753  0.1131
14486TIP3    H264950   1.141   0.732  10.941 -0.0339 -0.0853 -2.3684
14487TIP3   OH264951   4.803   4.590  15.226 -0.5106  0.2643 -0.4530
14487TIP3    H164952   4.765   4.528  15.288 -1.7942 -0.6167 -2.0631
14487TIP3    H264953   4.865   4.641  15.279 -0.1548 -1.6870  1.1411
14488TIP3   OH264954   0.077   1.244   0.782 -0.2397  0.6616 -0.3983
14488TIP3    H164955  -0.005   1.207   0.816 -0.5245  0.0016 -1.7462
14488TIP3    H264956   0.056   1.336   0.766 -0.4768  0.6834  0.0234
14489TIP3   OH264957   5.437   0.544  11.457  0.2000  0.2388  0.1647
14489TIP3    H164958   5.504   0.501  11.511 -0.8433 -0.2387  1.1332
14489TIP3    H264959   5.482   0.619  11.419  1.0533  0.4997  1.5810
14490TIP3   OH264960   3.486   3.515   1.901 -0.1016  0.3210  0.5455
14490TIP3    H164961   3.420   3.568   1.855  1.0222  0.6365 -0.7822
14490TIP3    H264962   3.505   3.564   1.980  1.1285  2.1410 -0.7946
14491TIP3   OH264963   0.962   4.797  14.568  0.0066 -0.4623 -0.3544
14491TIP3    H164964   0.886   4.811  14.512  1.0869  2.3589 -1.2940
14491TIP3    H264965   1.021   4.744  14.516 -0.7621 -1.6212 -0.0915
14492TIP3   OH264966   4.427   6.098  13.430 -0.8081  0.3710 -0.5772
14492TIP3    H164967   4.457   6.148  13.354  0.9818  0.8947  0.4064
14492TIP3    H264968   4.491   6.027  13.438 -1.1926  0.1049  0.2177
14493TIP3   OH264969   1.284   3.296  12.853 -0.0600  0.1069 -0.0009
14493TIP3    H164970   1.344   3.225  12.829 -1.7746 -1.2005 -0.5868
14493TIP3    H264971   1.207   3.281  12.798 -1.7532  0.5367  2.1472
14494TIP3   OH264972   5.842   1.205   4.917  0.0505 -0.3824  0.2576
14494TIP3    H164973   5.848   1.258   4.837 -2.4521 -1.6664 -0.8756
14494TIP3    H264974   5.928   1.216   4.959  1.1837  0.9323 -2.1954
14495TIP3   OH264975   0.844   3.318   3.595  0.4609 -0.3545 -0.1238
14495TIP3    H164976   0.822   3.237   3.549 -0.2417  0.2250 -0.8238
14495TIP3    H264977   0.789   3.317   3.673 -1.4116  0.6157 -1.3722
14496TIP3   OH264978   4.627   6.016  12.523  0.7159  0.1699 -0.2608
14496TIP3    H164979   4.613   6.109  12.536 -1.4650 -0.2374  0.9032
14496TIP3    H264980   4.637   5.980  12.611  2.5767 -0.6014 -0.7394
14497TIP3   OH264981   4.400   2.046   2.557 -0.2551 -0.5579 -0.0078
14497TIP3    H164982   4.456   2.095   2.496 -0.4461  1.4688  1.3595
14497TIP3    H264983   4.461   2.005   2.618 -0.1643  0.2504  0.4612
14498TIP3   OH264984   5.402   0.867  11.079  0.4089  0.4136  0.4617
14498TIP3    H164985   5.366   0.850  11.165  2.2693 -1.6860  0.9400
14498TIP3    H264986   5.496   0.851  11.089  0.6280 -0.3539 -2.0094
14499TIP3   OH264987   1.396   0.126   1.098 -0.2635 -0.3322 -0.0571
14499TIP3    H164988   1.355   0.110   1.182  0.3690  0.1559  0.3533
14499TIP3    H264989   1.407   0.039   1.059 -0.9848 -0.5230  0.1467
14500TIP3   OH264990   1.963   3.868  12.610  0.2695  0.2808 -0.1572
14500TIP3    H164991   1.930   3.937  12.668  0.6138  1.1342 -0.9435
14500TIP3    H264992   1.887   3.844  12.556 -0.0477 -0.5048  0.6079
14501TIP3   OH264993   4.214   3.854  13.836 -0.1076  0.5984 -0.4668
14501TIP3    H164994   4.187   3.837  13.745  1.2187 -0.5336 -0.6825
14501TIP3    H264995   4.131   3.857  13.884 -0.7710 -0.2452 -1.4880
14502TIP3   OH264996   5.077   1.471  13.590  0.7941  0.4440 -0.9659
14502TIP3    H164997   4.986   1.502  13.594  0.0597 -1.6560  0.2841
14502TIP3    H264998   5.070   1.376  13.593  3.0551  0.2249 -1.0258
14503TIP3   OH264999   3.374   2.469  12.000  0.0743  0.4095  0.1813
14503TIP3    H165000   3.349   2.561  12.000  1.2881  0.7509  0.0354
14503TIP3    H265001   3.297   2.424  12.036 -1.8149  1.0702 -2.6467
14504TIP3   OH265002   1.639   0.755  15.963 -0.4531  0.4208  0.2196
14504TIP3    H165003   1.644   0.662  15.985 -1.7630 -0.1770 -1.6851
14504TIP3    H265004   1.564   0.788  16.012 -0.0699  0.4498  0.7908
14505TIP3   OH265005   6.207   3.576  14.377  0.0817  0.1848 -0.0720
14505TIP3    H165006   6.281   3.535  14.422  0.4095  0.3498 -0.4529
14505TIP3    H265007   6.151   3.608  14.447  1.9404  2.9554  0.3171
14506TIP3   OH265008   6.344   5.104  16.301 -0.2254 -0.0883  0.3413
14506TIP3    H165009   6.362   5.074  16.212 -0.9334 -0.8563  0.4427
14506TIP3    H265010   6.346   5.024  16.354  0.0055  0.3361  0.9886
14507TIP3   OH265011   5.590   1.846   1.313 -0.3643  0.0709 -0.4891
14507TIP3    H165012   5.547   1.762   1.295  0.5071 -0.2615 -1.0573
14507TIP3    H265013   5.679   1.822   1.339  0.2986  0.8676 -1.9150
14508TIP3   OH265014   6.534   4.353   1.669  0.0336 -0.8284  0.0515
14508TIP3    H165015   6.606   4.321   1.723  0.3144 -1.5877 -0.7555
14508TIP3    H265016   6.457   4.309   1.704  0.1869 -1.1779 -0.0503
14509TIP3   OH265017   4.416   3.653  16.295  1.0433  0.5321 -0.2507
14509TIP3    H165018   4.395   3.696  16.212  0.7131 -0.0879 -0.4966
14509TIP3    H265019   4.468   3.577  16.270  2.8609  1.5299  0.2808
14510TIP3   OH265020   0.924   4.160   5.355 -0.5159  0.2915  0.0965
14510TIP3    H165021   0.907   4.116   5.271 -1.7052 -0.6177  0.7828
14510TIP3    H265022   0.962   4.244   5.331 -0.1888 -0.2334 -1.3347
14511TIP3   OH265023   4.561   1.881  11.303 -0.4694 -0.5788 -0.0208
14511TIP3    H165024   4.651   1.864  11.274 -0.3026 -0.2018  0.2623
14511TIP3    H265025   4.558   1.976  11.316 -0.8728 -0.6071  0.0982
14512TIP3   OH265026   1.171   3.417  15.914 -0.0045  0.3328 -0.2610
14512TIP3    H165027   1.120   3.374  15.845 -0.5865  1.8081 -0.7729
14512TIP3    H265028   1.212   3.344  15.961 -1.2799 -0.8161 -0.8449
14513TIP3   OH265029   1.314   6.082   3.973  0.2577 -0.2385 -0.1650
14513TIP3    H165030   1.397   6.062   4.016  0.5727 -0.9025 -1.0328
14513TIP3    H265031   1.318   6.177   3.957 -0.0236  0.0802  1.5360
14514TIP3   OH265032   5.548   5.373  13.689  0.7454 -0.5911  0.2691
14514TIP3    H165033   5.643   5.361  13.692  0.9224 -0.6581 -2.7210
14514TIP3    H265034   5.537   5.464  13.659 -0.2286  0.0728  2.4706
14515TIP3   OH265035   3.356   3.897  14.584 -0.6194 -0.1985 -0.6256
14515TIP3    H165036   3.265   3.919  14.562 -1.4136 -0.8318  1.7460
14515TIP3    H265037   3.352   3.805  14.612  0.9641 -0.5422 -1.3988
14516TIP3   OH265038   3.710   1.012  12.529 -0.1671  0.4463 -0.1861
14516TIP3    H165039   3.680   0.991  12.441 -0.3585 -1.3604  0.2820
14516TIP3    H265040   3.645   0.973  12.587  0.5934  0.5546  0.7655
14517TIP3   OH265041   3.582   6.724  12.968  0.2977 -0.4928  0.2304
14517TIP3    H165042   3.674   6.708  12.991 -0.0180 -2.2968  0.3706
14517TIP3    H265043   3.571   6.684  12.882 -0.7151 -1.7484  0.8975
14518TIP3   OH265044   5.937   3.310  12.168 -0.5097 -0.3161 -0.0178
14518TIP3    H165045   5.870   3.377  12.173 -0.6089 -0.3557 -0.6651
14518TIP3    H265046   6.002   3.345  12.107  0.3578 -0.0321  1.0328
14519TIP3   OH265047   6.753   2.986  14.665 -0.4870 -0.0072 -0.2199
14519TIP3    H165048   6.826   3.034  14.625 -0.3945 -0.8091 -1.0484
14519TIP3    H265049   6.789   2.951  14.746 -0.4256  0.9320  0.1723
14520TIP3   OH265050   3.247   0.609  14.237 -0.2657 -0.4554  0.2053
14520TIP3    H165051   3.174   0.619  14.298 -1.9015  1.6101 -1.8963
14520TIP3    H265052   3.295   0.691  14.245 -0.0534 -0.4808 -0.6856
14521TIP3   OH265053   3.220   0.998  14.067  0.4593 -0.4903 -0.3091
14521TIP3    H165054   3.174   0.959  14.141  1.2219 -0.9775 -0.0724
14521TIP3    H265055   3.195   0.945  13.992 -1.0645  0.5816 -0.6040
14522TIP3   OH265056   3.444   2.281   3.965 -0.5691  0.2396 -0.0378
14522TIP3    H165057   3.448   2.203   4.021 -1.8948 -1.3703 -2.0157
14522TIP3    H265058   3.531   2.320   3.972  0.3226 -1.7383  0.6196
14523TIP3   OH265059   0.026   0.757   6.112  0.4533 -0.4942 -0.2397
14523TIP3    H165060   0.061   0.743   6.201  0.5182 -0.4270 -0.2544
14523TIP3    H265061   0.101   0.789   6.062  0.1014  0.7745  0.0119
14524TIP3   OH265062   4.503   3.474   1.585 -0.8019  0.5308 -0.4497
14524TIP3    H165063   4.591   3.470   1.622 -1.0092 -1.1316 -0.0562
14524TIP3    H265064   4.489   3.388   1.545 -2.0913  0.9152 -0.8948
14525TIP3   OH265065   3.781   4.066   2.472  0.0993 -0.1068 -0.3611
14525TIP3    H165066   3.751   4.106   2.390 -0.8528 -0.8387 -0.3822
14525TIP3    H265067   3.804   4.141   2.528 -2.5670  0.5648 -0.0516
14526TIP3   OH265068   2.375   3.473  15.789  0.1766  0.1464 -0.0020
14526TIP3    H165069   2.349   3.382  15.802  1.9320 -0.2282  1.2226
14526TIP3    H265070   2.301   3.524  15.822 -0.8421 -0.8142 -0.7318
14527TIP3   OH265071   0.932   5.398  12.990 -0.6779  0.0932  0.0701
14527TIP3    H165072   0.958   5.443  12.909 -1.6837 -0.1261 -0.3986
14527TIP3    H265073   0.890   5.317  12.960  0.3839 -0.7911  0.8765
14528TIP3   OH265074   4.604   1.991  13.516  0.5861 -0.4388  0.3264
14528TIP3    H165075   4.558   1.911  13.543  0.1177 -0.5231 -0.6575
14528TIP3    H265076   4.657   2.015  13.592 -1.1455 -0.2752  1.5463
14529TIP3   OH265077   2.545   1.895   2.660 -0.1756 -0.2781  0.2304
14529TIP3    H165078   2.581   1.921   2.575  0.9880 -1.7166  0.2462
14529TIP3    H265079   2.581   1.959   2.722  1.7931 -1.2135  0.1226
14530TIP3   OH265080   2.630   0.920  12.597  0.1134 -0.3247 -0.2955
14530TIP3    H165081   2.723   0.915  12.576 -0.2504 -1.1063 -1.9087
14530TIP3    H265082   2.617   1.011  12.625  1.3143 -0.1609 -0.2009
14531TIP3   OH265083   1.751   5.079   3.956 -0.3416 -0.5698 -0.3715
14531TIP3    H165084   1.750   5.060   3.862 -0.9306  0.1391 -0.5171
14531TIP3    H265085   1.742   5.174   3.961 -2.6256 -0.7649  0.4246
14532TIP3   OH265086   3.533   6.591   3.662  0.2070 -0.2582  0.7969
14532TIP3    H165087   3.465   6.595   3.730 -0.2173 -0.0974  0.3737
14532TIP3    H265088   3.560   6.500   3.660 -1.3042 -0.7289 -0.2760
14533TIP3   OH265089   4.873   1.579   5.650  0.2853 -0.4422 -0.5172
14533TIP3    H165090   4.918   1.559   5.732  1.4267 -0.0395 -1.0297
14533TIP3    H265091   4.938   1.563   5.582 -0.3544  0.1382 -1.2875
14534TIP3   OH265092   3.519   1.566  11.838  0.0662  0.6043  0.3809
14534TIP3    H165093   3.456   1.542  11.906 -0.5667  1.5249  0.1325
14534TIP3    H265094   3.560   1.646  11.871  0.4251  0.5353  0.1034
14535TIP3   OH265095   0.576   0.289  15.440 -0.2718 -0.3625 -0.2327
14535TIP3    H165096   0.483   0.273  15.424 -0.4837 -1.3949  1.8158
14535TIP3    H265097   0.621   0.220  15.391 -0.5817 -0.1474 -0.8335
14536TIP3   OH265098   3.024   2.102   2.070 -0.7702 -0.3633  0.0845
14536TIP3    H165099   2.952   2.078   2.012 -0.6298  0.8210 -0.6108
14536TIP3    H265100   3.101   2.059   2.032 -1.0586 -1.5465  0.7713
14537TIP3   OH265101   6.229   0.049  14.431  0.1224 -0.0407 -0.3051
14537TIP3    H165102   6.285   0.121  14.405  1.0386 -1.3187 -2.1034
14537TIP3    H265103   6.286  -0.028  14.427 -0.9227 -0.9362  1.1277
14538TIP3   OH265104   0.909   1.393  15.062  0.3306  0.0458  0.0474
14538TIP3    H165105   0.817   1.418  15.070  0.4871  0.5477  0.3241
14538TIP3    H265106   0.955   1.476  15.043  0.5295 -0.4063 -1.6902
14539TIP3   OH265107   3.418   6.102  15.453  0.2305 -0.2888 -0.8574
14539TIP3    H165108   3.472   6.024  15.462 -2.8723 -2.6773 -1.2924
14539TIP3    H265109   3.457   6.151  15.381  2.3276 -1.3456 -0.4990
14540TIP3   OH265110   4.266   1.037  13.895 -0.1880 -0.1569 -0.1459
14540TIP3    H165111   4.320   1.036  13.816 -0.7720  0.6989 -0.5666
14540TIP3    H265112   4.329   1.028  13.967  0.3765 -0.5963 -0.6905
14541TIP3   OH265113   0.050   3.392  12.178  0.2505 -0.4361 -0.0050
14541TIP3    H165114   0.052   3.309  12.225  0.8742 -0.1192  0.5463
14541TIP3    H265115  -0.043   3.413  12.171  0.1139 -0.8786  0.3932
14542TIP3   OH265116   5.345   4.046  11.440  0.4165 -0.0562  0.0839
14542TIP3    H165117   5.381   3.978  11.383 -1.6246 -0.2489 -1.1100
14542TIP3    H265118   5.304   3.998  11.512 -0.5371 -0.1109 -0.4681
14543TIP3   OH265119   5.865   3.509   1.596 -0.5587 -0.2482  0.5826
14543TIP3    H165120   5.893   3.447   1.528 -0.2623  1.7765 -1.2696
14543TIP3    H265121   5.927   3.497   1.667  2.3107  0.8704 -1.5225
14544TIP3   OH265122   0.220   2.231   3.901 -0.2180  0.2543 -0.1367
14544TIP3    H165123   0.187   2.145   3.925 -2.5742  0.3803 -2.4212
14544TIP3    H265124   0.142   2.285   3.894  1.0920  2.2733  0.0180
14545TIP3   OH265125   1.729   5.820   1.918 -0.6912  0.6255  1.1276
14545TIP3    H165126   1.718   5.912   1.893  0.5744  0.2343 -1.1525
14545TIP3    H265127   1.824   5.807   1.921 -0.8038 -0.1386  3.5040
14546TIP3   OH265128   0.316   3.555  16.207 -0.3378  0.5031  0.5122
14546TIP3    H165129   0.399   3.534  16.251  0.5110  1.5178 -0.5295
14546TIP3    H265130   0.266   3.606  16.270 -0.7819 -1.2668  1.6532
14547TIP3   OH265131   5.598   0.178   1.114  0.0252 -0.3630  0.2343
14547TIP3    H165132   5.543   0.238   1.165  0.8694  0.0420  0.6908
14547TIP3    H265133   5.554   0.171   1.029 -0.3162  0.5635  0.3241
14548TIP3   OH265134   6.437   2.430  13.037  0.2804 -0.1743  0.3606
14548TIP3    H165135   6.505   2.438  12.971 -1.4159 -0.1974 -1.5113
14548TIP3    H265136   6.430   2.518  13.075  0.3729  0.2004 -0.4684
14549TIP3   OH265137   6.809   4.072  14.217 -0.3942 -0.1368 -0.1243
14549TIP3    H165138   6.807   4.156  14.263 -1.6627 -0.6401  0.8186
14549TIP3    H265139   6.802   4.007  14.287 -1.1125 -0.9709 -0.9451
14550TIP3   OH265140   4.911   6.496  11.890  0.2314  0.3482  0.4124
14550TIP3    H165141   4.955   6.411  11.899 -0.7036 -0.0646  1.2667
14550TIP3    H265142   4.978   6.559  11.916  0.5564 -0.2119  0.9774
14551TIP3   OH265143   0.293   2.160   4.275 -0.6094  0.0495  0.2518
14551TIP3    H165144   0.361   2.106   4.315 -0.1273 -0.4860 -1.2124
14551TIP3    H265145   0.212   2.110   4.287 -0.5780  0.1919  1.0858
14552TIP3   OH265146   2.177   6.166  15.258  0.5363 -0.4311  0.7905
14552TIP3    H165147   2.154   6.257  15.242 -1.3691 -0.9151  0.6024
14552TIP3    H265148   2.270   6.160  15.234  0.5000  1.2821  0.1200
14553TIP3   OH265149   1.274   5.440  16.997  0.1732  0.0255 -0.2287
14553TIP3    H165150   1.277   5.463  17.089  1.2800  0.3969 -0.3441
14553TIP3    H265151   1.185   5.408  16.983  0.5061 -1.7803  1.3624
14554TIP3   OH265152   0.435   2.421   3.507 -0.1003  0.1871 -0.0927
14554TIP3    H165153   0.441   2.406   3.413 -0.2984 -1.7895  0.1827
14554TIP3    H265154   0.341   2.419   3.525 -0.0817  0.8657  0.1194
14555TIP3   OH265155   3.916   3.386  14.084  0.3791  0.0401  0.4849
14555TIP3    H165156   3.922   3.309  14.027  0.5521 -1.2416  2.1506
14555TIP3    H265157   3.964   3.361  14.163  0.0470  1.7026  1.2511
14556TIP3   OH265158   3.598   5.034  11.414  0.1152  0.3189 -0.4821
14556TIP3    H165159   3.598   5.124  11.446  0.4598  0.1966 -0.1220
14556TIP3    H265160   3.534   4.989  11.470 -0.1785  0.3790 -0.7712
14557TIP3   OH265161   6.750   3.204  15.266  0.4575  0.2717 -0.3279
14557TIP3    H165162   6.686   3.133  15.269 -0.0833  0.7267 -0.8981
14557TIP3    H265163   6.706   3.274  15.218  0.5647  1.4408  1.2398
14558TIP3   OH265164   5.884   3.165  10.568 -0.5695 -0.0467  0.6603
14558TIP3    H165165   5.848   3.209  10.646  0.8947 -1.4770  2.2326
14558TIP3    H265166   5.978   3.157  10.587 -0.0052  0.3385 -1.6842
14559TIP3   OH265167   5.666   3.754   2.059 -0.0903 -0.3869 -0.1015
14559TIP3    H165168   5.638   3.808   2.133  0.2917  1.5007 -1.2724
14559TIP3    H265169   5.602   3.773   1.990  0.1669 -1.2938 -0.6014
14560TIP3   OH265170   1.720   2.276   2.372  0.5516 -0.3050 -0.2747
14560TIP3    H165171   1.784   2.338   2.336 -0.1434  0.9464  0.5454
14560TIP3    H265172   1.713   2.207   2.306  2.3023 -0.1820 -0.6385
14561TIP3   OH265173   4.904   1.114   4.615  0.3758  0.6320  0.5253
14561TIP3    H165174   4.995   1.136   4.595  0.2346  1.2784  0.5916
14561TIP3    H265175   4.891   1.141   4.706 -0.2870  1.8843  0.0857
14562TIP3   OH265176   3.752   1.678  14.254  0.7178  0.1512 -0.8698
14562TIP3    H165177   3.675   1.677  14.197 -1.0929 -0.4175  1.4357
14562TIP3    H265178   3.803   1.752  14.223  0.1346 -0.4607 -3.5450
14563TIP3   OH265179   2.344   2.563  11.361  0.4381 -0.7014  0.1010
14563TIP3    H165180   2.301   2.640  11.399 -1.5972 -2.0433  0.6817
14563TIP3    H265181   2.343   2.578  11.267 -1.4184 -0.6765  0.0876
14564TIP3   OH265182   5.252   0.837  15.017  0.2819  0.0813  0.3772
14564TIP3    H165183   5.185   0.818  15.083  0.3087  1.2190  0.7720
14564TIP3    H265184   5.230   0.926  14.987  0.4552 -0.3064 -0.9297
14565TIP3   OH265185   2.923   1.322  16.871 -0.2690 -0.3140  0.4332
14565TIP3    H165186   2.899   1.276  16.790  1.1964 -0.1783 -0.1117
14565TIP3    H265187   2.892   1.265  16.941 -1.5877 -0.4322 -0.1947
14566TIP3   OH265188   0.262   0.229   0.438 -0.0401  0.6316  0.0700
14566TIP3    H165189   0.214   0.305   0.404 -1.7839 -0.4574 -0.0303
14566TIP3    H265190   0.287   0.254   0.527  0.0124  1.5670 -0.1916
14567TIP3   OH265191   1.707   2.784   5.925  1.0596 -0.5277 -0.3665
14567TIP3    H165192   1.680   2.854   5.986 -0.7382 -1.3244 -0.1869
14567TIP3    H265193   1.726   2.709   5.982 -0.2500 -1.1581 -0.7272
14568TIP3   OH265194   4.076   5.766  13.663  0.0946  0.3578 -0.4006
14568TIP3    H165195   4.035   5.735  13.582 -1.3510  1.6577 -0.2025
14568TIP3    H265196   4.022   5.839  13.691  1.5144  0.9671  0.8915
14569TIP3   OH265197   0.925   2.568  13.455 -0.6768  0.3476  0.0757
14569TIP3    H165198   1.000   2.610  13.412 -0.5316  2.2125  1.9350
14569TIP3    H265199   0.895   2.634  13.518 -3.2970 -0.7369  0.0583
14570TIP3   OH265200   3.236   1.373  15.341  0.1720  0.0182  0.2663
14570TIP3    H165201   3.310   1.375  15.403  0.3155 -0.8673  0.1461
14570TIP3    H265202   3.173   1.435  15.377 -0.1273 -1.1063  1.8067
14571TIP3   OH265203   5.305   4.640  13.138  0.2892  0.0054  0.0332
14571TIP3    H165204   5.317   4.598  13.053 -1.6899 -0.3307 -0.1266
14571TIP3    H265205   5.244   4.583  13.185 -0.3040  1.2827  0.8645
14572TIP3   OH265206   3.122   4.901  15.439  0.2965  0.0236  0.0848
14572TIP3    H165207   3.082   4.987  15.429  2.3481  1.0758  0.2384
14572TIP3    H265208   3.155   4.880  15.352 -0.6629 -0.8883 -0.0739
14573TIP3   OH265209   6.640   6.070  16.057 -0.1080  0.5966 -0.5489
14573TIP3    H165210   6.570   6.105  16.112  0.0295  0.6808 -0.4296
14573TIP3    H265211   6.633   5.975  16.067  0.8017  0.6452  0.7012
14574TIP3   OH265212   0.285   3.456  13.946 -0.1869  0.1617  0.4391
14574TIP3    H165213   0.240   3.492  13.870 -3.0537  1.2078  2.4853
14574TIP3    H265214   0.250   3.368  13.956 -0.2978  0.2565  0.9132
14575TIP3   OH265215   2.489   3.704  11.340  0.3847 -0.1936  0.1513
14575TIP3    H165216   2.531   3.787  11.318 -0.0419 -0.2421 -0.8898
14575TIP3    H265217   2.557   3.638  11.330  0.8667  0.0668  1.4882
14576TIP3   OH265218   1.304   6.554  11.661 -0.0411  0.3367  0.1205
14576TIP3    H165219   1.396   6.540  11.636  0.2483  0.6745  0.9638
14576TIP3    H265220   1.254   6.523  11.586  0.7354 -0.7528  0.0215
14577TIP3   OH265221   1.661   4.262  13.940 -0.6763  0.7330  0.4791
14577TIP3    H165222   1.621   4.250  13.854  2.0285  0.6895 -0.8687
14577TIP3    H265223   1.698   4.350  13.937 -0.0234  0.5027  1.3670
14578TIP3   OH265224   3.702   0.957  14.561 -0.5632  0.4196 -0.3650
14578TIP3    H165225   3.643   0.939  14.634 -0.7439  2.0511 -0.0817
14578TIP3    H265226   3.757   0.879  14.555 -0.2405  0.4193  1.8115
14579TIP3   OH265227   5.209   5.905  16.908  0.2445 -0.2136 -0.1137
14579TIP3    H165228   5.132   5.858  16.876 -2.0749  1.2282  2.8476
14579TIP3    H265229   5.270   5.836  16.932 -1.3733 -1.5856  0.3172
14580TIP3   OH265230   6.676   0.232   4.398 -0.1182  0.9821  0.9085
14580TIP3    H165231   6.652   0.312   4.445 -1.3469  0.1938  1.6790
14580TIP3    H265232   6.622   0.164   4.438  1.3085 -0.3480  0.6537
14581TIP3   OH265233   1.741   1.310  12.466  0.4568 -0.3323  0.2441
14581TIP3    H165234   1.648   1.330  12.481  1.1152  2.5716  1.2038
14581TIP3    H265235   1.761   1.242  12.530 -1.1873 -1.6893 -0.6091
14582TIP3   OH265236   2.380   4.880  13.374  0.1521 -0.2629 -0.8707
14582TIP3    H165237   2.317   4.940  13.415  0.5317  0.7803 -1.7523
14582TIP3    H265238   2.360   4.795  13.412 -1.2614  0.1890 -0.5245
14583TIP3   OH265239   0.215   6.198  13.546  0.5709  0.0989 -0.0800
14583TIP3    H165240   0.218   6.285  13.506  1.2386  0.4997  0.8066
14583TIP3    H265241   0.274   6.144  13.492  2.0192  0.8109  0.7245
14584TIP3   OH265242   2.469   5.922   2.541  0.7064  0.0149 -0.3966
14584TIP3    H165243   2.512   5.876   2.613  0.9237  0.3813 -0.2899
14584TIP3    H265244   2.376   5.913   2.560  0.7305 -0.7290 -0.5957
14585TIP3   OH265245   3.963   2.126   4.521  0.4045  0.1347  0.3550
14585TIP3    H165246   3.881   2.084   4.548  1.7661 -1.1345  2.8961
14585TIP3    H265247   3.936   2.212   4.490 -1.9395 -0.4147  0.6229
14586TIP3   OH265248   2.650   5.531  15.143 -0.4727 -0.0872 -0.1019
14586TIP3    H165249   2.573   5.564  15.188  0.6869  0.3807  1.6392
14586TIP3    H265250   2.721   5.541  15.206  0.6313 -2.5015 -0.8446
14587TIP3   OH265251   1.964   6.819   3.825  0.6757  0.2056  0.7904
14587TIP3    H165252   2.012   6.891   3.866 -0.1393  1.0209  0.3497
14587TIP3    H265253   2.013   6.741   3.850  0.8930  0.7910  2.2834
14588TIP3   OH265254   5.191   5.252  13.568  0.6644  0.0276  0.2592
14588TIP3    H165255   5.266   5.195  13.582  1.9173  0.9974 -2.0406
14588TIP3    H265256   5.138   5.207  13.502  0.6272  0.5742 -0.0915
14589TIP3   OH265257   2.982   3.674   1.263 -0.0992 -0.3527  0.6813
14589TIP3    H165258   3.029   3.698   1.343  0.2907  2.8003 -0.3779
14589TIP3    H265259   2.891   3.664   1.290  0.0708  0.4266  1.5758
14590TIP3   OH265260   0.892   2.945  14.212  0.4654  0.0725 -0.0349
14590TIP3    H165261   0.909   2.851  14.218  0.4103  0.1592  2.9060
14590TIP3    H265262   0.978   2.985  14.216  0.4396  0.1776 -0.4953
14591TIP3   OH265263   4.797   0.945   3.686  0.2103 -0.7430 -0.5804
14591TIP3    H165264   4.833   0.973   3.770 -1.7376  0.7843 -0.2024
14591TIP3    H265265   4.874   0.920   3.635  1.4854 -1.2280  1.4512
14592TIP3   OH265266   2.502   4.398  13.685 -0.6067 -0.0085  0.0203
14592TIP3    H165267   2.590   4.427  13.663 -0.4472  1.0764  1.8354
14592TIP3    H265268   2.446   4.473  13.664 -1.1890 -0.8468 -1.5455
14593TIP3   OH265269   1.477   4.139   4.494  0.1006  0.2836  0.1683
14593TIP3    H165270   1.462   4.048   4.518 -1.4735  0.5014  0.1235
14593TIP3    H265271   1.396   4.166   4.450  0.1081  2.0207  1.1421
14594TIP3   OH265272   5.105   1.156  12.331  0.3800  0.4574 -0.1769
14594TIP3    H165273   5.127   1.211  12.256 -0.7756  2.3735  0.8122
14594TIP3    H265274   5.162   1.080  12.322  1.3752  1.3489 -2.1362
14595TIP3   OH265275   3.689   5.260  13.072 -0.1935 -0.0951  0.1099
14595TIP3    H165276   3.611   5.207  13.055  0.5161 -1.1789  0.1083
14595TIP3    H265277   3.736   5.212  13.140  0.0277  1.0175  0.7520
14596TIP3   OH265278   4.142   1.032   4.819 -0.0860 -0.5100 -0.4105
14596TIP3    H165279   4.122   1.007   4.729 -0.8408  0.7712 -0.6284
14596TIP3    H265280   4.142   1.127   4.818 -0.4232 -0.4698  1.0133
14597TIP3   OH265281   1.883   4.096   1.800  0.4242  0.5191  0.3557
14597TIP3    H165282   1.950   4.165   1.795  1.9613 -0.9929 -2.8519
14597TIP3    H265283   1.801   4.144   1.805  1.5141  2.6148 -0.3382
14598TIP3   OH265284   1.906   5.360  14.972  0.2754  0.3740 -0.2101
14598TIP3    H165285   1.861   5.330  15.050 -0.6863 -0.8149 -1.1885
14598TIP3    H265286   1.858   5.437  14.943 -1.0069 -0.7063 -1.0719
14599TIP3   OH265287   4.604   5.705  11.069  0.1358  0.8150  1.1974
14599TIP3    H165288   4.693   5.739  11.060  0.8027 -0.9778  0.4371
14599TIP3    H265289   4.548   5.782  11.074  1.6241  1.9835  0.4643
14600TIP3   OH265290   5.523   5.768   0.567  0.2569 -0.3555 -0.1538
14600TIP3    H165291   5.492   5.678   0.570  1.6356 -0.9448 -1.7611
14600TIP3    H265292   5.501   5.805   0.653 -4.1893 -0.8398 -0.8887
14601TIP3   OH265293   4.908   1.075   1.403 -0.1437 -0.3386  0.3026
14601TIP3    H165294   4.819   1.040   1.409 -0.6416  0.8137 -0.0066
14601TIP3    H265295   4.934   1.061   1.312 -0.6455  0.7406 -0.0270
14602TIP3   OH265296   0.550   2.043   5.054 -0.7818 -0.3945  0.0424
14602TIP3    H165297   0.566   2.099   4.977  1.3964 -0.7488  0.1639
14602TIP3    H265298   0.546   2.104   5.128  1.0614 -0.2870  0.1075
14603TIP3   OH265299   1.820   2.145   5.290  0.4563  0.5401  0.1191
14603TIP3    H165300   1.817   2.186   5.377  2.3791 -2.3326  1.6724
14603TIP3    H265301   1.729   2.148   5.260  0.1183  3.8632  0.9950
14604TIP3   OH265302   4.976   1.114   0.541  0.0391 -0.3229  0.1290
14604TIP3    H165303   4.973   1.198   0.495 -1.6735 -0.9364 -0.9879
14604TIP3    H265304   4.987   1.137   0.633 -0.5275  1.1290 -0.1346
14605TIP3   OH265305   1.317   0.978  16.897 -0.2099 -0.1959 -0.0774
14605TIP3    H165306   1.375   0.979  16.974  0.4719  0.0144 -0.5849
14605TIP3    H265307   1.294   1.070  16.884  1.2506  0.0263 -1.2827
14606TIP3   OH265308   4.957   0.849   4.268  0.4818 -0.1839 -0.2754
14606TIP3    H165309   5.005   0.789   4.324  1.1788 -0.1818 -0.8632
14606TIP3    H265310   4.898   0.793   4.217  0.1786 -0.2295  0.1189
14607TIP3   OH265311   2.282   0.183   1.761 -0.4347 -0.1579 -0.0574
14607TIP3    H165312   2.191   0.197   1.735 -0.9396 -0.3656  1.5001
14607TIP3    H265313   2.322   0.139   1.686 -1.0257  1.8408 -1.6421
14608TIP3   OH265314   0.853   6.642   3.147 -0.5930  0.1367  0.4940
14608TIP3    H165315   0.850   6.648   3.242  2.1192 -2.1780  0.8872
14608TIP3    H265316   0.935   6.686   3.123 -0.3932 -0.7468 -0.5338
14609TIP3   OH265317   2.754   3.557   3.356  0.4321 -0.2024 -0.2652
14609TIP3    H165318   2.752   3.489   3.423 -0.8067 -1.1724 -1.2455
14609TIP3    H265319   2.686   3.532   3.293 -3.1428  4.0018  1.3568
14610TIP3   OH265320   5.994   2.602   2.824  0.3744 -0.9585  0.4387
14610TIP3    H165321   6.070   2.642   2.781 -0.2070 -2.3370 -2.0800
14610TIP3    H265322   5.959   2.672   2.880  1.2191  1.0311 -1.3455
14611TIP3   OH265323   6.390   0.248  14.360 -0.0620  0.2517 -0.4302
14611TIP3    H165324   6.461   0.291  14.406 -0.2382  0.4204 -0.3171
14611TIP3    H265325   6.434   0.193  14.295  0.1293  1.7118 -1.5798
14612TIP3   OH265326   4.407   5.985   2.066  0.1444  0.0195 -0.0862
14612TIP3    H165327   4.328   5.931   2.075  0.1863  0.2097  1.8185
14612TIP3    H265328   4.377   6.063   2.020 -0.0794 -1.2352 -2.2108
14613TIP3   OH265329   0.840   6.640  15.311  0.1251  0.7598  1.0480
14613TIP3    H165330   0.769   6.669  15.368 -0.8461  0.0545  0.2371
14613TIP3    H265331   0.854   6.714  15.251  0.0560  0.8902  1.1924
14614TIP3   OH265332   3.424   0.727  11.204  0.0434 -0.0016 -0.4030
14614TIP3    H165333   3.399   0.782  11.130  0.2601 -0.0250 -0.4943
14614TIP3    H265334   3.357   0.743  11.269  0.0940  0.3599 -0.4358
14615TIP3   OH265335   1.523   4.525   0.606 -0.2725  0.2509  0.1162
14615TIP3    H165336   1.446   4.473   0.628 -3.2706  4.1255 -0.1122
14615TIP3    H265337   1.511   4.548   0.514  0.9729  1.2690  0.1826
14616TIP3   OH265338   0.065   4.088   3.724 -0.0606  0.7904 -0.3162
14616TIP3    H165339   0.040   4.011   3.774  0.5095  0.7188 -0.1369
14616TIP3    H265340   0.126   4.135   3.780 -0.2996  1.3008 -0.4806
14617TIP3   OH265341   6.050   3.784  11.866 -0.5008 -0.4813 -0.4261
14617TIP3    H165342   5.981   3.849  11.854  0.7444  0.8657 -0.5817
14617TIP3    H265343   6.121   3.832  11.909  0.5253 -1.6938 -0.6998
14618TIP3   OH265344   2.388   5.438   5.682  0.2324 -0.2871  0.0945
14618TIP3    H165345   2.430   5.508   5.733 -0.0483 -0.9041  1.2138
14618TIP3    H265346   2.395   5.467   5.591  1.5843  0.4161  0.3967
14619TIP3   OH265347   2.944   3.378   3.888 -0.6148  0.3592 -0.4561
14619TIP3    H165348   2.904   3.461   3.914 -0.9013  1.0620 -2.9055
14619TIP3    H265349   2.949   3.327   3.969 -0.1822  2.8495  1.1748
14620TIP3   OH265350   4.502   3.448  14.827 -0.1615 -0.1222 -0.4272
14620TIP3    H165351   4.594   3.420  14.825  0.4524  1.5698  0.9911
14620TIP3    H265352   4.469   3.413  14.910 -0.1187  1.1296  0.1327
14621TIP3   OH265353   4.537   2.364   3.512  0.3394 -0.4042 -0.0504
14621TIP3    H165354   4.581   2.443   3.480 -1.3486  0.1391 -1.1524
14621TIP3    H265355   4.596   2.292   3.488  1.7590  0.4474  0.7071
14622TIP3   OH265356   0.037   6.295  16.507 -0.8079 -0.1300 -0.4615
14622TIP3    H165357   0.025   6.318  16.599 -1.1335 -1.3039 -0.2012
14622TIP3    H265358   0.045   6.200  16.506 -0.9026 -0.1487 -1.6599
14623TIP3   OH265359   1.397   2.512   0.467  0.0062 -0.2455 -0.6543
14623TIP3    H165360   1.464   2.536   0.532  1.4030 -2.4813 -1.1246
14623TIP3    H265361   1.315   2.517   0.515  0.7734  0.2572  0.6767
14624TIP3   OH265362   2.995   0.941  17.122 -0.4142 -0.1121  0.0808
14624TIP3    H165363   3.089   0.953  17.130 -0.1500 -1.8124 -0.1254
14624TIP3    H265364   2.981   0.921  17.029 -1.1261  1.0875 -0.1011
14625TIP3   OH265365   2.133   1.814   5.878  0.4518  0.3276 -0.0973
14625TIP3    H165366   2.188   1.745   5.915 -0.0707 -0.0511 -0.0230
14625TIP3    H265367   2.194   1.885   5.858  0.7962  0.4164  1.1818
14626TIP3   OH265368   3.285   1.408   1.754 -0.6096  0.2338  0.1897
14626TIP3    H165369   3.358   1.462   1.783 -1.2257  0.7156  0.8979
14626TIP3    H265370   3.323   1.323   1.737  0.2754  0.7274 -0.3458
14627TIP3   OH265371   1.602   5.765  12.168  0.8926  0.4605 -0.6426
14627TIP3    H165372   1.683   5.740  12.211  1.2254 -0.5995 -1.8316
14627TIP3    H265373   1.630   5.809  12.088  0.2846  2.3220  0.1214
14628TIP3   OH265374   1.063   0.618   6.247  0.2897  0.0641 -0.6215
14628TIP3    H165375   1.040   0.554   6.314  0.2248 -1.2954 -1.8831
14628TIP3    H265376   0.986   0.622   6.190 -0.3526  2.5092  0.2899
14629TIP3   OH265377   5.573   1.246   4.993  0.5771 -0.0580 -0.2745
14629TIP3    H165378   5.593   1.300   4.916  3.0198  0.6969  0.8145
14629TIP3    H265379   5.658   1.223   5.029 -0.4655 -2.5101  0.8179
14630TIP3   OH265380   2.028   4.704   3.772  0.0921  0.0900 -0.9220
14630TIP3    H165381   2.050   4.725   3.681  1.3959  1.5214 -0.3202
14630TIP3    H265382   1.935   4.681   3.769 -0.6443  2.8408 -2.2217
14631TIP3   OH265383   5.416   1.561  17.160  0.0436 -0.1202  0.0680
14631TIP3    H165384   5.428   1.579  17.253  2.4067 -1.7336  0.1631
14631TIP3    H265385   5.459   1.634  17.116 -0.7649  0.4590  0.2066
14632TIP3   OH265386   5.007   6.028  14.687  0.4758 -0.4652 -0.1143
14632TIP3    H165387   5.072   6.086  14.648  2.1312 -0.9121  1.8136
14632TIP3    H265388   5.058   5.958  14.727 -1.0340 -0.0628  2.7791
14633TIP3   OH265389   5.610   5.384  11.448  0.3421  0.2606  0.1070
14633TIP3    H165390   5.542   5.443  11.479 -0.4149 -0.2886 -0.4607
14633TIP3    H265391   5.628   5.413  11.359  0.7404  0.3122  0.2056
14634TIP3   OH265392   1.815   2.029   1.325 -0.3386  0.6190 -0.2933
14634TIP3    H165393   1.881   2.081   1.370  0.3799  0.2326 -0.8749
14634TIP3    H265394   1.830   2.046   1.232  0.2169 -0.9542 -0.5298
14635TIP3   OH265395   4.050   4.248   3.273 -0.0137 -0.1645 -0.1032
14635TIP3    H165396   4.045   4.340   3.297 -0.5413 -0.1864 -0.1364
14635TIP3    H265397   4.065   4.249   3.178 -2.9226 -0.1188 -0.6544
14636TIP3   OH265398   6.254   5.992  11.596  0.0675  0.5471 -0.4046
14636TIP3    H165399   6.307   6.011  11.519 -2.1097 -2.1358 -2.7933
14636TIP3    H265400   6.302   5.922  11.641  0.1757  0.4424 -0.6801
14637TIP3   OH265401   4.533   6.822   3.417 -0.2703  0.0977 -0.7067
14637TIP3    H165402   4.462   6.864   3.369  0.3036  1.7231 -0.1989
14637TIP3    H265403   4.609   6.877   3.401  0.9065 -1.5854 -1.2013
14638TIP3   OH265404   3.703   5.889   2.940 -0.4661  0.0238  0.5407
14638TIP3    H165405   3.628   5.925   2.893  1.5498  1.0444 -2.1527
14638TIP3    H265406   3.716   5.802   2.901  1.6057  1.1247 -1.4809
14639TIP3   OH265407   3.956   1.007   0.741 -0.6192 -0.2285  0.0329
14639TIP3    H165408   3.938   0.931   0.796 -1.2622  0.3091  0.5831
14639TIP3    H265409   4.051   1.017   0.743 -0.6952  0.3815  1.8916
14640TIP3   OH265410   2.151   6.400   5.780 -0.1946 -0.0896  0.4136
14640TIP3    H165411   2.071   6.428   5.736 -1.5610  0.2134  2.9473
14640TIP3    H265412   2.134   6.412   5.873  1.8538 -2.4426  1.2246
14641TIP3   OH265413   5.021   0.817  15.508  0.0672 -0.1627 -0.7523
14641TIP3    H165414   4.935   0.790  15.539  1.0285 -2.9699 -0.2453
14641TIP3    H265415   5.010   0.908  15.481 -2.0877  0.8554  2.9187
14642TIP3   OH265416   5.705   0.563  15.068  0.1489 -0.6424 -0.2373
14642TIP3    H165417   5.682   0.493  15.006  0.0277 -0.8946  0.0903
14642TIP3    H265418   5.643   0.633  15.049  1.8729  0.4207 -2.3143
14643TIP3   OH265419   3.733   3.882   3.915  0.7111  0.3635 -0.4696
14643TIP3    H165420   3.755   3.830   3.837 -0.5494 -0.4766 -0.2864
14643TIP3    H265421   3.816   3.890   3.962  1.3400  0.2491 -1.5214
14644TIP3   OH265422   3.580   1.046  13.326  0.2182 -0.0064  0.4558
14644TIP3    H165423   3.576   0.980  13.256 -0.8740  2.6826 -2.2438
14644TIP3    H265424   3.674   1.064  13.336  0.4568 -1.1524  0.4891
14645TIP3   OH265425   6.270   3.582   5.618  0.4937 -0.5221 -0.1710
14645TIP3    H165426   6.360   3.553   5.606  0.8386  0.5223 -0.2561
14645TIP3    H265427   6.277   3.653   5.683 -0.6463 -2.4378  2.2116
14646TIP3   OH265428   3.120   6.582  16.813 -0.9397  0.2064  0.2006
14646TIP3    H165429   3.087   6.521  16.878 -0.7101  0.0145  0.1385
14646TIP3    H265430   3.076   6.558  16.731 -1.6304  0.7855  0.3922
14647TIP3   OH265431   4.369   5.153  15.158  0.3217  0.4698 -0.0979
14647TIP3    H165432   4.424   5.128  15.232 -0.7417 -3.1549 -0.3715
14647TIP3    H265433   4.286   5.180  15.197  0.2902  0.0648  0.1186
14648TIP3   OH265434   5.501   4.589  13.513 -0.2153  0.7645  0.4864
14648TIP3    H165435   5.525   4.650  13.583 -0.2829 -0.6208  1.7833
14648TIP3    H265436   5.550   4.618  13.437 -0.2729  2.4375  1.0469
14649TIP3   OH265437   4.266   6.164  15.664 -0.1074  0.3679 -0.3800
14649TIP3    H165438   4.299   6.092  15.718 -4.0738  0.0274  1.9848
14649TIP3    H265439   4.337   6.183  15.603  2.2861 -3.5182  0.8395
14650TIP3   OH265440   4.481   0.435   1.031  0.5604  0.1356 -0.1447
14650TIP3    H165441   4.519   0.413   0.946 -0.1381  1.2038 -0.7557
14650TIP3    H265442   4.556   0.440   1.090  1.0280 -0.8877 -0.6311
14651TIP3   OH265443   4.544   1.682   5.120 -0.2425 -0.0760  0.3758
14651TIP3    H165444   4.522   1.590   5.107  0.2804 -0.4042  1.6537
14651TIP3    H265445   4.462   1.728   5.103  0.1700 -0.3989 -3.3957
14652TIP3   OH265446   1.807   2.272  15.873  0.0749 -0.5152  0.0007
14652TIP3    H165447   1.731   2.236  15.828 -0.3901 -0.9341  1.0867
14652TIP3    H265448   1.811   2.225  15.956 -0.0790  1.3648  1.1265
14653TIP3   OH265449   0.615   5.108   6.384  0.4122  0.2831  0.2533
14653TIP3    H165450   0.591   5.150   6.467 -1.4025  0.3914 -0.3021
14653TIP3    H265451   0.681   5.167   6.346 -0.1590  1.2466  0.7169
14654TIP3   OH265452   0.541   3.998  11.116 -0.4006 -0.6027 -0.4782
14654TIP3    H165453   0.511   3.924  11.062 -0.5274 -0.9203  0.0223
14654TIP3    H265454   0.535   4.073  11.057  0.0501 -1.0383 -1.0984
14655TIP3   OH265455   6.826   0.112   2.642 -0.0348  0.0298  0.0431
14655TIP3    H165456   6.808   0.042   2.705 -0.5699  0.5096  0.4267
14655TIP3    H265457   6.795   0.077   2.558 -0.7903  0.0098  0.3252
14656TIP3   OH265458   3.015   2.220  11.607 -0.0327 -0.6493  0.6165
14656TIP3    H165459   3.083   2.279  11.640  0.5843 -0.8986 -0.1929
14656TIP3    H265460   3.041   2.133  11.639 -0.2047 -0.6888  0.6549
14657TIP3   OH265461   0.724   4.960  15.096 -0.1384  0.0785 -0.6871
14657TIP3    H165462   0.766   4.960  15.011  1.2691  1.5156 -0.0393
14657TIP3    H265463   0.776   4.899  15.149 -0.6342 -0.3332 -0.6594
14658TIP3   OH265464   3.776   4.828  11.464 -0.1269 -0.6162  0.2267
14658TIP3    H165465   3.730   4.752  11.499 -1.5864  0.0407 -0.1915
14658TIP3    H265466   3.715   4.867  11.402  0.0859  1.5699  1.2761
14659TIP3   OH265467   0.377   5.965  12.052 -0.5944 -0.4094  0.1684
14659TIP3    H165468   0.440   6.035  12.072 -0.3536 -0.0743 -1.5988
14659TIP3    H265469   0.296   6.011  12.029 -0.8095 -0.7583  0.2229
14660TIP3   OH265470   4.477   3.718   4.644 -0.1818  0.2185  0.0918
14660TIP3    H165471   4.502   3.804   4.679 -0.8777  0.2749  0.4662
14660TIP3    H265472   4.384   3.726   4.624 -0.7457 -1.0051  1.9273
14661TIP3   OH265473   2.067   3.382   0.208 -0.2770 -0.2347 -0.0493
14661TIP3    H165474   2.139   3.418   0.261 -0.2069  0.6137 -0.6916
14661TIP3    H265475   2.021   3.323   0.267  1.0661 -0.9561  0.3268
14662TIP3   OH265476   1.819   4.197   6.475 -0.2778  0.1845 -0.3330
14662TIP3    H165477   1.870   4.278   6.479 -0.3403  0.4292 -2.8507
14662TIP3    H265478   1.740   4.220   6.425 -1.6952 -0.7929  1.3284
14663TIP3   OH265479   1.896   2.346  12.849  0.1212 -0.0155  0.9315
14663TIP3    H165480   1.879   2.429  12.894  0.9539  2.0764 -2.2577
14663TIP3    H265481   1.832   2.344  12.778  1.3155 -1.1617 -0.1690
14664TIP3   OH265482   3.408   1.590  11.590 -0.1484 -0.0435 -0.1383
14664TIP3    H165483   3.429   1.605  11.682 -0.4049 -0.8590  0.0597
14664TIP3    H265484   3.485   1.547  11.554  0.4179  1.2947 -0.6045
14665TIP3   OH265485   3.745   5.575   2.418 -0.4415 -0.4569  0.1306
14665TIP3    H165486   3.767   5.484   2.438 -0.0841 -0.5396 -0.6041
14665TIP3    H265487   3.817   5.626   2.456 -0.0350 -0.5723 -0.4786
14666TIP3   OH265488   3.230   4.418  13.129  0.2970  0.1855 -0.0606
14666TIP3    H165489   3.315   4.461  13.122 -0.3847  1.4050 -1.2733
14666TIP3    H265490   3.181   4.448  13.053 -1.3930 -0.1314  0.8470
14667TIP3   OH265491   1.692   4.042  11.000  0.4869 -0.2176 -0.4724
14667TIP3    H165492   1.655   4.069  11.084  2.2128  0.2766  0.1724
14667TIP3    H265493   1.673   4.114  10.941  1.6950  0.7266  0.2478
14668TIP3   OH265494   6.156   5.931   1.655 -0.2127 -0.4218  0.4393
14668TIP3    H165495   6.100   5.871   1.704  0.5173 -0.2509  1.5161
14668TIP3    H265496   6.244   5.911   1.685  0.3089 -0.5485 -1.0804
14669TIP3   OH265497   0.055   1.997  13.561 -0.1436  0.2369  0.5229
14669TIP3    H165498   0.067   2.074  13.616  1.3392  1.8611 -1.9122
14669TIP3    H265499   0.144   1.969  13.538 -0.6942 -0.9428 -0.3306
14670TIP3   OH265500   0.842   2.160  11.517 -0.2966  0.1136 -0.4251
14670TIP3    H165501   0.838   2.224  11.445  0.5652 -0.0411 -0.6166
14670TIP3    H265502   0.863   2.077  11.474  1.7315  0.2828  0.1192
14671TIP3   OH265503   1.034   0.397  12.478  0.1209 -0.2955 -0.6374
14671TIP3    H165504   1.097   0.463  12.506  0.1712 -1.0097  1.0754
14671TIP3    H265505   0.965   0.401  12.544  1.4046 -3.7400  1.1558
14672TIP3   OH265506   3.537   3.925  15.516 -0.4444 -0.2981  0.1752
14672TIP3    H165507   3.524   3.944  15.423  2.0283  0.0096 -0.1667
14672TIP3    H265508   3.559   4.009  15.555 -0.7266 -0.5556  0.9129
14673TIP3   OH265509   0.774   2.283   1.257 -0.5499 -0.4272  0.1589
14673TIP3    H165510   0.847   2.255   1.202 -0.6649  0.8085 -0.6609
14673TIP3    H265511   0.796   2.373   1.281 -0.9824 -0.6195  1.3499
14674TIP3   OH265512   1.898   4.824   4.023  0.4629  0.0572 -0.0828
14674TIP3    H165513   1.935   4.774   3.951  1.1056  0.4223 -0.0064
14674TIP3    H265514   1.859   4.902   3.982  1.2961  0.5327  0.0109
14675TIP3   OH265515   5.170   3.145  14.155 -0.3927 -0.6391  0.1340
14675TIP3    H165516   5.209   3.058  14.146 -0.0814 -0.9182  3.0902
14675TIP3    H265517   5.145   3.151  14.247 -0.3080  2.4393  0.0761
14676TIP3   OH265518   3.484   3.965  16.773  0.0158 -0.5893 -0.1712
14676TIP3    H165519   3.484   3.886  16.719 -0.0601 -0.8401  0.1970
14676TIP3    H265520   3.577   3.987  16.781 -0.0225  0.2356 -1.5433
14677TIP3   OH265521   4.040   6.182   2.401 -0.3204 -0.1823 -0.2776
14677TIP3    H165522   4.057   6.173   2.308  0.6296 -0.1018 -0.1208
14677TIP3    H265523   4.089   6.110   2.441 -2.1085 -1.3020  0.0385
14678TIP3   OH265524   3.994   5.902  16.754  0.5128  0.6138  0.4737
14678TIP3    H165525   4.046   5.980  16.735  0.6289  0.5415  0.4960
14678TIP3    H265526   4.010   5.844  16.680 -2.5902  2.1218 -1.6054
14679TIP3   OH265527   0.583   0.160   0.303 -0.5817 -0.5308 -0.4245
14679TIP3    H165528   0.556   0.120   0.220 -1.9451  0.9043 -0.7305
14679TIP3    H265529   0.595   0.253   0.282  1.4609 -0.5380  0.4800
14680TIP3   OH265530   4.653   2.494  15.423  0.2431 -0.7228 -0.1659
14680TIP3    H165531   4.721   2.438  15.386  0.2705  0.0869 -1.4363
14680TIP3    H265532   4.688   2.583  15.415 -0.4818 -0.3908  0.2183
14681TIP3   OH265533   4.410   1.543   4.578  0.5794 -0.4479 -0.0695
14681TIP3    H165534   4.384   1.513   4.665  2.5908 -5.3262 -0.7922
14681TIP3    H265535   4.337   1.516   4.521  1.3965 -2.0882 -0.4174
14682TIP3   OH265536   4.491   2.888  14.104 -0.6625  0.5672  0.1905
14682TIP3    H165537   4.425   2.834  14.060  0.9930 -1.2584 -0.2210
14682TIP3    H265538   4.456   2.977  14.101 -2.5158 -0.1449 -1.0946
14683TIP3   OH265539   1.095   1.954   4.688  0.2497 -0.2109 -0.0330
14683TIP3    H165540   1.072   2.004   4.610 -1.0658  1.0289  1.1003
14683TIP3    H265541   1.171   1.901   4.661 -0.7254 -0.5244 -2.3969
14684TIP3   OH265542   1.906   5.822   4.745 -0.2193  0.0438  0.6807
14684TIP3    H165543   1.931   5.914   4.754 -2.3941  0.9534 -1.4293
14684TIP3    H265544   1.928   5.783   4.829  0.7503  2.4885  1.6527
14685TIP3   OH265545   4.672   6.339   5.749  0.0726 -0.6849 -0.2635
14685TIP3    H165546   4.716   6.255   5.757 -0.5238 -1.1651 -1.7168
14685TIP3    H265547   4.598   6.322   5.692  0.1200  0.8856 -0.8477
14686TIP3   OH265548   6.710   4.464  11.421  0.4697  0.0227  0.0803
14686TIP3    H165549   6.746   4.535  11.369 -0.3623  1.1716  1.0277
14686TIP3    H265550   6.747   4.478  11.509  0.9523 -1.2078  0.0972
14687TIP3   OH265551   3.206   2.347  12.626  0.2508  0.0851 -0.7792
14687TIP3    H165552   3.184   2.415  12.562  0.7985 -0.0205 -1.0798
14687TIP3    H265553   3.291   2.373  12.661 -1.1574  1.6063  1.8865
14688TIP3   OH265554   6.722   5.066  12.664 -0.4285  0.5492  0.2057
14688TIP3    H165555   6.798   5.123  12.677  0.1214 -0.3504  1.1247
14688TIP3    H265556   6.648   5.126  12.654  0.2696  1.4272  0.1491
14689TIP3   OH265557   5.312   1.702   2.355  0.6545 -0.3646  0.6866
14689TIP3    H165558   5.231   1.705   2.304  0.0511  0.9339  1.6678
14689TIP3    H265559   5.312   1.614   2.394  1.2648 -1.4865 -1.6843
14690TIP3   OH265560   0.860   3.171   2.339 -0.1324  0.4578 -0.4240
14690TIP3    H165561   0.824   3.255   2.312 -1.3029  0.3624  0.7244
14690TIP3    H265562   0.784   3.113   2.345  0.1578  0.1959  1.8531
14691TIP3   OH265563   4.839   5.555   2.783  0.0715 -0.0535  0.2757
14691TIP3    H165564   4.924   5.518   2.761  0.0038  0.3703 -0.7572
14691TIP3    H265565   4.787   5.544   2.703 -0.3645  1.0477  0.3933
14692TIP3   OH265566   4.089   5.630   3.874  0.3811 -0.4683 -0.3221
14692TIP3    H165567   4.027   5.557   3.884  1.3212 -1.5094 -1.5958
14692TIP3    H265568   4.079   5.657   3.782 -0.6146  1.6903  0.3542
14693TIP3   OH265569   4.516   6.274  11.531  0.4176 -0.8653  0.2220
14693TIP3    H165570   4.462   6.247  11.457 -0.7546  0.4487  0.5604
14693TIP3    H265571   4.604   6.285  11.493 -0.7226  3.0256 -1.8774
14694TIP3   OH265572   3.814   0.661  12.444 -0.5261  0.0921 -0.2928
14694TIP3    H165573   3.767   0.598  12.390 -0.5619  0.2825 -0.4858
14694TIP3    H265574   3.768   0.660  12.528 -0.9427  0.3619 -0.5189
14695TIP3   OH265575   3.163   1.566  12.260 -0.1342  0.3277  0.7738
14695TIP3    H165576   3.165   1.474  12.287  0.0336  0.6475  1.9386
14695TIP3    H265577   3.145   1.614  12.341  0.9407  1.4044  0.4095
14696TIP3   OH265578   3.347   5.029   2.349  0.5005 -0.2547  0.1357
14696TIP3    H165579   3.300   4.985   2.278 -1.1098 -0.4795  1.2588
14696TIP3    H265580   3.313   4.986   2.429  1.8859  0.3081  1.0629
14697TIP3   OH265581   2.570   1.866   0.372 -0.3629  0.2683  0.7569
14697TIP3    H165582   2.616   1.910   0.443  0.0479 -0.1882  0.7750
14697TIP3    H265583   2.618   1.785   0.359  0.6920  1.1451 -1.2703
14698TIP3   OH265584   1.039   0.367   0.449  0.3932 -0.2050 -0.5309
14698TIP3    H165585   0.965   0.350   0.390 -0.6500 -0.6310  0.8582
14698TIP3    H265586   1.098   0.294   0.435  0.6528  0.2064 -1.7531
14699TIP3   OH265587   5.566   4.146   6.575 -0.0977 -0.1704  0.0150
14699TIP3    H165588   5.514   4.118   6.500  0.0704 -1.2356  0.2663
14699TIP3    H265589   5.501   4.167   6.642 -0.2519  0.9335 -0.4601
14700TIP3   OH265590   4.305   3.446  15.336 -0.4523  0.1318  0.5335
14700TIP3    H165591   4.401   3.448  15.331 -0.4138 -1.3175  0.3769
14700TIP3    H265592   4.286   3.468  15.427  0.0062  0.7110  0.4989
14701TIP3   OH265593   3.637   0.701   2.416 -0.5978  0.1764 -0.0656
14701TIP3    H165594   3.549   0.669   2.434 -0.6098  0.1059 -0.2541
14701TIP3    H265595   3.694   0.626   2.430 -0.6859 -0.1024 -1.1106
14702TIP3   OH265596   2.590   0.962   4.548  0.0566  0.1687  0.5087
14702TIP3    H165597   2.614   0.950   4.456 -2.0816  1.3334 -0.2840
14702TIP3    H265598   2.525   0.894   4.565 -0.2478  0.5450  0.8651
14703TIP3   OH265599   3.533   6.658   0.006  0.4181  0.0467 -0.1945
14703TIP3    H165600   3.492   6.614   0.081  1.0194  1.7669  1.2262
14703TIP3    H265601   3.627   6.656   0.026  0.6451  0.0245 -1.2174
14704TIP3   OH265602   0.654   2.376   4.583  0.5637  0.2621  0.1383
14704TIP3    H165603   0.592   2.448   4.578  0.4395  0.3062  1.6879
14704TIP3    H265604   0.706   2.382   4.503 -1.1767  0.4363 -1.0290
14705TIP3   OH265605   6.804   2.674  14.415 -0.1935 -0.3245 -0.4436
14705TIP3    H165606   6.800   2.579  14.407  0.0813 -0.4842  1.0549
14705TIP3    H265607   6.731   2.697  14.472  0.8426  0.1332  0.7526
14706TIP3   OH265608   0.977   6.057   3.728  0.2966  0.5118 -0.5708
14706TIP3    H165609   0.938   6.007   3.800  1.6140 -0.8564 -0.7482
14706TIP3    H265610   1.033   5.993   3.682 -2.0728  0.7385 -4.1505
14707TIP3   OH265611   1.773   4.512  11.610 -0.3006 -0.0421  0.5488
14707TIP3    H165612   1.701   4.569  11.636 -0.3097 -1.1593  3.3355
14707TIP3    H265613   1.736   4.424  11.610  0.3809 -0.3620 -0.9608
14708TIP3   OH265614   4.476   4.634  15.775 -0.4263  0.6894  0.3335
14708TIP3    H165615   4.419   4.613  15.701 -0.1723  0.3619  0.2274
14708TIP3    H265616   4.417   4.667  15.842 -0.5468  1.9397 -0.3607
14709TIP3   OH265617   1.341   2.554  14.195 -0.1970  0.1453  0.1615
14709TIP3    H165618   1.330   2.493  14.122  1.7878  0.6574 -0.6192
14709TIP3    H265619   1.422   2.526  14.238  0.0214  1.4225  0.6149
14710TIP3   OH265620   6.393   4.864  13.525 -0.3800  0.4760  0.0133
14710TIP3    H165621   6.312   4.848  13.573 -0.2247  0.2447  0.2023
14710TIP3    H265622   6.446   4.787  13.542 -0.4159  0.2886 -0.7335
14711TIP3   OH265623   3.786   1.426   2.962  0.1465  0.4518 -0.1369
14711TIP3    H165624   3.778   1.449   3.054 -0.9013 -1.8425  0.4161
14711TIP3    H265625   3.867   1.374   2.958  0.6075  1.1908 -0.6835
14712TIP3   OH265626   2.423   4.565   5.984  0.2064  0.3587 -0.5163
14712TIP3    H165627   2.471   4.646   6.000 -0.3557  0.8566 -1.2666
14712TIP3    H265628   2.338   4.578   6.026  0.9302 -0.7949  1.4213
14713TIP3   OH265629   0.878   6.564   5.645  0.4236 -0.0403  0.0790
14713TIP3    H165630   0.898   6.648   5.686  2.2243  0.9067 -2.4433
14713TIP3    H265631   0.959   6.513   5.654 -0.3749 -1.1998  0.8601
14714TIP3   OH265632   1.347   4.376  12.432  0.0787  0.3524 -0.4348
14714TIP3    H165633   1.352   4.439  12.360 -0.0134  0.7773 -0.0706
14714TIP3    H265634   1.375   4.425  12.509 -0.8026  0.1755  0.0030
14715TIP3   OH265635   6.822   3.660   2.075  0.1267 -0.6428  0.2463
14715TIP3    H165636   6.829   3.682   1.982 -1.9838 -2.1917 -0.3456
14715TIP3    H265637   6.812   3.745   2.119 -0.9655  0.0074 -1.1760
14716TIP3   OH265638   3.174   0.123  12.545  0.0488  0.0318 -0.5267
14716TIP3    H165639   3.113   0.155  12.611  1.6661  1.3830  0.4039
14716TIP3    H265640   3.123   0.062  12.492 -2.1738  1.3257 -0.0094
14717TIP3   OH265641   0.230   3.563  15.560 -0.3801  0.3066 -0.4278
14717TIP3    H165642   0.253   3.470  15.556  1.9505  0.8168 -0.1460
14717TIP3    H265643   0.218   3.589  15.469  1.0615  0.1736 -0.6749
14718TIP3   OH265644   6.542   6.313   0.597  0.2018 -0.1371  0.3704
14718TIP3    H165645   6.506   6.224   0.590 -1.9340  0.6561  0.3777
14718TIP3    H265646   6.588   6.327   0.515  1.1492 -1.4773  0.6474
14719TIP3   OH265647   4.481   5.513  14.251 -0.1744 -0.1026  0.5032
14719TIP3    H165648   4.465   5.425  14.285 -1.1444 -0.1356 -0.0066
14719TIP3    H265649   4.493   5.501  14.157 -0.7556  0.3581  0.3635
14720TIP3   OH265650   4.254   3.949   3.149  0.3182  0.2813  0.1535
14720TIP3    H165651   4.175   3.898   3.167 -0.5713  1.6677  0.3292
14720TIP3    H265652   4.307   3.939   3.228  0.5299 -0.9620 -0.1110
14721TIP3   OH265653   4.134   1.868  11.720  0.3396 -0.0125 -0.1122
14721TIP3    H165654   4.102   1.840  11.805 -0.2477  1.2971  0.1233
14721TIP3    H265655   4.061   1.852  11.660  0.6397 -0.6437 -0.3093
14722TIP3   OH265656   6.751   1.445  12.622 -0.0335 -0.0749 -0.6383
14722TIP3    H165657   6.827   1.480  12.669 -0.9173 -0.8519  1.4515
14722TIP3    H265658   6.777   1.450  12.530  1.2154  2.8176 -0.2631
14723TIP3   OH265659   1.288   1.176   5.421  0.2853 -0.2344  0.1299
14723TIP3    H165660   1.312   1.254   5.471 -0.8169 -0.7000  1.4343
14723TIP3    H265661   1.210   1.201   5.372 -1.0077 -0.9572  1.7696
14724TIP3   OH265662   0.740   1.951  14.955  0.0295  0.1576 -0.0574
14724TIP3    H165663   0.811   1.925  15.013 -0.0958  0.6025  0.2982
14724TIP3    H265664   0.662   1.947  15.009  0.0509  1.5933  0.1050
14725TIP3   OH265665   3.670   2.849   0.239  0.4189 -0.0350  0.0826
14725TIP3    H165666   3.753   2.839   0.191 -0.2160  0.1773 -1.0907
14725TIP3    H265667   3.630   2.762   0.235 -0.6545  0.4792 -1.7582
14726TIP3   OH265668   4.869   1.457   1.982 -0.0506  0.3297  0.2794
14726TIP3    H165669   4.796   1.431   2.038  0.1214 -0.1223  0.2943
14726TIP3    H265670   4.937   1.392   1.998  0.4768  0.9212  0.4896
14727TIP3   OH265671   1.782   4.287  14.925  0.7894  0.2373  0.0743
14727TIP3    H165672   1.750   4.208  14.969  1.3760 -1.1638 -1.8983
14727TIP3    H265673   1.703   4.339  14.910  0.5663  0.7791  2.6637
14728TIP3   OH265674   1.094   6.327  15.070 -0.1898  0.0089  0.2637
14728TIP3    H165675   1.170   6.313  15.127  0.4977 -1.0546 -0.8573
14728TIP3    H265676   1.128   6.313  14.981 -2.1107 -2.5168 -0.1703
14729TIP3   OH265677   1.311   5.563   6.135  0.1720  0.4918 -0.0900
14729TIP3    H165678   1.391   5.597   6.095  0.2798  0.7500  0.3355
14729TIP3    H265679   1.309   5.605   6.221 -0.3537  0.3842 -0.0529
14730TIP3   OH265680   4.271   4.972   0.629  0.2131 -0.3425 -0.8781
14730TIP3    H165681   4.198   4.915   0.604  1.7147 -1.9705 -1.8338
14730TIP3    H265682   4.284   4.956   0.722  0.1532 -1.0180 -0.9822
14731TIP3   OH265683   2.994   1.214   2.496 -0.2279 -0.4906  0.2412
14731TIP3    H165684   2.907   1.254   2.496  0.6620  1.6160 -0.9285
14731TIP3    H265685   2.992   1.154   2.421  0.1931  1.8804 -1.8302
14732TIP3   OH265686   5.436   5.582  11.232  0.6594 -0.7335  0.3235
14732TIP3    H165687   5.451   5.676  11.241 -1.2870 -0.4869  1.5343
14732TIP3    H265688   5.377   5.560  11.304  0.2867 -2.7034 -0.5188
14733TIP3   OH265689   0.570   6.765  16.461  0.0561 -0.4965  0.1717
14733TIP3    H165690   0.545   6.846  16.504  2.7528  1.3496 -1.4083
14733TIP3    H265691   0.492   6.736  16.414 -1.1586  0.7743  1.3603
14734TIP3   OH265692   3.583   4.925  13.005 -0.0730 -0.0285 -0.1778
14734TIP3    H165693   3.502   4.966  13.035  0.7491  1.5340  0.0064
14734TIP3    H265694   3.575   4.923  12.910 -1.3647 -2.2033 -0.1103
14735TIP3   OH265695   1.021   2.291  13.403 -0.2386 -0.1877 -0.2656
14735TIP3    H165696   1.114   2.270  13.396 -0.3989 -1.0824  0.1386
14735TIP3    H265697   1.018   2.386  13.408  0.5239 -0.0162 -2.2064
14736TIP3   OH265698   2.399   0.627   3.738  0.0160 -0.6578  0.0796
14736TIP3    H165699   2.310   0.650   3.712  0.0478 -0.4588  0.1457
14736TIP3    H265700   2.438   0.590   3.658 -0.7571 -2.6732  0.5640
14737TIP3   OH265701   2.717   6.592   0.778 -0.5073 -0.4024  0.6819
14737TIP3    H165702   2.804   6.627   0.797 -0.6532 -0.3639  1.3214
14737TIP3    H265703   2.733   6.515   0.723 -0.1479  0.2726 -0.1761
14738TIP3   OH265704   4.688   5.263  15.651  0.4923  0.3149 -0.5417
14738TIP3    H165705   4.731   5.232  15.731  2.7693 -0.5861 -2.0346
14738TIP3    H265706   4.717   5.353  15.642  0.6734  0.2476 -0.6342
14739TIP3   OH265707   1.904   4.411   1.617  0.3908 -0.2031  0.2920
14739TIP3    H165708   1.850   4.371   1.686  1.0988 -0.6156  0.6163
14739TIP3    H265709   1.908   4.344   1.548  2.1869 -1.0369  1.1436
14740TIP3   OH265710   1.908   5.937  12.641 -0.5842  0.4192 -0.2306
14740TIP3    H165711   1.886   5.938  12.547  1.1350 -0.5986 -0.7026
14740TIP3    H265712   1.948   5.851  12.654  5.1183  2.6460 -0.1096
14741TIP3   OH265713   5.312   2.058  12.706  0.0507 -0.4928 -0.3748
14741TIP3    H165714   5.279   2.053  12.796  0.2868  0.6396 -0.2065
14741TIP3    H265715   5.403   2.085  12.716 -0.1121  0.3216 -0.9669
14742TIP3   OH265716   4.317   0.355   0.635 -0.1894 -0.0406  0.1218
14742TIP3    H165717   4.394   0.322   0.682  0.0451  0.5194  0.1409
14742TIP3    H265718   4.301   0.442   0.673 -1.6519 -0.6861  1.0599
14743TIP3   OH265719   3.142   1.895  14.953  0.3720  0.1511 -0.0118
14743TIP3    H165720   3.170   1.962  15.015 -0.0325 -0.6585  1.0755
14743TIP3    H265721   3.092   1.943  14.887  0.9569  1.0491  0.1679
14744TIP3   OH265722   4.371   3.954   5.718  0.0589 -0.4360  0.3995
14744TIP3    H165723   4.441   4.012   5.747  1.2696 -0.6695 -1.8139
14744TIP3    H265724   4.320   4.007   5.656 -0.3814 -0.9306  0.3318
14745TIP3   OH265725   6.837   1.953  12.315  0.0448  0.5610  0.0432
14745TIP3    H165726   6.916   1.927  12.363  0.9158  1.5175 -0.8455
14745TIP3    H265727   6.777   1.984  12.383  0.6416  0.3817  0.6633
14746TIP3   OH265728   4.394   1.068  13.597 -0.3097  0.1327 -0.0163
14746TIP3    H165729   4.485   1.062  13.569  0.0126 -1.6352  1.2666
14746TIP3    H265730   4.345   1.024  13.527 -0.2471  1.2564 -0.8029
14747TIP3   OH265731   1.058   4.258  16.596  0.5342 -0.5856 -0.2433
14747TIP3    H165732   1.038   4.199  16.668 -1.9301 -0.6602 -0.8933
14747TIP3    H265733   1.042   4.346  16.632 -1.2727 -0.6507 -0.7988
14748TIP3   OH265734   4.548   2.957  15.064 -0.3483 -0.2358  0.0896
14748TIP3    H165735   4.487   2.969  14.991 -0.0841 -0.3521 -0.1562
14748TIP3    H265736   4.526   2.871  15.099  0.8743 -1.1239 -1.1829
14749TIP3   OH265737   2.720   0.076  14.954 -0.4050  0.7661  0.8451
14749TIP3    H165738   2.680  -0.011  14.948 -0.0235  0.6928 -2.8141
14749TIP3    H265739   2.813   0.059  14.966 -0.2803  0.6024 -0.2324
14750TIP3   OH265740   4.728   3.544  15.893 -0.1572  0.4884  0.1926
14750TIP3    H165741   4.698   3.583  15.975 -1.1842  0.6124 -0.2373
14750TIP3    H265742   4.649   3.509  15.852  0.4968 -0.4833 -0.2644
14751TIP3   OH265743   2.044   5.428  12.483  0.5500  0.2020  0.3504
14751TIP3    H165744   1.983   5.442  12.555 -0.1150  1.1629 -0.3690
14751TIP3    H265745   2.130   5.453  12.518  0.4107 -0.3913  1.1305
14752TIP3   OH265746   0.649   3.540   5.054 -0.2609  0.3961  0.0823
14752TIP3    H165747   0.669   3.459   5.009 -2.0688 -0.2133  0.2984
14752TIP3    H265748   0.702   3.537   5.134  0.5928  0.0265 -0.4826
14753TIP3   OH265749   6.194   3.098  16.778  0.1428 -0.3746  0.1251
14753TIP3    H165750   6.253   3.054  16.840  0.6530  0.2276  0.0821
14753TIP3    H265751   6.111   3.051  16.786  0.4031 -0.7385  0.7699
14754TIP3   OH265752   2.427   5.774  11.770 -0.2515  0.5994 -0.2120
14754TIP3    H165753   2.492   5.721  11.723 -1.1668 -0.1104 -0.7185
14754TIP3    H265754   2.349   5.772  11.714 -1.3447 -0.1617  1.2601
14755TIP3   OH265755   0.606   2.091  15.467 -0.1411 -1.1118 -0.0488
14755TIP3    H165756   0.700   2.071  15.465  0.0229 -0.5051  0.7739
14755TIP3    H265757   0.591   2.123  15.556 -0.9341 -0.2828 -0.4626
14756TIP3   OH265758   3.046   1.658   4.113  0.3241  0.0283  0.3127
14756TIP3    H165759   3.114   1.630   4.175 -0.5302 -0.4766  1.0526
14756TIP3    H265760   3.020   1.745   4.143  0.9177  0.4021 -0.2230
14757TIP3   OH265761   3.810   0.806   4.806 -0.2697  0.1654  0.3123
14757TIP3    H165762   3.875   0.748   4.845  5.5836  4.2462 -1.9247
14757TIP3    H265763   3.803   0.777   4.715 -3.3140 -1.2278  0.8437
14758TIP3   OH265764   6.511   6.518   5.708  0.2780  0.4525 -0.6687
14758TIP3    H165765   6.432   6.492   5.661  0.4049  1.1382 -1.2809
14758TIP3    H265766   6.512   6.614   5.702  1.4882  0.4323 -1.2389
14759TIP3   OH265767   5.295   3.605  12.120  0.2538  0.3970 -0.0505
14759TIP3    H165768   5.202   3.591  12.101  0.3770 -0.0775 -0.3374
14759TIP3    H265769   5.297   3.635  12.211 -0.4718  4.2665 -1.1389
14760TIP3   OH265770   4.723   6.730   4.871 -0.1421  0.0340  0.1383
14760TIP3    H165771   4.730   6.669   4.945  3.0657 -0.2048 -0.2437
14760TIP3    H265772   4.769   6.686   4.800  0.0463  1.8357 -0.8926
14761TIP3   OH265773   2.546   6.641  12.186  0.1315 -0.1420  0.2644
14761TIP3    H165774   2.482   6.711  12.173 -0.2689 -0.6665 -0.6921
14761TIP3    H265775   2.551   6.597  12.101  2.3272  0.3253  0.0926
14762TIP3   OH265776   3.985   0.637  13.313 -0.2035  0.0077 -0.1505
14762TIP3    H165777   3.936   0.714  13.341  0.1568 -0.0310  0.6159
14762TIP3    H265778   4.077   0.665  13.315 -0.1775  0.1879 -1.9098
14763TIP3   OH265779   0.436   4.359  16.275  0.3840 -0.2821 -0.3710
14763TIP3    H165780   0.372   4.422  16.244 -2.2281 -2.7282 -0.3921
14763TIP3    H265781   0.431   4.286  16.213  4.1700 -0.1275 -1.0648
14764TIP3   OH265782   2.305   0.291   3.675  0.4114  0.2782 -0.2737
14764TIP3    H165783   2.359   0.286   3.596  1.3827 -1.6364  0.4391
14764TIP3    H265784   2.218   0.264   3.647  0.5608  0.3741 -0.8483
14765TIP3   OH265785   4.549   4.142  10.434  0.8086 -0.3428 -0.3513
14765TIP3    H165786   4.604   4.082  10.483 -0.4344  0.0370  1.6048
14765TIP3    H265787   4.497   4.086  10.376 -0.3476 -1.2062  1.4582
14766TIP3   OH265788   1.650   1.474   0.616 -0.4676  0.1071 -0.4721
14766TIP3    H165789   1.582   1.424   0.569 -0.6858  0.9594 -1.0773
14766TIP3    H265790   1.636   1.565   0.590  0.3742  0.4057  0.0718
14767TIP3   OH265791   3.912   6.149  13.553  0.1643  0.3602  0.3677
14767TIP3    H165792   3.951   6.113  13.474 -0.8535 -3.0789  1.2784
14767TIP3    H265793   3.983   6.199  13.594  0.8397  1.8179 -2.3803
14768TIP3   OH265794   2.438   1.717   1.144  0.5528  0.6310  0.4503
14768TIP3    H165795   2.512   1.658   1.143  0.4545  0.5129  0.1739
14768TIP3    H265796   2.368   1.668   1.188  0.1096  0.1017 -0.8081
14769TIP3   OH265797   0.089   2.289  11.548  0.2717 -0.1187 -0.4030
14769TIP3    H165798   0.095   2.381  11.524 -0.7033 -0.2790 -1.3530
14769TIP3    H265799   0.018   2.255  11.494 -1.3637 -0.7516  1.9693
14770TIP3   OH265800   3.596   6.275  12.695 -0.4489 -0.0634 -0.0550
14770TIP3    H165801   3.651   6.254  12.770 -0.5698 -1.8559 -0.4407
14770TIP3    H265802   3.604   6.371  12.686  1.3666 -0.0882  0.8411
14771TIP3   OH265803   5.612   4.829  11.870  0.6277  0.4169 -0.0115
14771TIP3    H165804   5.542   4.765  11.876  0.3542  0.7783  0.8005
14771TIP3    H265805   5.688   4.786  11.909  0.1885  0.9178  1.4506
14772TIP3   OH265806   0.036   1.781  16.520  0.3141  0.1364 -0.1976
14772TIP3    H165807   0.037   1.828  16.603  1.1511  0.6814 -0.5067
14772TIP3    H265808   0.128   1.776  16.494  0.1083 -0.5227 -0.8124
14773TIP3   OH265809   6.410   2.560   4.905 -0.6283 -0.2117 -0.2731
14773TIP3    H165810   6.400   2.633   4.966 -0.9632 -0.0047 -0.5709
14773TIP3    H265811   6.499   2.527   4.921 -1.0177 -0.7370  0.9481
14774TIP3   OH265812   2.854   5.089   2.124 -0.0348 -0.4173  0.3201
14774TIP3    H165813   2.871   5.025   2.193  0.7678 -0.0586  0.4668
14774TIP3    H265814   2.759   5.103   2.127 -0.1770 -1.3570  0.4892
14775TIP3   OH265815   5.181   0.158   6.171 -0.4898  0.3015  0.0891
14775TIP3    H165816   5.170   0.126   6.260 -2.1033  1.6050  0.3985
14775TIP3    H265817   5.276   0.160   6.157 -0.0808  2.0606  2.5260
14776TIP3   OH265818   3.215   4.915  16.234 -0.2511 -0.4551 -0.8007
14776TIP3    H165819   3.244   4.910  16.325 -0.7085  0.3862 -0.6010
14776TIP3    H265820   3.199   5.008  16.219  0.9733 -0.4131 -2.1063
14777TIP3   OH265821   0.867   6.465  11.676  0.2739  0.1737  0.3980
14777TIP3    H165822   0.844   6.388  11.624 -2.2489  0.7436  0.5336
14777TIP3    H265823   0.893   6.531  11.612  0.3805 -0.1509  0.1095
14778TIP3   OH265824   3.725   5.529  10.951 -0.3232 -0.3843 -0.6071
14778TIP3    H165825   3.758   5.449  10.909  1.5493 -0.8297  1.4817
14778TIP3    H265826   3.789   5.596  10.926 -0.0291 -0.3284  0.2597
14779TIP3   OH265827   4.137   0.527   5.870  0.5198 -0.0772 -0.0419
14779TIP3    H165828   4.140   0.431   5.869  0.5122 -0.0803 -0.8113
14779TIP3    H265829   4.114   0.550   5.960  1.4251 -0.7703  0.3809
14780TIP3   OH265830   5.117   3.690  13.292  0.6751 -0.3077 -0.2204
14780TIP3    H165831   5.111   3.705  13.198  1.7044  0.8283 -0.1249
14780TIP3    H265832   5.106   3.595  13.302  0.3334 -0.4158 -1.4512
14781TIP3   OH265833   5.851   4.340   2.684 -0.1743  0.4630  0.6975
14781TIP3    H165834   5.840   4.346   2.779  0.4184 -1.5969  0.9473
14781TIP3    H265835   5.918   4.272   2.672 -2.0393 -1.1544 -1.2366
14782TIP3   OH265836   0.071   4.922   6.595  0.0971  0.0481 -0.2404
14782TIP3    H165837   0.124   5.000   6.612  0.4235 -0.0405 -0.8188
14782TIP3    H265838   0.003   4.924   6.663  1.0862 -0.0591  0.7867
14783TIP3   OH265839   0.183   4.618  12.855  0.7502 -0.6314  0.3474
14783TIP3    H165840   0.113   4.580  12.801  0.9957 -2.3748  1.1884
14783TIP3    H265841   0.225   4.682  12.798  1.2134 -2.6138 -1.6936
14784TIP3   OH265842   4.627   5.960   1.611 -0.0148  0.2168  0.1243
14784TIP3    H165843   4.631   5.869   1.639 -0.6667  0.0599 -0.2785
14784TIP3    H265844   4.604   5.956   1.518 -4.7173  0.8439  1.0180
14785TIP3   OH265845   6.063   4.306  11.877  0.0819 -0.1826 -0.0764
14785TIP3    H165846   6.077   4.246  11.950  0.8710  0.4636  0.3222
14785TIP3    H265847   6.041   4.390  11.918 -0.0420  0.0483 -0.5997
14786TIP3   OH265848   5.416   0.328  12.741 -0.0470  0.0222 -0.0658
14786TIP3    H165849   5.503   0.359  12.714  0.5560  0.3144  2.0480
14786TIP3    H265850   5.423   0.316  12.835 -2.6489  1.1598  0.3555
14787TIP3   OH265851   1.921   3.006   1.962  0.1513  0.4686  0.2489
14787TIP3    H165852   1.956   3.083   2.007 -0.9815  1.9538 -1.2876
14787TIP3    H265853   1.986   2.986   1.895  0.6830 -0.2629  0.9584
14788TIP3   OH265854   5.962   5.308  14.493 -0.4105 -0.1374  0.3895
14788TIP3    H165855   5.945   5.226  14.446  1.6906 -0.5255  0.2130
14788TIP3    H265856   6.010   5.362  14.431 -3.2854  2.0220 -0.1266
14789TIP3   OH265857   3.865   3.425   3.863 -0.4523  0.7881 -0.1960
14789TIP3    H165858   3.941   3.472   3.898 -0.7551  0.4315  0.9776
14789TIP3    H265859   3.896   3.336   3.850 -0.7372  0.5730  0.5546
14790TIP3   OH265860   0.826   0.799  13.005  0.1038 -0.0190  0.5124
14790TIP3    H165861   0.908   0.763  12.972  0.2556  1.1423 -0.4210
14790TIP3    H265862   0.818   0.884  12.962 -1.7647 -0.2651  0.2908
14791TIP3   OH265863   6.655   2.281   2.624  0.5902  0.3749 -0.0520
14791TIP3    H165864   6.573   2.313   2.587 -0.7958 -2.1218  0.6394
14791TIP3    H265865   6.691   2.224   2.556  0.6525 -0.2268  0.4889
14792TIP3   OH265866   6.141   1.368  10.378  0.6487 -0.2458  0.3670
14792TIP3    H165867   6.128   1.454  10.339 -1.4167 -0.7698 -0.2343
14792TIP3    H265868   6.236   1.357  10.383  0.9488  1.3000 -1.2132
14793TIP3   OH265869   3.256   3.494   0.628 -0.6532 -0.4324  0.2186
14793TIP3    H165870   3.332   3.514   0.682 -0.0031 -0.3119 -0.7200
14793TIP3    H265871   3.192   3.561   0.652  0.4956  1.1209 -0.8807
14794TIP3   OH265872   5.583   1.394  13.572  0.4879 -0.5427 -0.2211
14794TIP3    H165873   5.490   1.408  13.590  1.1502  2.1492  1.8362
14794TIP3    H265874   5.604   1.460  13.506  1.3606  0.5752  1.1090
14795TIP3   OH265875   0.988   2.447   1.868 -0.0335  0.0852 -0.4857
14795TIP3    H165876   0.900   2.469   1.836 -0.1864 -1.3797 -1.1445
14795TIP3    H265877   1.025   2.531   1.895 -2.1217  0.6051  1.1039
14796TIP3   OH265878   1.067   0.559   3.545  0.2064  0.1918  0.7730
14796TIP3    H165879   1.086   0.523   3.631 -0.4427 -1.6504  0.1923
14796TIP3    H265880   0.983   0.519   3.520 -0.0682  1.3987 -0.3300
14797TIP3   OH265881   0.912   1.352   4.232  0.2699 -0.1614 -0.1171
14797TIP3    H165882   0.945   1.332   4.145 -0.0241  3.9448 -1.3860
14797TIP3    H265883   0.817   1.338   4.225  0.3100 -0.3544 -0.2855
14798TIP3   OH265884   6.726   0.908  13.609 -0.1302  0.1501 -0.0703
14798TIP3    H165885   6.638   0.913  13.645 -0.7880 -1.2840 -1.3651
14798TIP3    H265886   6.768   0.990  13.635 -2.3468  1.5648 -0.7211
14799TIP3   OH265887   0.633   0.796   6.857 -0.2970  0.1319  0.1630
14799TIP3    H165888   0.726   0.808   6.840 -0.7293  0.5970 -2.1736
14799TIP3    H265889   0.591   0.872   6.817 -1.7762 -0.7450 -0.0312
14800TIP3   OH265890   0.684   1.816  13.454  0.0899 -0.1504  0.2592
14800TIP3    H165891   0.671   1.899  13.410  0.0820  0.4358  1.3391
14800TIP3    H265892   0.776   1.795  13.440 -0.1192 -0.4409 -0.8000
14801TIP3   OH265893   4.284   1.685  12.722  0.4531 -0.3078 -0.6279
14801TIP3    H165894   4.318   1.682  12.633 -0.4713 -1.0201 -0.9781
14801TIP3    H265895   4.189   1.693  12.711  0.3992  0.4994  0.3036
14802TIP3   OH265896   4.857   3.087   5.394  0.2229 -0.1777 -0.0101
14802TIP3    H165897   4.768   3.086   5.430 -0.8475 -1.9041 -2.4666
14802TIP3    H265898   4.854   3.151   5.323  1.3513  0.7240  0.7149
14803TIP3   OH265899   2.662   3.551  16.160 -0.5211  0.0396  0.5529
14803TIP3    H165900   2.625   3.476  16.207  0.5783 -0.3308  0.8809
14803TIP3    H265901   2.588   3.610  16.146 -1.0362 -0.1705  2.1186
14804TIP3   OH265902   0.949   4.134   0.502 -0.0855  0.0301  0.5165
14804TIP3    H165903   0.929   4.200   0.569 -2.2792 -1.8403  1.8544
14804TIP3    H265904   0.886   4.151   0.432 -0.7223 -0.6388  0.9070
14805TIP3   OH265905   5.277   3.309   4.545  0.2333 -0.1924 -0.0371
14805TIP3    H165906   5.271   3.367   4.621 -2.4056  0.6366 -0.7925
14805TIP3    H265907   5.368   3.279   4.545  0.9033  1.6148  2.0821
14806TIP3   OH265908   0.213   1.479  16.384  0.5278  0.1330 -0.1336
14806TIP3    H165909   0.187   1.497  16.294  1.1858  0.6366 -0.2234
14806TIP3    H265910   0.132   1.451  16.427  0.0005  0.9152 -0.6104
14807TIP3   OH265911   2.923   3.023  16.349  0.1708 -0.4968 -0.4089
14807TIP3    H165912   2.938   2.929  16.357 -0.3298 -0.4131  3.6474
14807TIP3    H265913   2.829   3.031  16.332 -0.0497 -0.7417  0.6530
14808TIP3   OH265914   3.129   2.420   5.307 -0.3132 -0.0381 -0.1726
14808TIP3    H165915   3.129   2.457   5.395  3.0898  0.9834 -0.4488
14808TIP3    H265916   3.168   2.488   5.252 -1.6808 -0.9139 -2.3960
14809TIP3   OH265917   2.085   1.982  11.078 -0.3721 -0.5121 -0.0741
14809TIP3    H165918   2.009   2.017  11.124  0.2050 -0.5848  0.9716
14809TIP3    H265919   2.060   1.893  11.054 -1.2055 -0.0003 -1.2033
14810TIP3   OH265920   0.056   1.371  14.231  0.2209 -0.7817  0.7095
14810TIP3    H165921   0.107   1.295  14.204  1.3154 -0.3504  1.4839
14810TIP3    H265922   0.089   1.393  14.318  0.9606  1.4572 -0.0708
14811TIP3   OH265923   6.491   1.596  11.527 -0.2479  0.6876  0.5302
14811TIP3    H165924   6.402   1.606  11.494  0.5778 -0.2490 -2.3061
14811TIP3    H265925   6.526   1.685  11.527 -0.1552  0.7282 -1.8344
14812TIP3   OH265926   5.714   5.038   4.532 -0.5764 -0.3661  0.3008
14812TIP3    H165927   5.622   5.011   4.525 -0.4245 -0.5842 -1.0480
14812TIP3    H265928   5.729   5.095   4.457  0.4594 -0.5155  0.3745
14813TIP3   OH265929   0.826   1.965  10.652 -0.3439 -0.6586 -0.2659
14813TIP3    H165930   0.906   2.016  10.638 -1.0641  0.9105  1.0647
14813TIP3    H265931   0.805   1.978  10.744 -2.6273 -0.2915 -0.7785
14814TIP3   OH265932   5.492   5.586   2.846 -0.4912  0.2076 -0.9397
14814TIP3    H165933   5.442   5.667   2.835 -1.6613 -0.5955 -1.7181
14814TIP3    H265934   5.430   5.524   2.885  0.4084 -0.3093 -0.2872
14815TIP3   OH265935   4.442   1.521   1.253  0.3970  0.7508 -0.4841
14815TIP3    H165936   4.437   1.587   1.323  2.0803  1.0876 -0.6393
14815TIP3    H265937   4.481   1.445   1.296 -0.7471  0.1292 -0.5152
14816TIP3   OH265938   1.524   3.432   3.211  0.5269  0.3824 -0.0247
14816TIP3    H165939   1.491   3.502   3.267 -1.7839 -0.8512  0.3178
14816TIP3    H265940   1.615   3.420   3.237  0.6805  2.5510  0.5867
14817TIP3   OH265941   1.206   2.697   4.627  0.3890 -0.3396  0.2377
14817TIP3    H165942   1.232   2.787   4.648 -0.7569 -0.0113  0.2773
14817TIP3    H265943   1.111   2.695   4.639  0.1416 -1.0683 -1.5195
14818TIP3   OH265944   2.190   1.504  13.787 -0.1319  0.2389  0.5494
14818TIP3    H165945   2.188   1.557  13.866  2.4105  0.4360  0.5603
14818TIP3    H265946   2.188   1.414  13.819  3.1191  0.2516  1.1053
14819TIP3   OH265947   0.139   5.604   1.169  0.0973 -0.4389  0.9235
14819TIP3    H165948   0.121   5.660   1.093  0.3483 -2.1393 -0.4698
14819TIP3    H265949   0.234   5.602   1.175  0.0759 -0.2958  1.2805
14820TIP3   OH265950   0.572   3.207   2.189  0.3441  0.3536 -0.6428
14820TIP3    H165951   0.477   3.216   2.179  0.4518 -0.1093 -2.2013
14820TIP3    H265952   0.583   3.127   2.240 -0.0694 -0.5518 -1.9328
14821TIP3   OH265953   0.725   6.348  15.726  0.7397  0.1956 -0.4590
14821TIP3    H165954   0.778   6.268  15.723  0.5328  0.0230  0.4013
14821TIP3    H265955   0.780   6.414  15.684  2.0713  0.2566  1.2714
14822TIP3   OH265956   5.059   3.859  12.438 -0.1881  0.1348  0.0378
14822TIP3    H165957   5.038   3.946  12.470  1.3211 -0.1095  1.8897
14822TIP3    H265958   4.974   3.815  12.430 -1.0031  1.8635 -1.3463
14823TIP3   OH265959   5.185   2.624   1.417  0.3664 -0.1940  0.0922
14823TIP3    H165960   5.105   2.635   1.366 -1.3189 -1.6166  2.2691
14823TIP3    H265961   5.250   2.594   1.352 -0.4150  2.2203 -1.9561
14824TIP3   OH265962   3.946   3.496   5.003  0.1190  0.4514 -0.0038
14824TIP3    H165963   3.981   3.580   4.973  3.6425 -0.3145  1.4002
14824TIP3    H265964   3.957   3.498   5.098 -1.7954 -0.7952  0.2908
14825TIP3   OH265965   0.100   3.044   0.657  0.5373 -0.3130  0.3238
14825TIP3    H165966   0.028   2.991   0.693 -0.4808  2.1591  2.1867
14825TIP3    H265967   0.088   3.038   0.563 -2.2660  0.0948  0.5538
14826TIP3   OH265968   5.946   5.512   4.866 -0.0867 -0.0549  0.1200
14826TIP3    H165969   6.034   5.477   4.855  0.4569  1.4044 -0.3678
14826TIP3    H265970   5.890   5.454   4.815  0.8850  0.2165 -1.2926
14827TIP3   OH265971   1.976   4.379  12.787  0.2482 -0.2860  0.6431
14827TIP3    H165972   1.980   4.446  12.719 -0.0130 -0.2327  0.6779
14827TIP3    H265973   1.945   4.425  12.864  0.5487 -0.3461  0.8012
14828TIP3   OH265974   3.783   2.060  15.149 -0.0350  0.2046  0.0297
14828TIP3    H165975   3.818   2.053  15.060 -0.8249  0.1912 -0.2854
14828TIP3    H265976   3.763   2.153  15.160 -1.7565 -0.0654 -0.5271
14829TIP3   OH265977   2.442   4.487   5.471 -0.3028 -0.2676 -0.0846
14829TIP3    H165978   2.413   4.570   5.511 -1.8219 -0.5763 -0.4616
14829TIP3    H265979   2.360   4.444   5.446  0.5104 -1.4902 -0.6939
14830TIP3   OH265980   3.101   4.153  14.301  0.3995 -0.5396  0.2058
14830TIP3    H165981   3.160   4.206  14.247  0.5246  0.4612  1.3029
14830TIP3    H265982   3.015   4.164  14.259  0.5862 -0.1888 -0.0909
14831TIP3   OH265983   3.482   3.296  12.199 -0.3752 -0.4413 -0.2781
14831TIP3    H165984   3.399   3.325  12.238 -0.3031 -0.8179  0.1596
14831TIP3    H265985   3.497   3.358  12.128  0.2398  1.1668  1.1915
14832TIP3   OH265986   1.288   4.541   1.383  0.2610  0.1326 -0.3380
14832TIP3    H165987   1.362   4.563   1.439 -0.0653 -0.4426  0.3479
14832TIP3    H265988   1.316   4.563   1.295  1.2561 -0.1015 -0.0886
14833TIP3   OH265989   4.259   1.159   5.629 -0.2550  1.1551 -0.0257
14833TIP3    H165990   4.232   1.199   5.712 -1.6684  1.2163 -0.5050
14833TIP3    H265991   4.182   1.164   5.573  0.2333 -0.1753 -0.8715
14834TIP3   OH265992   6.561   5.019   5.754 -0.0553 -0.1047  0.0233
14834TIP3    H165993   6.575   5.040   5.846  0.4858 -0.6456  0.0752
14834TIP3    H265994   6.640   5.051   5.710 -0.6632  0.8761 -0.3822
14835TIP3   OH265995   6.305   1.108   3.827  0.3355  0.0913  0.3442
14835TIP3    H165996   6.311   1.089   3.734  0.5616  0.4788  0.2736
14835TIP3    H265997   6.216   1.084   3.852  0.2022  0.2062 -0.0239
14836TIP3   OH265998   1.603   4.114   4.203 -0.8501  0.1080 -0.1428
14836TIP3    H165999   1.522   4.068   4.182  0.2073 -1.7155 -0.5371
14836TIP3    H266000   1.583   4.206   4.190 -3.1308 -0.2022  0.7979
14837TIP3   OH266001   2.432   5.509   4.126 -0.2493 -0.1818  0.3050
14837TIP3    H166002   2.476   5.443   4.180 -0.2367 -0.8159 -0.4640
14837TIP3    H266003   2.420   5.583   4.185  0.2026 -0.6757  1.0433
14838TIP3   OH266004   2.135   6.324   0.625 -0.2636  0.0797 -0.3297
14838TIP3    H166005   2.135   6.270   0.704 -0.2536  0.0104 -0.3772
14838TIP3    H266006   2.207   6.289   0.572 -1.0651 -0.7008 -0.9414
14839TIP3   OH266007   2.974   4.938   2.342 -0.3466  0.2086 -0.4696
14839TIP3    H166008   3.053   4.919   2.392  1.4420  1.1504 -2.7582
14839TIP3    H266009   2.915   4.979   2.405  0.3822 -1.7760  1.6396
14840TIP3   OH266010   2.507   4.878   5.228  0.1229 -0.4551  0.4588
14840TIP3    H166011   2.592   4.834   5.236  0.4452 -0.1420 -0.9696
14840TIP3    H266012   2.443   4.806   5.229  0.4892 -0.7873  0.3581
14841TIP3   OH266013   2.827   6.007   1.029 -0.5912 -0.6438  0.0013
14841TIP3    H166014   2.739   5.970   1.035 -0.5699 -0.6549  0.2498
14841TIP3    H266015   2.813   6.099   1.006 -0.9538  0.7643  4.7763
14842TIP3   OH266016   4.501   0.456   5.777  0.2875  0.4422 -0.0883
14842TIP3    H166017   4.428   0.506   5.739 -0.4245  0.9472  1.8280
14842TIP3    H266018   4.483   0.365   5.753  0.4279  0.8156 -1.7733
14843TIP3   OH266019   3.898   3.351   0.650 -0.0486  0.2495  0.4279
14843TIP3    H166020   3.911   3.397   0.567 -1.0376  0.1641  0.2060
14843TIP3    H266021   3.854   3.270   0.626 -0.5090  0.3046  1.0385
14844TIP3   OH266022   5.379   2.435  16.326  0.2956 -0.1852  0.5059
14844TIP3    H166023   5.312   2.367  16.318  1.0383 -0.7965 -0.8337
14844TIP3    H266024   5.456   2.389  16.359  0.9541 -0.1388 -0.8712
14845TIP3   OH266025   4.366   6.177   4.504  0.1287 -0.3827  0.1344
14845TIP3    H166026   4.345   6.268   4.525 -1.1464 -0.8766  1.2122
14845TIP3    H266027   4.281   6.131   4.510  1.1074 -2.0858  2.1430
14846TIP3   OH266028   0.197   1.177  15.879 -0.4910 -0.2913 -0.1564
14846TIP3    H166029   0.239   1.092  15.885  1.6504  0.7702  1.3220
14846TIP3    H266030   0.116   1.161  15.831  0.5286 -2.8645 -1.1788
14847TIP3   OH266031   5.912   4.191  16.868 -0.3714 -0.6376  0.0790
14847TIP3    H166032   5.845   4.146  16.818  0.7602 -2.5215  0.1723
14847TIP3    H266033   5.867   4.266  16.907 -1.0664  1.7968 -4.6990
14848TIP3   OH266034   1.281   1.331   5.003 -0.2545  0.4794  0.2725
14848TIP3    H166035   1.228   1.376   5.068  0.4297 -0.0617  1.2283
14848TIP3    H266036   1.303   1.248   5.043 -0.5677 -0.2543 -1.0244
14849TIP3   OH266037   0.070   0.166   3.215 -0.0461  0.2812  0.3515
14849TIP3    H166038   0.087   0.183   3.308  0.1685 -1.6606  0.6986
14849TIP3    H266039  -0.004   0.105   3.215 -0.1198  0.3548 -0.7605
14850TIP3   OH266040   4.367   5.577   5.093  0.1038 -0.2729  0.1481
14850TIP3    H166041   4.280   5.611   5.117  0.2080 -0.4727  0.8114
14850TIP3    H266042   4.374   5.493   5.138  0.5028 -0.4284 -0.1937
14851TIP3   OH266043   0.216   0.089  11.013 -0.6837  0.0086  0.0585
14851TIP3    H166044   0.289   0.112  11.069 -0.6427 -1.4039  0.6250
14851TIP3    H266045   0.193   0.171  10.968  0.6365  0.6731  0.5472
14852TIP3   OH266046   0.846   3.447   1.479 -0.1965 -0.2364  0.5779
14852TIP3    H166047   0.884   3.360   1.465 -2.4787 -0.9283 -2.1713
14852TIP3    H266048   0.850   3.489   1.393 -0.0419  2.0432  1.6270
14853TIP3   OH266049   2.989   0.157   4.426 -0.3723 -0.2215 -0.1166
14853TIP3    H166050   3.006   0.147   4.332  0.9906  1.2322 -0.0751
14853TIP3    H266051   2.953   0.245   4.434  0.7597  0.1743  0.8507
14854TIP3   OH266052   2.846   4.006  12.610 -0.0785  0.2414 -0.6156
14854TIP3    H166053   2.849   4.102  12.607  1.7794  0.5110  3.3582
14854TIP3    H266054   2.757   3.985  12.636 -0.5995  0.8153 -1.8652
14855TIP3   OH266055   0.822   3.163  16.125 -0.7375 -0.0493  0.0956
14855TIP3    H166056   0.820   3.183  16.031  0.7505  0.1803  0.0815
14855TIP3    H266057   0.899   3.209  16.157  0.3236 -2.2426  0.8971
14856TIP3   OH266058   0.721   6.290   4.051  0.1007  0.3517 -0.4476
14856TIP3    H166059   0.677   6.356   3.997  1.5257  1.8504  0.1378
14856TIP3    H266060   0.770   6.340   4.115  0.9251 -1.3153  0.2968
14857TIP3   OH266061   0.339   5.255   1.578 -0.1531 -0.5673  0.1730
14857TIP3    H166062   0.414   5.314   1.585 -0.0502 -0.7388  0.5159
14857TIP3    H266063   0.264   5.314   1.566  0.1341 -0.4248 -1.0973
14858TIP3   OH266064   6.640   2.550   3.214  0.0540 -0.2297  0.3628
14858TIP3    H166065   6.682   2.543   3.128  2.0020 -1.1905  1.3327
14858TIP3    H266066   6.559   2.499   3.205  0.9637 -1.6036 -0.5061
14859TIP3   OH266067   4.972   5.922  12.335 -0.1518 -0.0526  0.6521
14859TIP3    H166068   4.908   5.935  12.405 -0.2305  0.4663  0.4864
14859TIP3    H266069   5.025   6.002  12.335  1.1774 -0.8885  1.4722
14860TIP3   OH266070   4.136   4.309  12.886 -0.3302 -0.4149 -0.2882
14860TIP3    H166071   4.184   4.354  12.817  2.1574 -1.7111  0.4721
14860TIP3    H266072   4.061   4.269  12.841  0.1645  0.3227 -1.8520
14861TIP3   OH266073   5.998   1.845   4.998 -0.0943  0.1301  0.5587
14861TIP3    H166074   6.005   1.758   4.959  0.2941 -0.2889  1.5441
14861TIP3    H266075   5.915   1.844   5.045 -0.3547  0.4914  0.1247
14862TIP3   OH266076   0.308   6.296  11.742  0.3584 -0.0563 -0.0063
14862TIP3    H166077   0.218   6.324  11.725  1.1516  2.5087 -0.4637
14862TIP3    H266078   0.308   6.272  11.835 -1.0544 -1.4119 -0.3194
14863TIP3   OH266079   0.285   4.854  16.999  0.5408 -0.4702 -0.0041
14863TIP3    H166080   0.213   4.876  17.058 -0.2274 -0.9109 -0.7617
14863TIP3    H266081   0.323   4.938  16.975 -1.9936  0.1426 -2.4042
14864TIP3   OH266082   6.140   6.661   3.389  0.5282  0.2006  0.0837
14864TIP3    H166083   6.053   6.661   3.349  0.9533  0.4447 -0.8780
14864TIP3    H266084   6.200   6.675   3.315  1.2374  2.4704  0.9918
14865TIP3   OH266085   0.759   3.274   4.984 -0.3326 -0.1370  0.1099
14865TIP3    H166086   0.796   3.240   4.903  0.0505 -1.3182  0.7516
14865TIP3    H266087   0.696   3.207   5.011 -1.1883  0.7198  0.2789
14866TIP3   OH266088   3.585   5.773  16.066  0.0996  0.0413  0.0528
14866TIP3    H166089   3.528   5.801  16.138  0.4826  1.0363 -0.0148
14866TIP3    H266090   3.538   5.798  15.987  0.6257  0.9148 -0.0034
14867TIP3   OH266091   1.227   3.820  14.892 -0.0958  0.0953  0.1988
14867TIP3    H166092   1.287   3.891  14.914  0.6228 -0.0111 -1.2991
14867TIP3    H266093   1.283   3.744  14.878 -0.6116 -0.1356 -0.7278
14868TIP3   OH266094   6.753   2.710  15.922 -0.5329 -0.4469  0.0008
14868TIP3    H166095   6.815   2.658  15.973  0.2780  0.6080  0.1140
14868TIP3    H266096   6.678   2.652  15.909  0.7577 -2.0192 -0.7717
14869TIP3   OH266097   3.211   1.909   2.324 -0.2289 -0.2001 -0.0025
14869TIP3    H166098   3.228   2.000   2.347 -3.4266  0.8648 -1.3588
14869TIP3    H266099   3.293   1.879   2.284  0.5860  2.3981 -0.4859
14870TIP3   OH266100   5.953   6.061   3.420  0.1316 -0.0951  0.5634
14870TIP3    H166101   5.867   6.047   3.461 -0.4274  0.1608 -0.4826
14870TIP3    H266102   5.936   6.127   3.352  0.7562 -1.3975 -0.9056
14871TIP3   OH266103   4.575   1.877   2.670 -0.3454  0.4599 -0.0760
14871TIP3    H166104   4.635   1.886   2.597 -1.9825 -1.0393 -1.7186
14871TIP3    H266105   4.631   1.854   2.745  1.2528  0.8008 -1.1200
14872TIP3   OH266106   3.503   1.078  13.828 -0.3596 -0.1844  0.4801
14872TIP3    H166107   3.427   1.123  13.864 -0.3633  0.8600 -0.7737
14872TIP3    H266108   3.533   1.134  13.756  1.4830 -0.6596  0.8195
14873TIP3   OH266109   6.349   2.795   3.854 -0.1132 -0.3485 -0.2634
14873TIP3    H166110   6.404   2.840   3.791  1.7570  0.1477  1.6044
14873TIP3    H266111   6.367   2.839   3.938 -2.9860 -0.5246  0.5463
14874TIP3   OH266112   2.098   6.283   0.012 -0.5648  0.0426 -0.2155
14874TIP3    H166113   2.028   6.265   0.075 -0.5195 -0.6180 -0.3391
14874TIP3    H266114   2.174   6.235   0.045  0.4739  2.3859  1.0295
14875TIP3   OH266115   1.764   1.032   6.125  0.4234 -0.6949 -0.4605
14875TIP3    H166116   1.742   0.991   6.042 -2.3458 -0.7485  0.2099
14875TIP3    H266117   1.692   1.009   6.183  0.5791  2.0704  0.9959
14876TIP3   OH266118   4.265   4.620  15.148 -0.6080  1.0132 -0.1017
14876TIP3    H166119   4.340   4.578  15.105 -0.2840  2.3142 -0.8729
14876TIP3    H266120   4.304   4.682  15.210 -1.0671 -0.9893  2.3522
14877TIP3   OH266121   6.107   5.145  12.803 -0.4670  0.5861 -0.7696
14877TIP3    H166122   6.166   5.220  12.793  0.3614 -0.1842 -1.8948
14877TIP3    H266123   6.035   5.163  12.742  1.3150 -0.9745 -3.5379
14878TIP3   OH266124   0.614   3.521   5.885 -0.6670 -0.5459  0.0998
14878TIP3    H166125   0.619   3.612   5.856 -0.8432 -0.5781 -0.0350
14878TIP3    H266126   0.603   3.526   5.980  0.2636 -0.4468  0.2077
14879TIP3   OH266127   2.101   4.003   3.700  0.4237  0.2384 -0.1139
14879TIP3    H166128   2.157   4.049   3.763  0.6984  0.4081 -0.4771
14879TIP3    H266129   2.016   4.048   3.706  0.1522 -0.3792  0.8430
14880TIP3   OH266130   1.467   0.168  10.762  0.4538  0.1948  0.0637
14880TIP3    H166131   1.560   0.147  10.762  0.3735 -0.2318  1.1655
14880TIP3    H266132   1.440   0.157  10.671  1.3127 -0.4374 -0.1291
14881TIP3   OH266133   4.682   1.116  15.458  0.5882  0.1522 -0.6248
14881TIP3    H166134   4.645   1.093  15.543  1.2543 -1.5621 -0.7611
14881TIP3    H266135   4.672   1.211  15.452  1.3437  0.4485  1.7646
14882TIP3   OH266136   3.028   6.110  13.403 -0.7769 -0.1562 -0.3643
14882TIP3    H166137   2.969   6.060  13.345 -0.5923 -1.4221  0.4892
14882TIP3    H266138   3.115   6.079  13.380 -0.4414  1.4444 -1.3607
14883TIP3   OH266139   4.335   6.601   4.095  0.5325  0.9666 -0.0974
14883TIP3    H166140   4.416   6.562   4.063 -0.2374  0.5694 -1.6765
14883TIP3    H266141   4.281   6.611   4.017 -1.3275  0.2982  1.0437
14884TIP3   OH266142   6.697   6.661   3.952 -0.5502 -0.0670 -0.5477
14884TIP3    H166143   6.647   6.615   4.020  0.8831 -0.3145  0.3755
14884TIP3    H266144   6.784   6.621   3.954  0.2879  1.6241 -0.7761
14885TIP3   OH266145   2.021   5.963  16.644  0.3002  0.3151 -1.1298
14885TIP3    H166146   2.017   5.876  16.683  1.1671  0.9716  0.4879
14885TIP3    H266147   2.099   5.962  16.588  0.3443  0.0754 -1.0620
14886TIP3   OH266148   2.697   3.953   3.183 -0.1734 -0.4098 -0.7124
14886TIP3    H166149   2.646   4.034   3.175 -0.2282 -0.5257 -1.6301
14886TIP3    H266150   2.783   3.981   3.212 -1.2882 -0.3688  3.0972
14887TIP3   OH266151   2.131   2.201  16.532  0.1759  0.3387 -0.1807
14887TIP3    H166152   2.174   2.199  16.446  1.0228 -0.4027  0.2441
14887TIP3    H266153   2.189   2.150  16.589 -0.6485  0.3673  0.7071
14888TIP3   OH266154   3.984   2.915   0.534  0.2655 -0.2590 -0.0014
14888TIP3    H166155   4.013   2.866   0.457 -1.5125  0.4723 -1.1819
14888TIP3    H266156   3.928   2.984   0.499  1.0865  1.4001  1.7908
14889TIP3   OH266157   5.408   4.570   4.643  0.1254 -0.3666 -0.4334
14889TIP3    H166158   5.438   4.487   4.680 -0.6289 -0.5804 -0.2706
14889TIP3    H266159   5.353   4.607   4.712 -0.2201 -0.1376 -0.8308
14890TIP3   OH266160   4.508   5.630   3.146 -0.3445 -0.2870 -0.4332
14890TIP3    H166161   4.435   5.606   3.088  0.9634 -1.1872 -1.7775
14890TIP3    H266162   4.586   5.609   3.096  0.8717 -1.1308  1.6866
14891TIP3   OH266163   4.017   1.261   3.471  0.0362  0.1678  0.1470
14891TIP3    H166164   4.082   1.234   3.536  1.7938  1.3409 -1.0304
14891TIP3    H266165   4.033   1.355   3.460 -0.3831  0.0431 -1.7784
14892TIP3   OH266166   6.523   0.044  16.159 -0.2069  0.4494 -0.2779
14892TIP3    H166167   6.539  -0.050  16.148 -2.0212  0.0452  0.1018
14892TIP3    H266168   6.485   0.052  16.246 -1.4502  1.3096 -0.8631
14893TIP3   OH266169   2.954   1.482   2.643 -0.0448  0.3756  1.1278
14893TIP3    H166170   2.947   1.391   2.672  0.3845  0.6695  2.2124
14893TIP3    H266171   3.039   1.511   2.676 -0.0295  1.0752  0.5001
14894TIP3   OH266172   2.223   4.685   2.986 -0.3149 -0.0135  0.1296
14894TIP3    H166173   2.171   4.737   2.925 -0.6689 -1.7510 -1.1270
14894TIP3    H266174   2.311   4.722   2.981 -0.7166  0.9327 -0.1496
14895TIP3   OH266175   6.595   6.429   3.097  0.3934  0.0702 -0.6834
14895TIP3    H166176   6.619   6.502   3.153 -0.1700 -0.4086  0.2047
14895TIP3    H266177   6.679   6.393   3.067  0.6718  1.5633 -1.8225
14896TIP3   OH266178   2.222   4.226  17.125  0.4654 -0.2149 -0.1438
14896TIP3    H166179   2.265   4.154  17.080 -1.5879 -1.3920 -0.3541
14896TIP3    H266180   2.184   4.186  17.203 -0.6528  0.6135 -0.2354
14897TIP3   OH266181   0.763   1.028  11.670 -0.5308  0.0364  0.2267
14897TIP3    H166182   0.755   1.016  11.765 -2.1190  0.3257  0.1648
14897TIP3    H266183   0.720   1.113  11.654 -0.4762 -0.1176 -0.7666
14898TIP3   OH266184   5.897   4.132   3.476 -0.4735  0.0667 -0.1474
14898TIP3    H166185   5.971   4.108   3.531 -1.3607 -1.1303  0.5598
14898TIP3    H266186   5.828   4.156   3.538 -1.3669 -0.9276 -0.7306
14899TIP3   OH266187   2.172   1.024   1.046 -0.1591 -0.2437  0.6836
14899TIP3    H166188   2.217   1.058   0.968  0.5074 -0.7684  0.8262
14899TIP3    H266189   2.085   1.063   1.043  0.2661  0.7057  0.3267
14900TIP3   OH266190   5.074   5.941  13.884  0.3170 -0.4272  0.8301
14900TIP3    H166191   5.090   5.962  13.976  1.6465 -0.3474  0.6085
14900TIP3    H266192   5.031   5.856  13.886  2.0741 -1.3606  1.4971
14901TIP3   OH266193   6.319   0.892  14.529  0.1455  0.0824 -0.2880
14901TIP3    H166194   6.302   0.829  14.599 -1.0589  0.0161 -0.6088
14901TIP3    H266195   6.246   0.880  14.468  0.7915  0.6304 -1.2002
14902TIP3   OH266196   4.165   1.017   4.183  0.2636 -0.5005  0.0878
14902TIP3    H166197   4.170   1.108   4.213  1.0593 -0.7718  0.8325
14902TIP3    H266198   4.221   0.969   4.244  0.4017 -1.3833 -0.7116
14903TIP3   OH266199   0.545   2.965   3.955  0.0134  0.5227  0.1479
14903TIP3    H166200   0.515   2.875   3.973  1.7191 -0.4463 -1.4777
14903TIP3    H266201   0.581   2.995   4.038  1.8211 -1.3678  0.1447
14904TIP3   OH266202   4.211   0.297  13.836 -0.3180  0.2845 -0.2620
14904TIP3    H166203   4.145   0.358  13.804 -0.5326  0.8023  1.1227
14904TIP3    H266204   4.219   0.232  13.766 -0.7290  1.3910 -1.3797
14905TIP3   OH266205   5.795   3.373   0.316 -0.0062  0.6464  0.0423
14905TIP3    H166206   5.775   3.283   0.290 -0.3771  1.3437 -2.3477
14905TIP3    H266207   5.876   3.367   0.365  0.7736 -0.8677 -1.3461
14906TIP3   OH266208   2.579   2.395   3.946 -0.0438  0.5367 -0.1041
14906TIP3    H166209   2.594   2.301   3.947 -0.2678  0.4810 -0.9652
14906TIP3    H266210   2.570   2.419   4.039 -1.4557 -0.5371  0.0754
14907TIP3   OH266211   0.110   6.771  14.691  0.0474  0.4415 -0.3046
14907TIP3    H166212   0.152   6.689  14.713  0.2200  0.8249  0.8656
14907TIP3    H266213   0.175   6.820  14.641  0.0579  0.0042 -0.7194
14908TIP3   OH266214   5.568   2.302  13.679  0.0086 -0.1388  0.1427
14908TIP3    H166215   5.630   2.312  13.606 -0.2215  1.2677  0.1226
14908TIP3    H266216   5.526   2.388  13.687 -0.6841 -0.5672  1.2970
14909TIP3   OH266217   1.855   6.043   0.178  0.0377 -0.5174 -0.0423
14909TIP3    H166218   1.867   6.137   0.188 -0.6351 -0.2945 -1.1729
14909TIP3    H266219   1.808   6.033   0.096  0.3210 -1.8639 -0.0714
14910TIP3   OH266220   4.463   4.523  12.872 -0.3044  1.0951 -0.8574
14910TIP3    H166221   4.448   4.429  12.867 -1.1490  1.2416 -1.2398
14910TIP3    H266222   4.480   4.540  12.965  1.1625  0.3924 -0.9668
14911TIP3   OH266223   3.211   6.509   5.848  0.2182  0.6109  0.4292
14911TIP3    H166224   3.186   6.439   5.788  1.1483  1.0584 -0.4897
14911TIP3    H266225   3.144   6.576   5.836  0.1106  0.4788  0.2901
14912TIP3   OH266226   0.020   0.364  17.003 -0.1629 -0.2178  0.5572
14912TIP3    H166227  -0.017   0.313  16.931  0.1049 -1.4516  1.2618
14912TIP3    H266228   0.064   0.438  16.960  1.5505 -1.8800 -0.7338
14913TIP3   OH266229   1.005   1.992  16.784 -0.5791 -0.9858  0.1016
14913TIP3    H166230   0.996   1.915  16.840  0.2583 -0.6379  0.7405
14913TIP3    H266231   1.048   1.959  16.705 -0.6444 -1.2494  0.1731
14914TIP3   OH266232   2.658   0.017  14.386  0.1222  0.3617 -0.0071
14914TIP3    H166233   2.646   0.010  14.481 -1.2090 -0.9581 -0.2478
14914TIP3    H266234   2.586   0.073  14.356 -0.2817 -0.3385 -0.3834
14915TIP3   OH266235   6.090   4.761  13.420  0.0169 -0.4967  0.0228
14915TIP3    H166236   6.074   4.774  13.513 -1.1331  1.4790 -0.3863
14915TIP3    H266237   6.082   4.849  13.382 -0.0848 -1.3265 -2.0047
14916TIP3   OH266238   3.451   2.766   1.441 -0.2722 -0.1243 -0.5061
14916TIP3    H166239   3.533   2.724   1.467 -0.7483 -0.8405 -0.1072
14916TIP3    H266240   3.466   2.797   1.352  0.1298 -1.0886 -0.7834
14917TIP3   OH266241   6.165   1.906  12.856 -0.1833  0.0792 -0.0123
14917TIP3    H166242   6.167   1.957  12.775 -0.1215  1.5677  0.8888
14917TIP3    H266243   6.223   1.832  12.838  1.4383  1.4173 -0.6924
14918TIP3   OH266244   0.089   4.691  14.045  0.3300 -0.0821  0.3444
14918TIP3    H166245   0.003   4.659  14.017  0.6348  0.0879 -0.8732
14918TIP3    H266246   0.146   4.614  14.041  0.5937  0.1371 -0.5318
14919TIP3   OH266247   4.282   2.962   2.258 -0.1321 -0.0832  0.3609
14919TIP3    H166248   4.294   3.043   2.308  0.2040 -0.5914  1.1295
14919TIP3    H266249   4.264   2.895   2.325 -0.2528 -0.6740 -0.2466
14920TIP3   OH266250   2.464   0.657  12.291 -0.7126 -0.2906  0.0831
14920TIP3    H166251   2.452   0.608  12.372  1.4351 -0.2770  0.4755
14920TIP3    H266252   2.422   0.742  12.309 -0.2876 -0.2926  1.1783
14921TIP3   OH266253   6.500   1.916  12.699 -0.6042 -0.4745  0.2606
14921TIP3    H166254   6.526   1.901  12.790  0.6332 -1.5657 -0.2387
14921TIP3    H266255   6.436   1.987  12.704  0.7787  0.7591  1.8054
14922TIP3   OH266256   1.542   0.974  11.022 -0.8104 -0.1083 -0.2246
14922TIP3    H166257   1.626   0.928  11.025 -1.0127 -0.4447  0.4176
14922TIP3    H266258   1.566   1.067  11.026 -0.2436  0.0669 -4.1256
14923TIP3   OH266259   0.558   6.720  11.213 -0.2600 -0.2992 -0.0633
14923TIP3    H166260   0.527   6.631  11.231 -1.0867  0.1123  0.6119
14923TIP3    H266261   0.643   6.725  11.256 -0.2021 -0.7674 -0.1192
14924TIP3   OH266262   1.865   2.820   2.846  0.0518 -0.4999 -0.3373
14924TIP3    H166263   1.889   2.727   2.837 -1.0990 -0.7524 -0.9689
14924TIP3    H266264   1.770   2.821   2.841 -0.0783  0.5333  1.6385
14925TIP3   OH266265   0.739   5.377  16.552  0.5792  0.3093  0.4674
14925TIP3    H166266   0.736   5.282  16.561 -0.3717  0.4071  1.3305
14925TIP3    H266267   0.826   5.395  16.517  0.6076 -0.9065 -0.1497
14926TIP3   OH266268   0.406   3.341   2.502 -0.0125 -0.5554  0.6514
14926TIP3    H166269   0.366   3.257   2.525  0.4344 -0.9326  0.0852
14926TIP3    H266270   0.422   3.384   2.586  0.1288 -1.2074  0.9653
14927TIP3   OH266271   0.416   5.078   5.609  0.8765  0.0725 -0.6086
14927TIP3    H166272   0.398   5.172   5.605  0.6407 -0.0007 -1.5213
14927TIP3    H266273   0.448   5.063   5.698 -0.5778  0.7407  0.0524
14928TIP3   OH266274   3.082   0.718  11.050  0.0548 -0.1465  0.7313
14928TIP3    H166275   3.079   0.807  11.083 -1.8333  0.3178 -0.5431
14928TIP3    H266276   2.991   0.688  11.052  0.5396 -1.7758  0.4144
14929TIP3   OH266277   5.194   1.330   0.938 -0.5419 -0.1564 -0.0934
14929TIP3    H166278   5.286   1.343   0.917  0.1491 -1.6528  1.7215
14929TIP3    H266279   5.170   1.407   0.990  0.3047 -0.7268  1.1763
14930TIP3   OH266280   2.279   0.573  12.596  0.2954  0.0019  0.3478
14930TIP3    H166281   2.273   0.645  12.659  1.7028  0.2128  0.2722
14930TIP3    H266282   2.231   0.604  12.519  2.1266  1.5220 -0.2473
14931TIP3   OH266283   5.983   4.645  17.177 -0.7277 -0.8009 -0.2842
14931TIP3    H166284   5.924   4.720  17.186 -1.1246 -1.2912  1.4749
14931TIP3    H266285   6.030   4.641  17.260  1.3365 -0.8360 -1.3747
14932TIP3   OH266286   3.629   4.896  16.115 -0.0227  0.2321 -0.0208
14932TIP3    H166287   3.688   4.878  16.042  1.5683 -1.0668  1.5077
14932TIP3    H266288   3.594   4.811  16.140 -1.9066  0.8710 -0.3050
14933TIP3   OH266289   6.363   0.268   1.089 -0.1685 -0.0184 -0.8367
14933TIP3    H166290   6.449   0.295   1.122 -0.3204  2.5104 -2.2321
14933TIP3    H266291   6.381   0.200   1.025  0.8155  0.4500 -1.0713
14934TIP3   OH266292   6.025   3.854   2.275  0.2416 -0.1173 -0.2761
14934TIP3    H166293   6.018   3.841   2.180 -1.9095 -0.6481 -0.0793
14934TIP3    H266294   6.037   3.766   2.310 -0.1650 -0.0455  0.0383
14935TIP3   OH266295   5.897   3.138   5.509 -0.3553  0.1409 -0.0776
14935TIP3    H166296   5.950   3.155   5.430  0.8683  1.9991  1.0445
14935TIP3    H266297   5.810   3.170   5.486 -0.6619 -1.5166 -1.4326
14936TIP3   OH266298   6.803   4.861  14.897  0.8391  0.3284 -0.7269
14936TIP3    H166299   6.709   4.875  14.884  0.2843 -0.4681  1.8658
14936TIP3    H266300   6.839   4.950  14.903  0.1823  0.6370 -1.1543
14937TIP3   OH266301   6.240   6.439  11.338  0.3165 -0.8450 -0.7458
14937TIP3    H166302   6.176   6.380  11.299  1.4988 -2.3107 -0.5393
14937TIP3    H266303   6.325   6.400  11.318  1.0700 -0.1623  0.9121
14938TIP3   OH266304   2.757   4.742  16.383  0.1402  0.1229 -0.0961
14938TIP3    H166305   2.839   4.770  16.343 -1.5061  3.0482 -1.7923
14938TIP3    H266306   2.715   4.686  16.318  0.2325 -0.3087  0.2158
14939TIP3   OH266307   3.364   0.882  12.907  0.0903  0.1911 -0.2011
14939TIP3    H166308   3.309   0.805  12.892  0.5501 -0.4444  1.2230
14939TIP3    H266309   3.301   0.953  12.918 -0.3776 -0.1616 -0.5460
14940TIP3   OH266310   3.465   1.139   5.786 -0.0566  1.0164 -0.2528
14940TIP3    H166311   3.491   1.054   5.821 -0.6735  0.1887 -1.7072
14940TIP3    H266312   3.392   1.120   5.728 -0.6886  2.6484 -0.0702
14941TIP3   OH266313   0.861   1.446  10.660  0.3719  0.0056  0.2282
14941TIP3    H166314   0.931   1.436  10.595 -0.1765 -0.6191 -0.2816
14941TIP3    H266315   0.902   1.419  10.742  0.5672 -0.9973 -0.1748
14942TIP3   OH266316   4.960   1.351   3.157  0.0699  0.5349  0.5653
14942TIP3    H166317   4.869   1.341   3.128  0.1331  0.4383  0.4003
14942TIP3    H266318   5.012   1.318   3.084  0.2403  0.6772  0.6237
14943TIP3   OH266319   3.676   4.894   0.841 -0.0008 -0.1066  0.1416
14943TIP3    H166320   3.663   4.985   0.869  0.5916  0.4055 -1.1825
14943TIP3    H266321   3.771   4.886   0.834 -0.0379 -0.9221  0.5045
14944TIP3   OH266322   0.904   1.228   3.445  0.2349 -0.0476  0.0494
14944TIP3    H166323   0.965   1.294   3.411  0.0431  2.6771  4.1805
14944TIP3    H266324   0.817   1.266   3.430 -0.2898 -1.7495 -1.6899
14945TIP3   OH266325   5.901   3.517  13.896 -0.3622  0.0279 -0.2326
14945TIP3    H166326   5.905   3.457  13.971  1.7525 -0.5009 -0.6964
14945TIP3    H266327   5.815   3.501  13.856 -0.4277 -1.6425  0.5183
14946TIP3   OH266328   4.707   1.748  15.461  0.1472 -0.1853 -0.0598
14946TIP3    H166329   4.798   1.771  15.481 -0.3228  2.0938 -0.2699
14946TIP3    H266330   4.710   1.713  15.372  0.6144  1.6324 -0.7914
14947TIP3   OH266331   3.633   5.737   0.809  0.0959  0.6834  0.1160
14947TIP3    H166332   3.558   5.685   0.780  1.9907 -1.5458 -0.9867
14947TIP3    H266333   3.681   5.680   0.868  1.2569  1.8881  0.3899
14948TIP3   OH266334   1.470   4.176  14.446 -0.2581  0.3267  0.6622
14948TIP3    H166335   1.422   4.167  14.528  0.0111  1.4533  0.9526
14948TIP3    H266336   1.416   4.131  14.381 -0.3211 -0.8543  1.5037
14949TIP3   OH266337   5.378   6.102  13.973  0.4552  0.3456 -0.5597
14949TIP3    H166338   5.425   6.041  13.917 -1.6902 -1.3001 -0.6904
14949TIP3    H266339   5.385   6.064  14.061 -1.3246 -0.4316 -0.7208
14950TIP3   OH266340   2.562   2.425   2.480 -0.2068  0.9154 -0.5031
14950TIP3    H166341   2.543   2.477   2.558  1.7225  0.8133  0.0684
14950TIP3    H266342   2.620   2.355   2.511 -1.3160 -0.5669 -1.6013
14951TIP3   OH266343   5.263   5.227   5.746 -0.1275 -0.5059  0.0859
14951TIP3    H166344   5.315   5.292   5.793  0.2122  0.8418 -2.0144
14951TIP3    H266345   5.321   5.152   5.736  0.9554  0.4251 -0.9439
14952TIP3   OH266346   5.107   1.806   4.991 -0.0133  0.1054  0.0952
14952TIP3    H166347   5.071   1.816   4.902 -0.9123 -0.0147  0.4331
14952TIP3    H266348   5.174   1.874   4.996  0.9278 -0.6888 -1.0984
14953TIP3   OH266349   5.255   1.589  14.379 -0.1325  0.3038 -0.5885
14953TIP3    H166350   5.241   1.515  14.439 -0.7054  1.1969  0.4207
14953TIP3    H266351   5.242   1.552  14.292  0.9144 -1.0745 -0.1901
14954TIP3   OH266352   1.656   1.391  11.270  0.2492  0.2561 -0.3129
14954TIP3    H166353   1.627   1.388  11.361 -0.4128 -0.6531 -0.5415
14954TIP3    H266354   1.720   1.462  11.268 -0.3576  0.8596  0.6713
14955TIP3   OH266355   4.253   2.984   4.682 -0.5920 -0.2320  0.2706
14955TIP3    H166356   4.188   2.915   4.669 -1.3580  0.1893  1.5814
14955TIP3    H266357   4.267   2.985   4.777  2.6990 -1.4958 -0.0997
14956TIP3   OH266358   6.770   5.232  16.162 -0.1596  0.3842 -0.6195
14956TIP3    H166359   6.849   5.282  16.141  0.5144 -0.2203  0.4059
14956TIP3    H266360   6.802   5.154  16.208 -1.3398  0.0673 -0.3010
14957TIP3   OH266361   0.847   2.602   5.731  0.5505 -0.3929 -0.4861
14957TIP3    H166362   0.904   2.604   5.807  0.1841  1.1138 -0.2332
14957TIP3    H266363   0.865   2.517   5.690  0.1085 -1.6698  1.7593
14958TIP3   OH266364   0.984   2.187   1.105  0.1425 -0.0858  0.1251
14958TIP3    H166365   1.024   2.112   1.150  0.7493 -2.3259 -3.7428
14958TIP3    H266366   1.056   2.227   1.056 -1.0371  0.0964 -1.5411
14959TIP3   OH266367   4.832   5.982   5.542 -0.2252 -0.3662  0.3922
14959TIP3    H166368   4.799   5.997   5.630 -0.4087 -1.0378  0.4435
14959TIP3    H266369   4.864   5.892   5.544  1.5574  0.2256  0.3332
14960TIP3   OH266370   2.034   2.673   4.239 -0.1472  0.3130 -0.4218
14960TIP3    H166371   2.077   2.663   4.154 -1.1484  1.8358 -1.1616
14960TIP3    H266372   1.998   2.586   4.258  0.6432 -0.2055 -1.2359
14961TIP3   OH266373   3.582   1.013  12.290 -0.5913 -0.1545  0.5670
14961TIP3    H166374   3.512   0.961  12.251 -0.5252  0.8259 -0.9252
14961TIP3    H266375   3.543   1.100  12.302  0.2942  0.3510 -0.1184
14962TIP3   OH266376   0.557   1.316   2.760 -0.4580 -0.0703 -0.3546
14962TIP3    H166377   0.606   1.252   2.811 -0.9763  0.5459  0.9772
14962TIP3    H266378   0.618   1.389   2.747 -0.0480 -0.5819 -1.3893
14963TIP3   OH266379   0.089   1.300  15.500 -0.7307 -0.2024 -0.0505
14963TIP3    H166380   0.103   1.394  15.513  0.5294 -0.3413 -0.2332
14963TIP3    H266381   0.063   1.268  15.587  1.2978 -0.0624  0.6821
14964TIP3   OH266382   3.895   0.335  13.456  0.1764  0.5289  0.4763
14964TIP3    H166383   3.806   0.330  13.492  0.9175  1.0454  2.5586
14964TIP3    H266384   3.925   0.423  13.479  1.0314  0.5549 -0.6910
14965TIP3   OH266385   2.436   2.226  17.170  0.6709  0.0548  0.2119
14965TIP3    H166386   2.456   2.271  17.088  0.5004  1.3171  0.8355
14965TIP3    H266387   2.521   2.215  17.213  0.6524  0.2711  0.3037
14966TIP3   OH266388   0.931   0.497  14.840  0.0168 -0.0985  0.2852
14966TIP3    H166389   0.909   0.457  14.755  1.1002 -0.2819  0.0785
14966TIP3    H266390   0.941   0.591  14.820  0.0223 -0.1040  0.2626
14967TIP3   OH266391   0.432   1.895  15.619 -0.3243 -0.4624  0.5426
14967TIP3    H166392   0.404   1.886  15.528 -0.2719  0.5912  0.4044
14967TIP3    H266393   0.356   1.929  15.665  0.0428  0.2832  0.6151
14968TIP3   OH266394   5.258   5.034   2.490 -0.0229  0.2578  0.3401
14968TIP3    H166395   5.338   5.086   2.483  0.9492 -1.2256 -0.1431
14968TIP3    H266396   5.203   5.082   2.553  0.7964  1.8376 -0.1048
14969TIP3   OH266397   1.793   4.607   3.499  0.1716  0.4123 -0.7854
14969TIP3    H166398   1.772   4.695   3.531 -0.9476 -0.0050 -0.3151
14969TIP3    H266399   1.821   4.560   3.577  0.0566  0.1498 -0.9031
14970TIP3   OH266400   3.905   4.127  11.076 -0.1597  0.2981  0.0821
14970TIP3    H166401   3.845   4.160  11.009 -1.0083 -2.3254 -0.5452
14970TIP3    H266402   3.968   4.198  11.088  0.6205  0.5831 -4.2149
14971TIP3   OH266403   5.447   0.501   0.349 -0.0075 -0.3937 -0.8464
14971TIP3    H166404   5.523   0.558   0.358 -0.2640  0.0226 -1.2913
14971TIP3    H266405   5.480   0.424   0.304  0.3853 -0.6971 -0.0581
14972TIP3   OH266406   1.418   6.167   0.435  0.7438 -0.3588 -0.0510
14972TIP3    H166407   1.348   6.174   0.499  2.3610 -0.8628  1.9051
14972TIP3    H266408   1.379   6.122   0.360 -1.6112  1.6165 -0.1037
14973TIP3   OH266409   0.280   1.253   2.736  0.3738  0.4559  0.8099
14973TIP3    H166410   0.358   1.309   2.741 -0.1917  1.3920 -0.4475
14973TIP3    H266411   0.208   1.310   2.761 -0.3022  0.5610 -1.1918
14974TIP3   OH266412   0.051   4.242  16.242  0.3815 -0.1033  0.2538
14974TIP3    H166413   0.028   4.149  16.250 -2.1182  0.5120  1.1276
14974TIP3    H266414   0.133   4.251  16.291  1.0829 -1.9614 -0.5027
14975TIP3   OH266415   6.008   2.739   5.705  0.9996 -0.3472 -0.8975
14975TIP3    H166416   5.913   2.724   5.700  0.8805  0.5930 -1.7694
14975TIP3    H266417   6.039   2.675   5.768 -0.5625  0.8561  1.2228
14976TIP3   OH266418   2.399   0.648   5.576 -0.2672 -0.2990  0.1214
14976TIP3    H166419   2.356   0.575   5.531  0.6647 -0.7139 -0.1113
14976TIP3    H266420   2.428   0.611   5.659  1.6106 -0.6523 -0.6539
14977TIP3   OH266421   1.718   6.581  12.347 -0.0110 -0.6949  0.2429
14977TIP3    H166422   1.639   6.619  12.309  0.2402  0.1905  0.5863
14977TIP3    H266423   1.724   6.620  12.434  1.2821 -0.0805 -0.1041
14978TIP3   OH266424   1.320   1.703   4.561 -0.2857  0.6221 -0.1484
14978TIP3    H166425   1.363   1.618   4.566 -0.3491  0.6548  1.9930
14978TIP3    H266426   1.237   1.685   4.517 -0.1299 -0.3649 -0.0601
14979TIP3   OH266427   1.036   5.284   0.087  0.1080 -0.0405 -0.4194
14979TIP3    H166428   1.109   5.339   0.114  1.3288 -0.9580 -1.7674
14979TIP3    H266429   1.015   5.312  -0.002  0.6109 -1.5726 -1.0551
14980TIP3   OH266430   2.680   1.565  16.945  0.2658 -0.4676  1.0052
14980TIP3    H166431   2.597   1.543  16.901 -0.4165 -0.3434  2.1849
14980TIP3    H266432   2.741   1.580  16.873 -1.1941  1.2829  0.0490
14981TIP3   OH266433   0.468   0.830   2.483 -0.0596 -0.5042  0.4450
14981TIP3    H166434   0.563   0.841   2.482  0.1342 -1.9858  0.5562
14981TIP3    H266435   0.438   0.891   2.551  0.5668  1.4335 -0.9486
14982TIP3   OH266436   5.261   1.153   4.217  0.0362  0.0149 -0.4412
14982TIP3    H166437   5.222   1.099   4.148 -0.2545  0.5354 -0.6899
14982TIP3    H266438   5.222   1.240   4.205  0.0252  0.1280  0.3467
14983TIP3   OH266439   1.724   5.975   4.343 -0.3907 -0.0892 -0.0421
14983TIP3    H166440   1.664   5.974   4.418  1.8473  1.7368  1.9451
14983TIP3    H266441   1.734   5.882   4.320 -2.9313 -0.5355  0.3354
14984TIP3   OH266442   4.196   0.728   5.293  0.0523  1.1655  0.3988
14984TIP3    H166443   4.197   0.725   5.197 -2.8159 -0.5559  0.3214
14984TIP3    H266444   4.113   0.770   5.314  0.3417  0.8998  2.1549
14985TIP3   OH266445   4.346   2.675  12.827 -0.0455 -0.3803  0.9311
14985TIP3    H166446   4.403   2.665  12.904 -0.5218 -0.6518  1.2536
14985TIP3    H266447   4.398   2.727  12.766  0.7609 -1.0572  1.0084
14986TIP3   OH266448   1.876   4.474   6.458  0.0858  0.4150  0.2083
14986TIP3    H166449   1.930   4.493   6.382  2.0110 -1.1274  1.0996
14986TIP3    H266450   1.911   4.532   6.526  0.2290 -0.1495  0.6230
14987TIP3   OH266451   1.833   0.333   4.722 -0.1016 -0.3155 -0.0282
14987TIP3    H166452   1.746   0.299   4.744  0.2984 -1.9239 -0.7723
14987TIP3    H266453   1.827   0.428   4.737 -1.9935 -0.3898 -0.1334
14988TIP3   OH266454   1.048   1.636   4.465 -0.0582 -0.4651 -0.3527
14988TIP3    H166455   0.969   1.690   4.460  0.5370  0.3655 -1.1567
14988TIP3    H266456   1.074   1.622   4.373  0.9465 -0.3930 -0.0927
14989TIP3   OH266457   4.685   2.079  12.321  0.4147  0.3955 -0.8918
14989TIP3    H166458   4.623   2.085  12.393  0.9682  1.0878 -0.4630
14989TIP3    H266459   4.766   2.047  12.361  0.7241  0.7864 -1.1950
14990TIP3   OH266460   1.866   0.795   3.609  0.3138  0.7650 -0.8102
14990TIP3    H166461   1.821   0.805   3.526  0.0349 -1.8835 -1.0787
14990TIP3    H266462   1.799   0.760   3.669  1.0179  0.6441 -0.0702
14991TIP3   OH266463   3.516   3.235  11.763  0.3476  0.6354 -0.6963
14991TIP3    H166464   3.541   3.162  11.707  0.5869  0.0266  0.1873
14991TIP3    H266465   3.574   3.228  11.840 -1.6893 -0.0936  0.8634
14992TIP3   OH266466   2.381   0.658  16.853 -0.2819  0.7142 -0.3065
14992TIP3    H166467   2.365   0.719  16.780 -1.7262  0.1685 -0.4609
14992TIP3    H266468   2.436   0.589  16.815 -1.0648  0.4092 -0.8922
14993TIP3   OH266469   1.983   2.619   0.156  0.4104  0.0059 -0.5294
14993TIP3    H166470   1.989   2.533   0.114 -1.9446  0.6075 -2.2716
14993TIP3    H266471   2.019   2.680   0.092 -1.3967  0.7036 -0.9429
14994TIP3   OH266472   5.298   1.764  15.131 -0.3224  0.2086  0.0395
14994TIP3    H166473   5.386   1.768  15.168  0.2645 -0.3633 -1.2231
14994TIP3    H266474   5.308   1.716  15.049 -1.8421  0.0147 -0.0733
14995TIP3   OH266475   2.761   6.680   5.457 -1.1132 -0.1993  0.3866
14995TIP3    H166476   2.761   6.626   5.536 -2.1257 -3.7464 -1.7908
14995TIP3    H266477   2.676   6.723   5.456 -0.0364  2.2117  2.4968
14996TIP3   OH266478   0.105   3.970   0.050  0.5469 -0.1570 -0.3298
14996TIP3    H166479   0.037   3.938  -0.008  1.0444  0.6782 -1.4090
14996TIP3    H266480   0.079   4.060   0.071  1.5059  0.3274 -1.1166
14997TIP3   OH266481   6.744   1.060  12.368  0.4419 -0.0665  0.3305
14997TIP3    H166482   6.785   1.134  12.324  0.8457 -0.4646  0.0280
14997TIP3    H266483   6.729   0.995  12.299 -0.4248 -0.0490  0.4917
14998TIP3   OH266484   6.314   2.017  14.312  0.2674 -0.1746  0.1188
14998TIP3    H166485   6.373   1.942  14.313  0.9286  0.3390  0.1519
14998TIP3    H266486   6.309   2.044  14.221 -2.4058 -2.1176 -0.4225
14999TIP3   OH266487   4.695   4.572   1.609 -0.0641  0.6033 -0.0750
14999TIP3    H166488   4.704   4.602   1.699 -0.5992  1.2504 -0.2287
14999TIP3    H266489   4.602   4.553   1.599  0.1388 -0.3719 -0.2191
15000TIP3   OH266490   1.889   1.977  10.809  0.3051 -0.7649 -0.0449
15000TIP3    H166491   1.978   2.002  10.782 -0.2911  0.7042 -0.7378
15000TIP3    H266492   1.836   1.990  10.731 -0.5569 -1.5457  0.3957
15001TIP3   OH266493   3.743   6.361  13.393 -0.0073  0.4756  0.4753
15001TIP3    H166494   3.653   6.330  13.396  0.1461 -0.0501 -0.1223
15001TIP3    H266495   3.795   6.287  13.424  0.0801  1.5248  3.1018
15002TIP3   OH266496   2.748   1.535  16.482 -0.7617 -0.3118  0.9602
15002TIP3    H166497   2.714   1.605  16.427 -0.1201  0.8795  2.0484
15002TIP3    H266498   2.722   1.455  16.436 -3.1913  0.5615  0.6540
15003TIP3   OH266499   0.997   5.554  15.965 -0.0071 -0.1828  0.1069
15003TIP3    H166500   1.057   5.621  16.000 -1.6200  1.8567 -0.8307
15003TIP3    H266501   1.047   5.511  15.896  1.5284 -0.9450  1.6012
15004TIP3   OH266502   4.509   6.214  16.194  0.6112 -0.3388 -0.1450
15004TIP3    H166503   4.514   6.151  16.266 -1.3392 -0.8389 -0.3882
15004TIP3    H266504   4.415   6.225  16.177  0.9416  1.5571 -1.0745
15005TIP3   OH266505   5.137   5.400   2.263 -0.4023  0.0014 -0.1333
15005TIP3    H166506   5.208   5.404   2.199  0.8086  1.9039  1.2381
15005TIP3    H266507   5.174   5.351   2.337 -0.9127  0.0487  0.1576
15006TIP3   OH266508   3.174   5.688   1.734 -0.4843 -0.2515  0.4942
15006TIP3    H166509   3.141   5.598   1.741 -1.6557  0.1980  0.8401
15006TIP3    H266510   3.114   5.740   1.787  0.6266  0.6364  0.9041
15007TIP3   OH266511   0.631   3.340  13.604 -0.7828  0.4956  0.1867
15007TIP3    H166512   0.540   3.361  13.580 -1.8471 -0.9330  2.6176
15007TIP3    H266513   0.634   3.351  13.699  1.4944  0.0861  0.2040
15008TIP3   OH266514   2.000   2.203   1.732 -0.0770  0.0925 -0.2960
15008TIP3    H166515   2.037   2.274   1.680 -0.2308 -0.4012 -1.0953
15008TIP3    H266516   2.060   2.129   1.718  1.6890  0.7882  2.7488
15009TIP3   OH266517   0.615   1.509  11.935  0.3038  0.2149  0.4359
15009TIP3    H166518   0.606   1.427  11.985  0.5539 -0.9633 -1.3652
15009TIP3    H266519   0.700   1.544  11.962 -0.2680  0.4622  2.0066
15010TIP3   OH266520   5.250   5.794  11.150 -0.1470 -0.2471 -0.0151
15010TIP3    H166521   5.193   5.866  11.173  0.8913  0.8840 -0.8627
15010TIP3    H266522   5.335   5.835  11.132  0.4134 -1.6459 -0.7224
15011TIP3   OH266523   6.663   5.221  15.371 -0.1804  0.4644  0.4362
15011TIP3    H166524   6.742   5.188  15.414  0.2565  1.0088  0.0647
15011TIP3    H266525   6.636   5.296  15.425  0.1953  0.9597 -0.0521
15012TIP3   OH266526   6.484   0.913   1.978 -0.8713  0.2742  0.5048
15012TIP3    H166527   6.534   0.971   2.034 -1.2072 -0.9386  2.1353
15012TIP3    H266528   6.461   0.839   2.034 -0.2285 -1.5796 -1.5492
15013TIP3   OH266529   0.044   6.736   5.220 -0.1969  0.0101  0.1985
15013TIP3    H166530   0.064   6.657   5.170 -1.3738 -1.1954  1.5448
15013TIP3    H266531  -0.050   6.750   5.206 -0.6208 -0.5280  2.2279
15014TIP3   OH266532   0.769   6.727  15.000 -0.4836  0.4200 -0.2999
15014TIP3    H166533   0.817   6.765  15.073  1.5763 -1.1903 -0.7234
15014TIP3    H266534   0.821   6.748  14.923  0.3200 -2.4005 -0.6327
15015TIP3   OH266535   4.977   0.511   4.244  0.7237 -0.0529 -0.4789
15015TIP3    H166536   4.916   0.478   4.310  1.6699  1.4722  1.2597
15015TIP3    H266537   5.052   0.451   4.248  1.3816  0.8196  0.8957
15016TIP3   OH266538   4.517   2.897   4.714  0.7660  0.2525 -0.1788
15016TIP3    H166539   4.528   2.803   4.703 -0.8199  0.1501 -1.1828
15016TIP3    H266540   4.423   2.909   4.720  0.9540  1.7772  0.0434
15017TIP3   OH266541   3.725   3.477   4.826  0.3645  0.3563 -0.3273
15017TIP3    H166542   3.680   3.557   4.855  1.1850  0.9554 -0.6617
15017TIP3    H266543   3.816   3.490   4.853  0.4937 -0.4942 -0.3464
15018TIP3   OH266544   1.833   3.855   6.497  0.1272 -0.2601 -0.4839
15018TIP3    H166545   1.793   3.873   6.582  0.0141  0.1422 -0.6243
15018TIP3    H266546   1.812   3.763   6.480  1.1661 -0.6949  0.4772
15019TIP3   OH266547   4.263   3.245   3.747  0.0283  0.2767  0.0288
15019TIP3    H166548   4.311   3.198   3.679 -0.5688  1.3293 -1.1695
15019TIP3    H266549   4.329   3.301   3.789  0.4300 -0.4922  0.4437
15020TIP3   OH266550   6.455   5.948   5.932 -0.2696 -0.1254  0.5078
15020TIP3    H166551   6.393   6.006   5.888 -1.9250 -1.3189  1.1757
15020TIP3    H266552   6.482   5.886   5.865 -0.7428 -0.3303  0.5031
15021TIP3   OH266553   1.920   1.585  15.760  0.0744  0.2950 -0.3618
15021TIP3    H166554   1.928   1.556  15.851 -1.1418 -3.2630 -1.2151
15021TIP3    H266555   1.826   1.581  15.741  0.2753  1.2178 -1.7157
15022TIP3   OH266556   3.244   0.261   2.180 -0.2301  0.7500  0.4308
15022TIP3    H166557   3.156   0.227   2.193  0.2767  0.1084  2.6310
15022TIP3    H266558   3.239   0.352   2.208 -0.4192  1.0261 -0.4784
15023TIP3   OH266559   6.015   1.541   1.090 -0.1623  0.4119  0.0102
15023TIP3    H166560   6.078   1.520   1.159  2.5509  0.5997 -2.2434
15023TIP3    H266561   5.996   1.456   1.048 -0.2097  0.5694 -0.2922
15024TIP3   OH266562   3.186   5.958  12.657  0.2808  0.0046 -0.6848
15024TIP3    H166563   3.243   6.035  12.661 -0.1056  0.2628  0.0987
15024TIP3    H266564   3.208   5.909  12.737 -0.3531 -0.0597 -0.5452
15025TIP3   OH266565   3.236   0.798  15.345  0.1406  0.4842 -0.1822
15025TIP3    H166566   3.250   0.878  15.396  0.6169  1.4477 -1.7676
15025TIP3    H266567   3.143   0.799  15.323  0.1904  0.7371 -0.3905
15026TIP3   OH266568   3.254   5.956  12.310  0.2269 -0.0990 -0.3983
15026TIP3    H166569   3.199   6.025  12.348 -0.5207 -0.6310 -0.4993
15026TIP3    H266570   3.208   5.875  12.330  0.5103 -0.4863 -1.2982
15027TIP3   OH266571   2.552   5.712  17.132  0.7398 -0.0854  0.3241
15027TIP3    H166572   2.618   5.667  17.079  1.0412  0.0278  0.5997
15027TIP3    H266573   2.470   5.666  17.113  0.1008  2.1066 -2.9746
15028TIP3   OH266574   3.493   5.320   3.645  0.1124  0.2257 -0.8871
15028TIP3    H166575   3.406   5.346   3.675  0.0951  0.2261 -0.9376
15028TIP3    H266576   3.479   5.282   3.558  0.1904  0.4142 -0.9809
15029TIP3   OH266577   1.713   0.083   0.036 -0.2203 -0.2403  0.3919
15029TIP3    H166578   1.711   0.128   0.121 -0.2473  1.0863 -0.2793
15029TIP3    H266579   1.716  -0.010   0.058 -1.7930 -0.0041  1.8505
15030TIP3   OH266580   4.315   3.747  11.586  0.5742 -0.7035 -0.0361
15030TIP3    H166581   4.269   3.831  11.584  0.4222 -0.7037  1.8109
15030TIP3    H266582   4.373   3.753  11.662 -0.2780 -2.6792  0.8277
15031TIP3   OH266583   2.630   6.288  15.412  0.0252  0.0238 -0.0960
15031TIP3    H166584   2.723   6.297  15.389  0.1402 -2.6982 -1.0159
15031TIP3    H266585   2.611   6.195  15.399 -2.7074  0.4013  0.6480
15032TIP3   OH266586   1.386   1.382  16.147  0.0469 -0.0679 -0.2484
15032TIP3    H166587   1.471   1.389  16.103  0.8199 -0.2717  1.1287
15032TIP3    H266588   1.359   1.292  16.130  0.0445  0.0290 -0.7856
15033TIP3   OH266589   5.416   0.032  15.846 -0.3677  0.0646 -0.1926
15033TIP3    H166590   5.447  -0.002  15.762 -0.5200  1.5446 -0.8838
15033TIP3    H266591   5.321   0.029  15.839 -0.4316 -2.0653  0.9141
15034TIP3   OH266592   4.620   4.751   5.459  0.3586 -0.0508  0.0710
15034TIP3    H166593   4.549   4.777   5.517  1.0316 -1.0848  1.4080
15034TIP3    H266594   4.584   4.761   5.371 -0.1376  3.1853  0.5136
15035TIP3   OH266595   3.146   0.257   2.955 -0.2896  0.0124 -0.1884
15035TIP3    H166596   3.163   0.222   2.867  3.5949 -0.4531  0.5666
15035TIP3    H266597   3.212   0.325   2.967 -0.7219  0.0826  2.3542
15036TIP3   OH266598   1.645   5.060  14.125 -0.0398 -0.0190  0.1383
15036TIP3    H166599   1.580   5.127  14.103  0.9494  0.1460 -2.6941
15036TIP3    H266600   1.723   5.085  14.075  1.2826 -1.8057  1.1676
15037TIP3   OH266601   4.234   0.799   5.034 -0.6444  0.1498  0.1818
15037TIP3    H166602   4.296   0.813   4.962  0.8313 -0.4015  1.2832
15037TIP3    H266603   4.160   0.856   5.013  0.6236  1.5558 -0.7582
15038TIP3   OH266604   5.329   4.635  14.850 -0.5049  0.1204  0.2547
15038TIP3    H166605   5.257   4.589  14.808  1.9254 -1.6859 -2.2685
15038TIP3    H266606   5.385   4.664  14.778  1.8604  0.4435  2.0946
15039TIP3   OH266607   5.457   5.856   0.811 -0.6189  0.1132  0.4347
15039TIP3    H166608   5.475   5.942   0.848  2.1832 -0.4555  0.6194
15039TIP3    H266609   5.457   5.797   0.887  0.8030 -0.4509  0.0392
15040TIP3   OH266610   5.158   6.064  15.320  0.1093  0.0347 -0.5047
15040TIP3    H166611   5.078   6.013  15.316 -0.1492  0.3743  0.2011
15040TIP3    H266612   5.129   6.155  15.330  0.5763  0.0553  0.8952
15041TIP3   OH266613   1.100   1.697  15.301 -0.0076 -0.3435  0.0205
15041TIP3    H166614   1.021   1.685  15.353 -0.6161 -0.3317 -0.8926
15041TIP3    H266615   1.094   1.633  15.230  0.5282  0.0288 -0.3743
15042TIP3   OH266616   3.255   5.479   3.477 -0.0152  0.2858 -0.3981
15042TIP3    H166617   3.273   5.563   3.521 -0.7851 -0.4775  1.4326
15042TIP3    H266618   3.170   5.452   3.510  0.1728 -1.1875 -1.0651
15043TIP3   OH266619   1.847   3.117  14.559  0.1311 -0.1864 -0.1890
15043TIP3    H166620   1.778   3.052  14.558 -1.9192  1.7962  1.2240
15043TIP3    H266621   1.826   3.177  14.487  0.9472 -0.0801 -0.3555
15044TIP3   OH266622   5.684   2.548  15.210 -0.2265 -0.3131  0.0128
15044TIP3    H166623   5.691   2.574  15.302 -1.1168 -3.8253  1.2321
15044TIP3    H266624   5.761   2.493  15.195 -0.1640  0.1170 -1.3045
15045TIP3   OH266625   2.703   6.698   2.704 -0.0809  0.0584 -0.4902
15045TIP3    H166626   2.648   6.703   2.782  0.8058  1.3235  0.0940
15045TIP3    H266627   2.792   6.705   2.738  0.3673 -0.4354 -1.5376
15046TIP3   OH266628   2.167   0.139  14.218 -0.4720 -0.4603 -0.2367
15046TIP3    H166629   2.225   0.134  14.142  0.5302 -0.6987  0.5193
15046TIP3    H266630   2.094   0.194  14.189  0.5677  0.5971 -0.9513
15047TIP3   OH266631   2.430   1.460   1.422 -0.4720  0.0049 -0.4856
15047TIP3    H166632   2.347   1.503   1.398 -1.2212 -1.1488 -0.0626
15047TIP3    H266633   2.478   1.527   1.469 -1.4063  0.5517 -0.2724
15048TIP3   OH266634   0.943   1.666  14.334 -0.1627  0.6902  0.5330
15048TIP3    H166635   0.898   1.742  14.371 -1.4049 -0.3890  1.3319
15048TIP3    H266636   1.036   1.685  14.346 -0.4082  2.3250  0.1943
15049TIP3   OH266637   3.113   2.155   2.556  0.1705 -0.6524  0.0591
15049TIP3    H166638   3.030   2.119   2.522 -0.4404 -1.6978  2.4543
15049TIP3    H266639   3.101   2.158   2.651  2.8602 -0.7319  0.4816
15050TIP3   OH266640   5.810   6.256  14.804  0.8200 -0.5665  0.2178
15050TIP3    H166641   5.876   6.277  14.869  0.4813  3.2034 -0.4180
15050TIP3    H266642   5.856   6.260  14.720 -0.0142  1.6566 -0.1987
15051TIP3   OH266643   3.442   0.618  13.569 -0.2696  0.0704  0.3428
15051TIP3    H166644   3.495   0.654  13.498 -0.8825  1.4975  0.5741
15051TIP3    H266645   3.377   0.563  13.524 -0.7124  1.0337 -0.2441
15052TIP3   OH266646   5.915   0.040   0.029 -0.3169 -0.0411  0.1600
15052TIP3    H166647   5.833   0.012  -0.012 -0.1337 -2.0757  1.0616
15052TIP3    H266648   5.982  -0.016  -0.009  0.9247  2.3393 -1.3965
15053TIP3   OH266649   1.847   6.134  16.769  0.1672 -0.3699  0.0028
15053TIP3    H166650   1.885   6.059  16.723  1.0453 -0.5867  1.0353
15053TIP3    H266651   1.913   6.158  16.835 -0.0226  1.4119 -0.4021
15054TIP3   OH266652   4.469   1.241  14.528 -0.1196  0.4359 -0.0703
15054TIP3    H166653   4.411   1.310  14.560 -1.1968 -0.9579  1.0791
15054TIP3    H266654   4.414   1.188  14.471  0.6148  0.3292 -0.6923
15055TIP3   OH266655   2.904   5.448   0.681 -0.0012  0.6213  0.7541
15055TIP3    H166656   2.819   5.477   0.647  0.0198  1.9437  1.7813
15055TIP3    H266657   2.884   5.368   0.730 -0.4039  0.1086 -0.2096
15056TIP3   OH266658   0.029   1.017   4.115 -0.5171 -0.3762 -0.2686
15056TIP3    H166659  -0.002   1.002   4.204 -0.2193 -1.0925 -0.2776
15056TIP3    H266660   0.039   1.112   4.108  0.7802 -0.3961  0.9244
15057TIP3   OH266661   6.168   3.503  16.022  0.0648  0.0325  0.0514
15057TIP3    H166662   6.073   3.509  16.029  0.1052  1.6940 -0.4045
15057TIP3    H266663   6.201   3.557  16.094  0.6057  1.4009 -1.1549
15058TIP3   OH266664   0.237   5.020  15.876  0.3278  0.1529 -0.0157
15058TIP3    H166665   0.180   5.004  15.802 -1.1860  1.2829  0.8561
15058TIP3    H266666   0.275   5.106  15.860 -1.0063  0.9955  1.0652
15059TIP3   OH266667   5.976   6.172  14.577 -0.4579  0.5674 -0.0347
15059TIP3    H166668   5.899   6.137  14.531  0.8295 -0.6906 -1.3725
15059TIP3    H266669   6.027   6.213  14.508  0.5112  0.5522  0.6641
15060TIP3   OH266670   3.341   4.216   1.959  0.2033 -0.1100  0.0766
15060TIP3    H166671   3.269   4.236   2.019 -1.1021 -1.4399 -0.9520
15060TIP3    H266672   3.415   4.266   1.992 -0.7204 -0.0483  2.2025
15061TIP3   OH266673   3.763   4.661   1.757 -0.1116 -0.9123 -0.2177
15061TIP3    H166674   3.834   4.671   1.694 -0.7343  3.8245 -0.4891
15061TIP3    H266675   3.692   4.714   1.721 -1.2579  0.2848  3.4133
15062TIP3   OH266676   1.231   4.897  12.531  0.0508  0.0700 -0.4214
15062TIP3    H166677   1.192   4.811  12.544  0.1464 -0.1263 -1.4025
15062TIP3    H266678   1.239   4.933  12.620  0.5179 -1.1388  0.0483
15063TIP3   OH266679   2.468   5.591   0.418 -0.7366 -0.2338 -0.0630
15063TIP3    H166680   2.540   5.632   0.371 -1.6945  1.2501 -0.3224
15063TIP3    H266681   2.510   5.527   0.476  0.6149 -0.6817 -1.4702
15064TIP3   OH266682   2.890   1.948  17.039  0.6011 -0.3863  0.5833
15064TIP3    H166683   2.833   1.880  17.075  0.1500 -0.0189  0.5807
15064TIP3    H266684   2.929   1.909  16.961 -1.4034  0.0894 -0.7343
15065TIP3   OH266685   3.521   4.922  15.312 -0.0810  0.8892 -0.1529
15065TIP3    H166686   3.528   5.017  15.322 -0.2489  0.8921 -0.0560
15065TIP3    H266687   3.549   4.887  15.396 -2.6162  0.9552  0.8161
15066TIP3   OH266688   0.937   0.195   4.949  0.5132  0.9048 -0.4885
15066TIP3    H166689   0.977   0.116   4.914  0.7222 -0.1473  1.9719
15066TIP3    H266690   0.844   0.187   4.927  0.5726  0.0930 -0.4548
15067TIP3   OH266691   4.910   4.214   4.081 -0.6575  0.1054  0.7128
15067TIP3    H166692   4.843   4.240   4.017 -0.7877  0.9837  1.1917
15067TIP3    H266693   4.967   4.154   4.032 -2.0490 -1.0471  0.4329
15068TIP3   OH266694   1.670   1.448   0.201  0.6179  0.3571 -0.0315
15068TIP3    H166695   1.721   1.463   0.280 -1.7473  0.5097  1.5772
15068TIP3    H266696   1.692   1.522   0.144  2.0386  0.4841  0.6300
15069TIP3   OH266697   6.460   6.705  11.284  0.2503 -0.2502 -0.1165
15069TIP3    H166698   6.487   6.731  11.196  0.4356  1.3327  0.3631
15069TIP3    H266699   6.540   6.672  11.325  0.5037  0.4097 -0.0692
15070TIP3   OH266700   2.816   4.457  12.087 -0.2904  0.3483 -0.4597
15070TIP3    H166701   2.815   4.438  12.181 -1.4420 -0.7893 -0.6701
15070TIP3    H266702   2.882   4.397  12.051  0.5051  1.1314 -0.3186
15071TIP3   OH266703   4.433   0.216  15.257 -0.0938  0.3499  0.9771
15071TIP3    H166704   4.348   0.172  15.256  0.1256 -0.1584  2.4704
15071TIP3    H266705   4.430   0.276  15.183 -1.0681 -0.9284 -0.0796
15072TIP3   OH266706   0.689   3.728   3.162 -0.1893  0.7434  0.6707
15072TIP3    H166707   0.676   3.796   3.228 -0.3445  1.3814 -0.0064
15072TIP3    H266708   0.713   3.776   3.083  1.5375 -0.0791  0.6323
15073TIP3   OH266709   0.146   5.432   1.477  0.0034  0.7778  0.3182
15073TIP3    H166710   0.111   5.478   1.553  2.1154 -0.3406  2.0876
15073TIP3    H266711   0.206   5.494   1.437 -0.6097  1.1330 -0.0694
15074TIP3   OH266712   0.953   3.683   2.029 -0.0694  0.4617  0.0571
15074TIP3    H166713   0.902   3.623   1.976 -1.0312  0.2298  1.1883
15074TIP3    H266714   1.044   3.654   2.020 -0.5175 -1.1794  0.6044
15075TIP3   OH266715   5.913   2.395  15.236  0.0906 -0.3037 -0.8110
15075TIP3    H166716   5.842   2.337  15.209 -1.3418  0.3851  1.2449
15075TIP3    H266717   5.954   2.350  15.310  0.8679 -0.0059 -1.0456
15076TIP3   OH266718   4.874   2.505   3.935 -0.1254  0.0538 -0.0709
15076TIP3    H166719   4.912   2.430   3.888  0.2520  1.2646 -1.7813
15076TIP3    H266720   4.941   2.573   3.929 -1.5441  1.4314 -1.0263
15077TIP3   OH266721   6.841   5.381   4.920 -0.1133 -0.2940  0.2306
15077TIP3    H166722   6.802   5.337   4.996 -0.4812  0.6014  0.5703
15077TIP3    H266723   6.931   5.399   4.948  0.2025 -1.2721 -0.1032
15078TIP3   OH266724   6.397   3.986  12.664  0.4927 -0.3927  0.0799
15078TIP3    H166725   6.482   4.015  12.698  0.4811  1.2404 -1.1682
15078TIP3    H266726   6.334   4.043  12.709  0.3359  0.5353 -1.2693
15079TIP3   OH266727   3.678   0.545   4.185  0.1954  0.1009 -0.2393
15079TIP3    H166728   3.676   0.478   4.117 -2.0568 -1.1289  0.9228
15079TIP3    H266729   3.733   0.509   4.254  0.4045  0.2350 -0.3337
15080TIP3   OH266730   1.872   3.027  14.123 -0.9178  0.2094 -0.4238
15080TIP3    H166731   1.829   2.956  14.075  0.3434 -0.4077 -0.7053
15080TIP3    H266732   1.841   3.018  14.213  0.2351 -1.5692 -0.1688
15081TIP3   OH266733   2.297   0.282  11.200 -0.1449  0.4069  0.4498
15081TIP3    H166734   2.254   0.366  11.183 -0.4395  0.1317 -0.2048
15081TIP3    H266735   2.363   0.274  11.131 -1.3429 -0.7198 -0.6285
15082TIP3   OH266736   1.048   0.862   3.470  0.6919  0.2174 -0.2163
15082TIP3    H166737   1.121   0.802   3.480 -0.5483 -1.5486 -1.1941
15082TIP3    H266738   0.983   0.831   3.533  0.1122  0.6770 -0.5746
15083TIP3   OH266739   5.891   6.645   3.305  0.3841 -0.4858 -0.1644
15083TIP3    H166740   5.819   6.696   3.343  0.3920 -0.4937 -0.1395
15083TIP3    H266741   5.888   6.666   3.212  0.6226 -0.1454 -0.0989
15084TIP3   OH266742   6.409   0.872   0.004 -0.1067  0.1053  0.8106
15084TIP3    H166743   6.325   0.888   0.045  0.3553  0.6549  1.5631
15084TIP3    H266744   6.388   0.840  -0.084 -1.0820  2.2400  0.2210
15085TIP3   OH266745   4.444   0.714  14.075 -0.1743  0.4607  0.3975
15085TIP3    H166746   4.383   0.715  14.001  3.9013  1.5636 -3.3680
15085TIP3    H266747   4.433   0.628  14.114 -1.7678 -0.6495 -2.2396
15086TIP3   OH266748   6.012   6.176  12.166  0.0784  0.1558 -0.0059
15086TIP3    H166749   5.991   6.221  12.248  1.2223  0.5320  0.0913
15086TIP3    H266750   5.972   6.089  12.176 -0.7677  0.5817  0.4680
15087TIP3   OH266751   3.529   1.497  13.146 -0.3449 -0.1202 -0.6990
15087TIP3    H166752   3.503   1.478  13.236 -1.9205 -0.3634 -1.1716
15087TIP3    H266753   3.621   1.470  13.141  0.2768  1.4685  1.2639
15088TIP3   OH266754   1.906   1.470  15.376  0.2589  0.2707 -0.1200
15088TIP3    H166755   1.835   1.504  15.321 -1.6851  0.6033  2.4303
15088TIP3    H266756   1.898   1.375  15.370  0.3104  0.2938 -0.6604
15089TIP3   OH266757   5.372   4.044   3.143 -0.1685  0.4301  0.0879
15089TIP3    H166758   5.281   4.075   3.147 -0.2299  0.1956  0.7972
15089TIP3    H266759   5.416   4.105   3.084 -0.9309  0.1714 -0.7808
15090TIP3   OH266760   4.434   0.965   1.784 -0.0932  0.1367 -0.3813
15090TIP3    H166761   4.506   0.903   1.774 -0.0768  0.3427 -1.8701
15090TIP3    H266762   4.362   0.913   1.819  0.4041 -0.3501 -0.0626
15091TIP3   OH266763   2.760   3.661  14.142  0.3882  0.3477  0.7245
15091TIP3    H166764   2.757   3.673  14.047  0.4257 -0.8200  0.5558
15091TIP3    H266765   2.792   3.571  14.154  4.8148  1.8185  1.9032
15092TIP3   OH266766   0.779   0.333   1.722  0.5648  0.5564  0.0389
15092TIP3    H166767   0.757   0.425   1.708  0.2920  0.5781  0.5759
15092TIP3    H266768   0.739   0.287   1.649 -0.4649  0.7075  0.4979
15093TIP3   OH266769   6.606   5.965   2.745  0.3429 -0.0945  0.0690
15093TIP3    H166770   6.572   6.001   2.663  0.3726 -1.6247 -0.6450
15093TIP3    H266771   6.570   6.023   2.813 -0.6008  0.5460 -0.9336
15094TIP3   OH266772   6.632   5.845  15.734 -0.0047 -0.2064 -0.3821
15094TIP3    H166773   6.576   5.797  15.794  2.3263 -1.6086  0.7939
15094TIP3    H266774   6.610   5.811  15.647  1.6234 -3.6344  0.4106
15095TIP3   OH266775   1.287   5.319   3.232  0.0704  0.1566 -0.1980
15095TIP3    H166776   1.275   5.414   3.235 -3.0234 -0.1083 -0.5296
15095TIP3    H266777   1.264   5.295   3.142  0.2105 -0.9552  0.0470
15096TIP3   OH266778   0.473   3.078  11.164  0.6623  0.0437 -0.1143
15096TIP3    H166779   0.462   3.028  11.083 -1.4927 -0.6170  0.5013
15096TIP3    H266780   0.527   3.022  11.220 -1.0326 -1.3130  0.2616
15097TIP3   OH266781   6.485   6.490   0.031 -0.6194  1.3606 -0.3572
15097TIP3    H166782   6.532   6.553   0.086  1.9552  0.0463 -0.8695
15097TIP3    H266783   6.528   6.497  -0.055 -1.9146  0.6057 -1.0965
15098TIP3   OH266784   2.138   0.283  16.720  0.1122  0.2935 -0.7090
15098TIP3    H166785   2.112   0.278  16.628  0.8380  1.1556 -0.9739
15098TIP3    H266786   2.057   0.266  16.768 -0.2808 -0.1346 -1.5060
15099TIP3   OH266787   2.537   0.375   3.900 -0.4708 -0.2440  0.1146
15099TIP3    H166788   2.592   0.372   3.822  0.4691  1.3404  0.6723
15099TIP3    H266789   2.455   0.414   3.870  0.1025  0.9309 -0.0118
15100TIP3   OH266790   0.492   2.933   6.394 -0.2681 -0.2361  0.2429
15100TIP3    H166791   0.545   2.985   6.333 -1.5106  0.7765 -0.0184
15100TIP3    H266792   0.453   2.998   6.453 -1.6685 -0.8783  0.0509
15101TIP3   OH266793   0.318   4.875  15.309 -0.3292 -0.1397 -0.0358
15101TIP3    H166794   0.319   4.803  15.246 -1.9962  0.4571 -0.8063
15101TIP3    H266795   0.387   4.934  15.278 -0.6749 -0.1873 -0.9352
15102TIP3   OH266796   1.488   6.709  14.865  0.4693  0.5765 -0.1131
15102TIP3    H166797   1.510   6.757  14.785  1.6273 -0.8399 -0.6883
15102TIP3    H266798   1.444   6.774  14.920  0.0579  1.7192 -1.6933
15103TIP3   OH266799   0.948   3.306  13.323 -0.1876  0.0468 -0.3332
15103TIP3    H166800   0.978   3.224  13.364 -1.8326 -0.1182  0.6374
15103TIP3    H266801   0.928   3.282  13.233  2.8150  0.2534 -1.1614
15104TIP3   OH266802   4.760   0.563   1.136 -0.1313  0.2979  0.2140
15104TIP3    H166803   4.824   0.551   1.207  0.0955 -6.0018 -0.4936
15104TIP3    H266804   4.812   0.585   1.059  0.6228 -0.4364  0.5107
15105TIP3   OH266805   3.878   5.738  15.241  0.3069 -0.2896 -0.2950
15105TIP3    H166806   3.807   5.677  15.219  1.0399 -0.6789 -1.6877
15105TIP3    H266807   3.929   5.692  15.308 -1.2645  0.4044  1.4801
15106TIP3   OH266808   0.541   1.672  12.819 -0.0671 -0.5389 -0.0779
15106TIP3    H166809   0.615   1.650  12.876  0.1788  0.0713 -0.1560
15106TIP3    H266810   0.551   1.614  12.743  0.9414  0.2524 -0.5813
15107TIP3   OH266811   0.106   4.579   5.948  0.7979 -0.7810  0.5570
15107TIP3    H166812   0.012   4.577   5.929  0.3064  0.8935  2.5306
15107TIP3    H266813   0.122   4.500   5.998  0.1898 -0.5106  1.1928
15108TIP3   OH266814   1.777   1.097  13.363  0.3338 -0.3285  0.2918
15108TIP3    H166815   1.694   1.051  13.352 -1.0987  2.1010  0.1449
15108TIP3    H266816   1.761   1.156  13.437  1.9967  0.0782  0.3481
15109TIP3   OH266817   3.530   5.131   5.605 -0.0321  0.0283  0.2388
15109TIP3    H166818   3.621   5.145   5.630  0.9077  0.2969 -2.8692
15109TIP3    H266819   3.527   5.040   5.577 -0.1903  0.5006 -1.3840
15110TIP3   OH266820   0.956   4.049  11.452 -0.1653 -0.6823  0.2043
15110TIP3    H166821   0.870   4.010  11.463 -0.2736 -0.5725 -0.2300
15110TIP3    H266822   0.982   4.026  11.363 -0.0938 -0.0432  0.0491
15111TIP3   OH266823   2.036   2.213   5.966 -0.2295 -0.2925  0.1744
15111TIP3    H166824   2.010   2.240   6.054  0.4844 -1.1468  0.6744
15111TIP3    H266825   2.100   2.143   5.981  2.0493  1.3847 -0.9514
15112TIP3   OH266826   3.463   2.070   0.385  0.2403  0.0909  0.3604
15112TIP3    H166827   3.372   2.057   0.410  0.2621 -0.0005  0.3912
15112TIP3    H266828   3.504   1.984   0.394  0.2640  0.0700  0.0703
15113TIP3   OH266829   6.288   6.025   2.717  0.5301 -0.0071 -0.3619
15113TIP3    H166830   6.321   6.095   2.662  1.4893  0.4914  0.8275
15113TIP3    H266831   6.248   6.069   2.791 -1.1681 -0.6606 -0.8290
15114TIP3   OH266832   5.572   1.867  16.461  0.6373  0.1867 -0.6216
15114TIP3    H166833   5.557   1.779  16.495 -1.5054  0.4004 -0.8846
15114TIP3    H266834   5.571   1.923  16.539  0.2036  0.1770 -0.6190
15115TIP3   OH266835   0.197   3.933  15.833  0.0202  0.5150 -0.4208
15115TIP3    H166836   0.274   3.935  15.777  0.3163  2.0277 -0.0064
15115TIP3    H266837   0.224   3.978  15.913 -0.4544 -1.4300  0.9020
15116TIP3   OH266838   4.904   2.127   1.322 -0.0976 -0.1173  0.2427
15116TIP3    H166839   4.934   2.216   1.341  0.7880 -0.0980 -1.1620
15116TIP3    H266840   4.846   2.138   1.246  1.1529 -0.8890 -0.8572
15117TIP3   OH266841   4.479   3.306   0.739 -0.3962  0.2840 -0.3476
15117TIP3    H166842   4.516   3.392   0.761 -0.2351 -0.1335  1.0523
15117TIP3    H266843   4.390   3.326   0.708 -0.8156  0.8751  1.1523
15118TIP3   OH266844   4.915   3.263  12.214 -0.2861  0.1824 -0.4183
15118TIP3    H166845   4.938   3.304  12.298 -0.0110 -0.3843 -0.2110
15118TIP3    H266846   4.988   3.203  12.196 -0.1541  0.5739 -1.2578
15119TIP3   OH266847   3.417   6.434  11.812 -0.1616 -0.0527 -0.5085
15119TIP3    H166848   3.438   6.506  11.753 -0.4524 -1.3789 -2.3202
15119TIP3    H266849   3.321   6.428  11.810 -0.1592 -0.2469 -0.0857
15120TIP3   OH266850   3.270   5.761   3.539  0.1332 -0.4248 -0.0111
15120TIP3    H166851   3.337   5.774   3.472  0.3842  0.2334  0.3677
15120TIP3    H266852   3.304   5.804   3.617  0.0074 -1.5036  0.6616
15121TIP3   OH266853   4.028   4.844   3.457  0.2443 -0.1185 -0.1668
15121TIP3    H166854   4.061   4.909   3.394  1.0347  0.1776  0.5284
15121TIP3    H266855   4.096   4.840   3.524  0.1407 -1.5505 -0.1045
15122TIP3   OH266856   6.168   6.608  16.656 -0.4563  0.7453 -0.4856
15122TIP3    H166857   6.104   6.601  16.586  0.7980 -0.0770 -1.5909
15122TIP3    H266858   6.177   6.702  16.671 -1.2568  0.9007 -0.9193
15123TIP3   OH266859   3.835   0.278  14.934 -0.3693  0.7113  0.6319
15123TIP3    H166860   3.826   0.199  14.881 -0.7922  1.0803  0.1435
15123TIP3    H266861   3.838   0.349  14.870  0.1356  1.0856  1.0611
15124TIP3   OH266862   3.001   3.237   4.106 -0.0250 -0.6432  0.5673
15124TIP3    H166863   3.038   3.151   4.125  1.3472 -0.1663  0.1751
15124TIP3    H266864   3.036   3.294   4.174  1.3197  0.1533 -0.7302
15125TIP3   OH266865   0.630   0.326  14.879  0.1452  0.1056  0.1553
15125TIP3    H166866   0.716   0.311  14.841  0.7481  1.2838  0.9862
15125TIP3    H266867   0.569   0.302  14.810  1.0815 -1.8915 -0.0544
15126TIP3   OH266868   0.964   1.400   4.976  0.4998 -0.0060  0.2621
15126TIP3    H166869   1.007   1.476   5.016 -0.9511  1.6184 -1.0769
15126TIP3    H266870   1.003   1.393   4.889 -0.4207  0.1744 -0.1799
15127TIP3   OH266871   0.568   1.612   1.848 -0.5486 -0.2455  0.2948
15127TIP3    H166872   0.652   1.577   1.818 -0.5805 -0.7383  0.7707
15127TIP3    H266873   0.570   1.602   1.943 -1.0581 -0.0533  0.3295
15128TIP3   OH266874   2.988   5.828   0.914 -0.3908 -0.1354  0.2286
15128TIP3    H166875   2.935   5.899   0.950 -0.6275 -1.5594  2.9484
15128TIP3    H266876   2.933   5.750   0.923  0.5321 -0.9802 -1.0172
15129TIP3   OH266877   2.734   5.178  15.210  0.0494  0.3957 -0.1258
15129TIP3    H166878   2.824   5.198  15.237  0.1446 -0.7582  0.4775
15129TIP3    H266879   2.716   5.240  15.140  2.4268 -1.2597 -2.4305
15130TIP3   OH266880   5.337   5.519  15.006  0.2201 -0.3819 -0.2407
15130TIP3    H166881   5.279   5.455  14.965  0.6126 -0.5511 -0.5386
15130TIP3    H266882   5.299   5.604  14.984  0.3890 -0.4735 -0.9002
15131TIP3   OH266883   1.430   5.777   2.230  0.4557  0.8212 -0.0209
15131TIP3    H166884   1.506   5.828   2.205  1.1406 -0.0625  0.1931
15131TIP3    H266885   1.360   5.807   2.172  1.3361  0.6382 -1.2243
15132TIP3   OH266886   4.709   4.781  14.812  0.1401 -0.1247  0.3534
15132TIP3    H166887   4.638   4.784  14.877  0.4841  2.2133  0.7370
15132TIP3    H266888   4.669   4.816  14.732  0.5128 -0.0024  0.2187
15133TIP3   OH266889   3.809   1.669   4.980  0.3755 -0.2333 -0.0214
15133TIP3    H166890   3.851   1.633   5.058  1.6680  0.5627 -0.3259
15133TIP3    H266891   3.860   1.747   4.959 -0.8269  0.3588 -0.8453
15134TIP3   OH266892   0.384   3.457   1.947 -0.1053 -0.2051 -0.0658
15134TIP3    H166893   0.389   3.372   1.991  0.2159 -1.0509 -1.6339
15134TIP3    H266894   0.309   3.449   1.888  1.0999 -0.1881 -1.6888
15135TIP3   OH266895   1.060   3.768   2.651 -0.2766  0.1951  0.7699
15135TIP3    H166896   1.144   3.729   2.676  0.0408  0.0232 -0.5129
15135TIP3    H266897   0.998   3.736   2.717  0.3946 -0.7698  0.9495
15136TIP3   OH266898   4.698   1.727   1.894 -0.6679 -0.1891  0.2365
15136TIP3    H166899   4.777   1.770   1.926 -0.5836  0.1897 -0.4550
15136TIP3    H266900   4.717   1.634   1.899 -0.6449 -0.1449  1.2396
15137TIP3   OH266901   5.926   4.331   4.008 -0.0234  0.6779  0.3683
15137TIP3    H166902   5.948   4.414   4.051  3.5472  0.3470 -0.4675
15137TIP3    H266903   5.958   4.342   3.918 -2.3591 -0.5513 -0.6843
15138TIP3   OH266904   3.560   3.519   0.461 -0.3103 -0.1714  0.4177
15138TIP3    H166905   3.551   3.567   0.543 -2.5179 -1.5189  1.0554
15138TIP3    H266906   3.493   3.451   0.465  0.9652 -1.6898 -1.5558
15139TIP3   OH266907   3.890   2.229  13.240  0.5929 -0.6456  0.0451
15139TIP3    H166908   3.889   2.323  13.257 -2.5294 -0.4553 -0.5837
15139TIP3    H266909   3.968   2.215  13.186  1.5387  1.4123  0.7888
15140TIP3   OH266910   0.487   6.840   0.888 -0.5262 -0.4662 -0.1935
15140TIP3    H166911   0.510   6.781   0.960  2.8657  0.3810 -0.4054
15140TIP3    H266912   0.534   6.804   0.812  0.6527  1.7581 -0.5864
15141TIP3   OH266913   2.032   3.544   1.335 -0.1620  0.2478 -0.2634
15141TIP3    H166914   2.004   3.488   1.262 -2.8118  0.3855  0.5284
15141TIP3    H266915   2.051   3.483   1.406 -0.4539  0.2345 -0.1958
15142TIP3   OH266916   4.110   3.980   1.858 -0.8088 -0.0257 -0.3782
15142TIP3    H166917   4.190   4.016   1.895  1.0977 -1.7572 -2.5285
15142TIP3    H266918   4.072   4.052   1.807  0.4383  0.2976 -0.8786
15143TIP3   OH266919   5.582   2.092   1.549  0.0300  0.1177 -0.2232
15143TIP3    H166920   5.535   2.059   1.625  2.1208  0.0945  1.1614
15143TIP3    H266921   5.602   2.014   1.497  0.6241 -0.1918  0.4499
15144TIP3   OH266922   6.754   4.411   2.135 -0.3719 -0.1780 -0.2780
15144TIP3    H166923   6.764   4.382   2.226 -0.3932 -0.0475 -0.2339
15144TIP3    H266924   6.689   4.350   2.098 -2.8388  1.6656  0.6930
15145TIP3   OH266925   5.096   2.866  15.727 -0.2101 -0.1667 -0.7573
15145TIP3    H166926   5.175   2.814  15.713 -1.3291 -2.2065  0.1119
15145TIP3    H266927   5.129   2.951  15.757  1.7288  0.1538 -3.4294
15146TIP3   OH266928   4.808   6.469  16.938 -0.4735  0.1579  0.2228
15146TIP3    H166929   4.806   6.563  16.951 -1.8685  0.3538 -1.1249
15146TIP3    H266930   4.901   6.446  16.941 -0.2047  1.3145  2.0597
15147TIP3   OH266931   2.324   0.917   4.779  0.4353  0.1372  0.3958
15147TIP3    H166932   2.333   0.858   4.703 -2.1348  0.9860 -0.6816
15147TIP3    H266933   2.313   1.004   4.740  0.8389  0.8598  1.8455
15148TIP3   OH266934   5.534   1.729   3.244 -0.1998 -0.6743 -0.0871
15148TIP3    H166935   5.528   1.729   3.149  1.9815  2.1403 -0.3907
15148TIP3    H266936   5.511   1.818   3.270  0.9771 -0.8391  1.8032
15149TIP3   OH266937   4.463   5.094   1.462  0.3811  0.9354  0.1743
15149TIP3    H166938   4.503   5.007   1.457 -0.6575  0.4726 -0.3925
15149TIP3    H266939   4.454   5.121   1.370  1.1882  1.8899  0.3569
15150TIP3   OH266940   6.298   0.648  11.506 -0.7544 -0.2214  0.1185
15150TIP3    H166941   6.378   0.597  11.516 -0.2055  0.1096 -2.0314
15150TIP3    H266942   6.295   0.704  11.583 -1.1098 -3.0550  2.3264
15151TIP3   OH266943   4.254   6.278   4.940  0.2965 -0.3236  0.7459
15151TIP3    H166944   4.348   6.295   4.930  0.3333 -1.8860 -4.2937
15151TIP3    H266945   4.212   6.354   4.900 -0.6366 -0.0407  2.1961
15152TIP3   OH266946   5.805   4.703   1.540  0.7406  0.2466  0.4499
15152TIP3    H166947   5.721   4.672   1.574  0.0865 -0.9223 -2.0332
15152TIP3    H266948   5.783   4.783   1.492  0.8773 -0.4475 -0.8108
15153TIP3   OH266949   2.016   6.750  12.989 -0.2688  0.3800 -0.5126
15153TIP3    H166950   1.998   6.657  13.007  1.5972  0.2344  0.8819
15153TIP3    H266951   1.956   6.797  13.046  0.2954 -0.0133  0.4235
15154TIP3   OH266952   3.550   6.082  11.307  0.6709  0.3637  0.5149
15154TIP3    H166953   3.614   6.030  11.260  0.7736 -0.5794  1.6481
15154TIP3    H266954   3.587   6.170  11.311  1.8253 -0.1327  1.0020
15155TIP3   OH266955   1.029   5.534   2.202  0.2816  0.3083 -0.0379
15155TIP3    H166956   0.988   5.477   2.267 -3.4873  1.1252 -1.4408
15155TIP3    H266957   1.040   5.618   2.247 -0.2171  0.2521  0.1886
15156TIP3   OH266958   3.480   1.859   4.978 -0.2681  0.8671  0.4313
15156TIP3    H166959   3.507   1.796   4.911 -1.4706  0.0677  0.6521
15156TIP3    H266960   3.403   1.902   4.941  0.4949  2.1629  0.3265
15157TIP3   OH266961   5.243   3.871  11.922  0.2360  0.5816  0.1051
15157TIP3    H166962   5.169   3.931  11.935 -0.9472 -0.8957  0.3999
15157TIP3    H266963   5.282   3.861  12.009 -0.3973 -0.1036  0.3185
15158TIP3   OH266964   5.823   2.362   0.027 -0.0407  0.3237  0.2573
15158TIP3    H166965   5.881   2.388   0.098 -0.7629  1.1252  0.5730
15158TIP3    H266966   5.879   2.316  -0.035  0.7165  0.1570  1.0529
15159TIP3   OH266967   0.255   1.685  14.314  0.5070 -0.1827  0.3362
15159TIP3    H166968   0.316   1.757  14.299 -1.4243  1.7633  1.2524
15159TIP3    H266969   0.302   1.624  14.370  1.2267  1.8702  2.0904
15160TIP3   OH266970   0.216   1.044   3.660  0.6241 -0.4254 -0.1695
15160TIP3    H166971   0.290   0.988   3.635  2.0027  0.5778  1.4931
15160TIP3    H266972   0.204   1.028   3.753  1.8701  2.7995  0.6928
15161TIP3   OH266973   1.763   0.720   5.038  0.4549  0.0770  0.5366
15161TIP3    H166974   1.709   0.653   4.996  1.3662 -0.2177 -0.2131
15161TIP3    H266975   1.733   0.722   5.129  0.4933 -1.4469  0.6092
15162TIP3   OH266976   0.368   1.976  14.760 -0.0745 -0.0704  0.5494
15162TIP3    H166977   0.288   2.025  14.777 -0.8828 -2.0245  2.9816
15162TIP3    H266978   0.413   1.973  14.844  1.9650 -0.1085 -0.4796
15163TIP3   OH266979   3.187   3.022   2.797 -0.4984 -0.3624 -0.6180
15163TIP3    H166980   3.231   3.012   2.881 -0.4552  0.2958 -0.5513
15163TIP3    H266981   3.254   3.059   2.739 -1.0653  1.1274 -0.3798
15164TIP3   OH266982   0.456   4.304   5.485  0.1202  0.0487  0.2916
15164TIP3    H166983   0.447   4.387   5.532 -1.0463 -0.5350  1.1272
15164TIP3    H266984   0.368   4.266   5.486  1.0753 -2.3428  2.0581
15165TIP3   OH266985   5.015   5.706   4.205 -0.3910  0.0676  0.0803
15165TIP3    H166986   5.082   5.643   4.229 -1.9046 -1.3247  0.8558
15165TIP3    H266987   4.953   5.705   4.278 -0.9662  1.7575 -0.3248
15166TIP3   OH266988   4.225   6.181  16.077  0.1306 -0.4591  0.2495
15166TIP3    H166989   4.174   6.188  16.158 -2.7435 -1.6295 -1.2725
15166TIP3    H266990   4.210   6.091  16.048  0.2990  0.1923 -2.0351
15167TIP3   OH266991   3.917   1.032  11.121  0.0006 -0.5392  0.1641
15167TIP3    H166992   4.003   1.072  11.106 -0.1601 -0.2348  0.0605
15167TIP3    H266993   3.862   1.104  11.150 -0.7087 -0.3598 -1.5250
15168TIP3   OH266994   5.588   6.621  11.522  1.0686  0.2654  0.6030
15168TIP3    H166995   5.507   6.600  11.475  0.0481  2.1257  1.4310
15168TIP3    H266996   5.654   6.630  11.453  0.4864 -0.8637 -0.1234
15169TIP3   OH266997   5.306   0.536   6.275 -0.2618  0.3678  0.3287
15169TIP3    H166998   5.375   0.475   6.303  0.7217 -0.1387 -2.8365
15169TIP3    H266999   5.325   0.617   6.322  0.8086 -0.5727  1.5905
15170TIP3   OH267000   5.516   3.572  13.949  0.0883 -0.3101  0.4103
15170TIP3    H167001   5.541   3.489  13.909  0.5189  0.6724 -1.4315
15170TIP3    H267002   5.449   3.548  14.013 -2.2556 -1.8036 -2.3548
15171TIP3   OH267003   2.430   0.034  11.276 -0.6306  0.2193  0.0526
15171TIP3    H167004   2.517   0.072  11.289  0.4459 -1.7927 -0.8489
15171TIP3    H267005   2.375   0.109  11.252  1.1840  1.3444 -0.7940
15172TIP3   OH267006   3.193   5.195  14.996  0.3142  0.4095 -0.2433
15172TIP3    H167007   3.158   5.144  14.923 -1.1836  0.1093  0.6378
15172TIP3    H267008   3.281   5.219  14.969  0.0960 -0.4199 -1.7828
15173TIP3   OH267009   1.802   1.156  11.801  0.4655  0.6353 -0.6333
15173TIP3    H167010   1.758   1.086  11.752  0.6323 -1.5799  2.1159
15173TIP3    H267011   1.886   1.167  11.756  1.0635 -2.0636 -0.3787
15174TIP3   OH267012   1.620   5.341  14.042  0.8062 -0.2694  0.1057
15174TIP3    H167013   1.528   5.324  14.063  0.8471  0.7732  1.2434
15174TIP3    H267014   1.632   5.302  13.955 -0.6690 -0.5343 -0.0122
15175TIP3   OH267015   3.543   6.429   1.467 -0.9322 -0.0350  0.4432
15175TIP3    H167016   3.557   6.456   1.558  0.2127  0.3710  0.1657
15175TIP3    H267017   3.503   6.342   1.474  2.6399 -1.8052  1.4214
15176TIP3   OH267018   2.036   5.722   3.682  0.8999  0.1565 -0.0025
15176TIP3    H167019   1.961   5.718   3.622  0.3956 -1.1319  0.6498
15176TIP3    H267020   2.001   5.687   3.765  1.6929  1.4618  0.9120
15177TIP3   OH267021   3.866   3.739  16.668  0.3662 -0.3013 -0.3792
15177TIP3    H167022   3.852   3.807  16.733  1.7283 -0.4579  0.1208
15177TIP3    H267023   3.800   3.755  16.601  0.3594  1.2256 -0.0372
15178TIP3   OH267024   1.970   3.969   3.351  0.3430  0.7154 -0.3011
15178TIP3    H167025   2.052   3.951   3.397  1.2892  4.9266 -0.0015
15178TIP3    H267026   1.907   3.987   3.421 -0.5822 -1.1211 -0.5827
15179TIP3   OH267027   4.631   2.616  10.918 -0.4600  0.2424 -0.3916
15179TIP3    H167028   4.539   2.606  10.893  0.1131  0.7475 -3.0330
15179TIP3    H267029   4.629   2.631  11.013 -3.2057  1.7139 -0.5717
15180TIP3   OH267030   3.881   5.453   4.235  0.1025 -0.8174 -0.0974
15180TIP3    H167031   3.862   5.360   4.249 -0.6908 -0.2958  3.1043
15180TIP3    H267032   3.822   5.498   4.295 -0.1575  1.8671 -2.1818
15181TIP3   OH267033   3.652   5.937   0.605 -0.3550 -0.2899  0.0609
15181TIP3    H167034   3.566   5.903   0.584  0.3898 -2.0293 -0.3062
15181TIP3    H267035   3.683   5.881   0.676  0.4955  0.2806  0.1527
15182TIP3   OH267036   1.321   2.244   2.651  0.0387 -0.0165 -0.7410
15182TIP3    H167037   1.409   2.265   2.684 -0.4488 -0.1588  0.7312
15182TIP3    H267038   1.337   2.190   2.573  1.2574 -0.5389 -0.1585
15183TIP3   OH267039   6.584   3.720   1.687 -0.0068  0.4069  0.3520
15183TIP3    H167040   6.599   3.801   1.638  1.0942 -0.3968 -0.6851
15183TIP3    H267041   6.624   3.737   1.773 -0.1770  1.1134  0.2977
15184TIP3   OH267042   4.596   0.740   4.892  0.2129 -0.3654  0.5712
15184TIP3    H167043   4.663   0.779   4.835  0.6907 -1.9296  0.0005
15184TIP3    H267044   4.514   0.782   4.865  0.5464 -0.5178 -0.7448
15185TIP3   OH267045   2.059   6.155  13.823  0.0627 -0.0140 -0.9621
15185TIP3    H167046   2.012   6.190  13.748 -0.2164 -2.2529 -1.9228
15185TIP3    H267047   2.138   6.114  13.785  0.9491  0.5523  0.2045
15186TIP3   OH267048   6.704   3.193   1.626  0.1347  0.2382  0.0300
15186TIP3    H167049   6.611   3.203   1.649 -0.6254 -1.2970 -1.9994
15186TIP3    H267050   6.742   3.280   1.638 -1.3332  0.7044  1.7466
15187TIP3   OH267051   4.492   1.373  12.559 -0.1657  0.3368  0.5029
15187TIP3    H167052   4.478   1.280  12.578 -0.9289  0.2893 -0.2596
15187TIP3    H267053   4.552   1.373  12.484  0.1458  0.4624  0.7542
15188TIP3   OH267054   0.612   1.227  15.251  0.4781  0.6070 -0.1832
15188TIP3    H167055   0.544   1.255  15.313  0.1514  0.1658 -0.3349
15188TIP3    H267056   0.654   1.153  15.294 -0.7787 -0.7063 -1.1334
15189TIP3   OH267057   4.792   1.658  13.889  0.0925  0.1839 -0.0241
15189TIP3    H167058   4.867   1.717  13.883  0.6877 -0.6055 -0.7362
15189TIP3    H267059   4.827   1.579  13.929 -0.5125  0.0327  0.2164
15190TIP3   OH267060   1.249   2.418   6.124 -0.5763 -0.2662  0.1391
15190TIP3    H167061   1.257   2.487   6.190 -1.3958  0.8932 -0.9286
15190TIP3    H267062   1.175   2.445   6.070  0.3802 -0.8983 -1.5780
15191TIP3   OH267063   0.886   5.878  14.317  0.7225 -0.0735 -0.6192
15191TIP3    H167064   0.936   5.797  14.308  3.4246  1.2799  0.8291
15191TIP3    H267065   0.908   5.910  14.405 -3.2598  0.3866  0.4098
15192TIP3   OH267066   5.730   2.868  12.858  0.0561  0.0539 -0.0499
15192TIP3    H167067   5.809   2.917  12.834  1.2763 -1.0254  1.5744
15192TIP3    H267068   5.739   2.784  12.814  0.8408 -0.8114  1.6713
15193TIP3   OH267069   4.846   2.113  15.230 -0.2481 -0.3359 -0.6976
15193TIP3    H167070   4.753   2.120  15.208 -1.3974 -1.7479  2.8751
15193TIP3    H267071   4.873   2.029  15.194 -0.3658  0.0007 -1.5989
15194TIP3   OH267072   3.828   6.056   3.136  0.2572 -0.6131  0.0754
15194TIP3    H167073   3.789   5.996   3.074 -3.2607  0.6895  0.7729
15194TIP3    H267074   3.856   6.131   3.083 -0.3378 -0.6131 -0.2505
15195TIP3   OH267075   3.252   6.585   3.147  0.0612 -0.2301  0.1375
15195TIP3    H167076   3.173   6.577   3.094 -0.3176  2.1070  0.2155
15195TIP3    H267077   3.306   6.650   3.100  1.2816 -0.6901  0.8458
15196TIP3   OH267078   5.859   3.038   1.177  0.0006 -0.0859  0.0620
15196TIP3    H167079   5.904   3.084   1.106  0.3247  2.2222  1.6490
15196TIP3    H267080   5.776   3.085   1.187 -1.1163 -1.8685 -0.2777
15197TIP3   OH267081   4.303   3.878  14.422  0.4270  0.4763 -0.3725
15197TIP3    H167082   4.327   3.968  14.446  0.3962  0.8331 -1.6128
15197TIP3    H267083   4.273   3.839  14.504  0.0333  1.7270  0.1077
15198TIP3   OH267084   0.241   4.813  15.055 -0.1750 -0.1538  0.0764
15198TIP3    H167085   0.305   4.825  14.985  0.0362 -1.7226 -0.0525
15198TIP3    H267086   0.157   4.805  15.009 -0.1897 -0.0392  0.0849
15199TIP3   OH267087   5.790   2.064  11.720  0.6969  0.1072  0.0151
15199TIP3    H167088   5.870   2.081  11.771  0.3907 -0.1869  0.5984
15199TIP3    H267089   5.810   1.985  11.671  0.8204  0.1239  0.0366
15200TIP3   OH267090   4.355   2.711  16.077 -0.6602  0.3821 -0.2006
15200TIP3    H167091   4.399   2.657  16.011  0.4176  1.4246 -0.3820
15200TIP3    H267092   4.412   2.706  16.154 -1.3860 -0.0148  0.3221
15201TIP3   OH267093   6.343   6.442  11.859  0.0447  0.1132 -0.5291
15201TIP3    H167094   6.307   6.454  11.771  0.2069  1.4689 -0.4328
15201TIP3    H267095   6.268   6.419  11.913 -0.0341 -0.8768 -1.0402
15202TIP3   OH267096   2.997   4.780   3.642  0.2207 -0.3777 -0.3936
15202TIP3    H167097   2.934   4.807   3.709 -0.5577  1.0325 -1.6172
15202TIP3    H267098   3.008   4.858   3.587 -0.5494 -1.9278 -2.9437
15203TIP3   OH267099   4.344   2.994   4.932  0.3241  0.0844  0.2468
15203TIP3    H167100   4.371   2.915   4.979 -1.2545  0.0466  1.1454
15203TIP3    H267101   4.348   3.064   4.997 -1.3391  0.1340  0.3453
15204TIP3   OH267102   4.201   2.588   2.170  0.1897 -0.1018  0.3648
15204TIP3    H167103   4.176   2.627   2.086  1.3814  0.5993  0.3113
15204TIP3    H267104   4.121   2.594   2.224 -0.1631  0.8066 -0.2328
15205TIP3   OH267105   2.428   1.294   4.862  0.3680  0.0901 -0.1601
15205TIP3    H167106   2.334   1.292   4.877  0.0917 -0.0460 -1.7582
15205TIP3    H267107   2.439   1.344   4.782  1.3621 -2.5178 -1.7809
15206TIP3   OH267108   2.970   3.877  11.138  0.1970  0.1959  0.0855
15206TIP3    H167109   2.876   3.870  11.121  0.4190  0.5319 -1.3919
15206TIP3    H267110   3.005   3.927  11.064  1.4858  0.4464  0.8157
15207TIP3   OH267111   6.194   5.523  13.738  0.4987 -0.2394  0.1352
15207TIP3    H167112   6.276   5.528  13.688  0.9582 -0.7640  0.8234
15207TIP3    H267113   6.222   5.507  13.828 -0.4076 -3.8594 -0.0901
15208TIP3   OH267114   4.696   1.506  12.714 -0.0089 -0.5172  0.0872
15208TIP3    H167115   4.672   1.597  12.698  1.7467 -0.1201 -0.4515
15208TIP3    H267116   4.628   1.455  12.670 -1.8505  0.4832  1.6434
15209TIP3   OH267117   4.245   5.552   0.069  0.4005 -0.4190 -0.0549
15209TIP3    H167118   4.210   5.590  -0.012  0.3345  0.1951  0.2554
15209TIP3    H267119   4.170   5.553   0.129  0.3709 -1.1360 -0.0664
15210TIP3   OH267120   2.994   4.834  13.480 -0.6099  0.1302 -0.4287
15210TIP3    H167121   3.053   4.782  13.535 -0.0932  1.3929  0.2379
15210TIP3    H267122   2.906   4.810  13.512 -0.3627 -0.0126  0.1575
15211TIP3   OH267123   1.296   6.485  12.878  0.1561 -0.2732 -0.0533
15211TIP3    H167124   1.277   6.405  12.928 -1.0334 -1.2089 -1.8580
15211TIP3    H267125   1.273   6.557  12.937  0.4170 -1.2814  1.3093
15212TIP3   OH267126   0.829   1.602  15.292 -0.3140  0.1955 -0.0800
15212TIP3    H167127   0.802   1.692  15.311 -0.9448  0.3948 -1.7718
15212TIP3    H267128   0.770   1.548  15.345 -1.9235  0.7255 -1.2644
15213TIP3   OH267129   3.040   1.480  10.994  0.0890  0.7197 -0.8523
15213TIP3    H167130   3.056   1.526  10.911 -1.1048  1.6258 -0.6094
15213TIP3    H267131   3.013   1.392  10.968  1.5968  0.3639 -1.3501
15214TIP3   OH267132   3.264   4.909  17.026  0.7612  0.0894 -0.0425
15214TIP3    H167133   3.238   4.895  16.935  1.5507 -3.2561  0.1103
15214TIP3    H267134   3.296   4.824  17.055  2.1564  1.4648  2.8801
15215TIP3   OH267135   6.027   3.969  10.740  0.0411 -0.6468  0.0458
15215TIP3    H167136   5.961   3.966  10.810 -1.1847 -1.3536 -1.0767
15215TIP3    H267137   5.981   3.936  10.663  1.3345  0.1621 -1.1211
15216TIP3   OH267138   1.242   2.550  10.824 -0.7168 -0.1961 -0.2080
15216TIP3    H167139   1.329   2.510  10.835  0.2166  2.1226  1.7386
15216TIP3    H267140   1.196   2.491  10.764  1.9334 -1.9026 -0.7372
15217TIP3   OH267141   4.847   4.995  11.930  0.1248 -0.1790  0.2024
15217TIP3    H167142   4.892   4.914  11.953  0.1203 -0.8314 -1.9024
15217TIP3    H267143   4.900   5.064  11.971  1.1997 -1.1210  0.4447
15218TIP3   OH267144   6.338   5.141  15.980  0.0187 -0.0787 -0.8090
15218TIP3    H167145   6.266   5.162  15.922  0.0960  1.8601 -0.2592
15218TIP3    H267146   6.366   5.225  16.016  1.9672 -0.8735 -0.3180
15219TIP3   OH267147   4.386   1.450  15.669 -0.7555 -0.0581 -0.2758
15219TIP3    H167148   4.326   1.408  15.731 -0.4401 -0.3334 -0.1499
15219TIP3    H267149   4.366   1.409  15.585  0.5501 -1.5686  0.0981
15220TIP3   OH267150   2.040   6.039  16.971  0.3160  0.1119  0.3256
15220TIP3    H167151   2.081   6.126  16.968  1.5683 -0.3933  1.9416
15220TIP3    H267152   2.101   5.982  16.925 -0.0973 -0.0903  0.0188
15221TIP3   OH267153   4.731   6.579  13.199  0.5711  0.4274 -0.7257
15221TIP3    H167154   4.729   6.621  13.114  1.5006  2.8926  0.3671
15221TIP3    H267155   4.814   6.532  13.202 -0.5674 -1.8429 -2.0348
15222TIP3   OH267156   6.201   4.622   0.206 -0.3252 -0.1679  0.1640
15222TIP3    H167157   6.241   4.660   0.128  0.1527 -1.0204 -0.0193
15222TIP3    H267158   6.176   4.533   0.180  0.2925 -0.6453  1.1174
15223TIP3   OH267159   6.693   2.812  10.293  0.0855 -0.1725  0.0305
15223TIP3    H167160   6.773   2.844  10.335  0.2284  2.3628 -1.9159
15223TIP3    H267161   6.720   2.733  10.246  1.2120  0.0874  0.2035
15224TIP3   OH267162   6.691   6.679  16.396 -0.5615 -0.0297  0.2301
15224TIP3    H167163   6.659   6.638  16.315 -1.7325  2.1304 -0.4959
15224TIP3    H267164   6.628   6.652  16.463 -0.6377 -0.3760  0.0208
15225TIP3   OH267165   3.601   0.170  13.821 -0.1427 -0.1235 -0.2449
15225TIP3    H167166   3.592   0.079  13.792 -0.4859  0.3301 -1.6334
15225TIP3    H267167   3.681   0.200  13.778  0.7818 -0.1708  1.3711
15226TIP3   OH267168   4.261   5.857  16.819 -0.2232 -0.1750  0.3197
15226TIP3    H167169   4.304   5.814  16.745  2.9200 -2.1435  3.0291
15226TIP3    H267170   4.189   5.799  16.842 -0.8868  0.1721 -0.8311
15227TIP3   OH267171   3.134   4.202  15.941 -0.3324  0.0938 -0.3757
15227TIP3    H167172   3.198   4.250  15.994 -0.7632  1.9707 -1.5047
15227TIP3    H267173   3.172   4.199  15.854 -1.5313  0.8000 -0.9493
15228TIP3   OH267174   6.085   6.732   3.038 -0.2818  0.3311 -0.2646
15228TIP3    H167175   6.151   6.735   2.969  0.6494 -1.4029  0.4875
15228TIP3    H267176   6.030   6.810   3.022  0.7149  0.7241 -2.1006
15229TIP3   OH267177   3.494   4.441  11.119 -0.2354 -0.2651  0.1507
15229TIP3    H167178   3.438   4.474  11.190  0.3009  1.1893 -0.0679
15229TIP3    H267179   3.582   4.439  11.157  0.2779  1.7301 -0.7714
15230TIP3   OH267180   2.026   3.023  12.255 -0.5247 -0.2800  0.3697
15230TIP3    H167181   2.105   3.065  12.290 -1.9379  2.4215  0.5945
15230TIP3    H267182   2.046   3.008  12.163  0.1700  0.6237  0.3589
15231TIP3   OH267183   1.966   1.384   3.883  0.0899  0.5267  0.6620
15231TIP3    H167184   1.885   1.431   3.903 -0.0833  0.0554  1.0873
15231TIP3    H267185   2.011   1.377   3.968 -0.2803 -0.8056  0.7564
15232TIP3   OH267186   4.092   4.892   3.172 -0.0706 -0.0235  0.0156
15232TIP3    H167187   4.133   4.970   3.133  1.0329 -1.3273 -1.5964
15232TIP3    H267188   4.045   4.851   3.099  0.0102 -1.2650  0.6344
15233TIP3   OH267189   0.808   5.388  16.098 -0.0159 -0.5747 -0.0169
15233TIP3    H167190   0.786   5.304  16.058 -1.9013  0.2271 -0.7859
15233TIP3    H267191   0.882   5.420  16.046 -0.5733 -0.8684 -1.0280
15234TIP3   OH267192   2.835   0.225  11.581  0.5816 -0.1808 -0.1347
15234TIP3    H167193   2.789   0.309  11.588 -1.2727 -1.0687 -0.9108
15234TIP3    H267194   2.841   0.193  11.671 -3.3483 -1.4888 -0.1466
15235TIP3   OH267195   5.052   0.070   4.871 -0.1931  0.3401 -0.3781
15235TIP3    H167196   5.146   0.081   4.853  0.1120 -0.9755  0.2647
15235TIP3    H267197   5.012   0.061   4.785 -0.1615  3.5142 -0.8579
15236TIP3   OH267198   1.557   6.409  16.603  0.3380 -0.2728  0.9333
15236TIP3    H167199   1.604   6.392  16.684  1.4018 -0.6386  0.2684
15236TIP3    H267200   1.608   6.364  16.536 -1.2305 -1.0892  0.2253
15237TIP3   OH267201   2.515   0.570   3.151 -0.0582  0.3452 -0.4333
15237TIP3    H167202   2.475   0.499   3.101 -0.2960  0.4788 -0.4361
15237TIP3    H267203   2.585   0.602   3.095 -0.5623  0.7394 -0.8452
15238TIP3   OH267204   0.039   5.472   4.191  0.1738 -0.1561  0.2183
15238TIP3    H167205   0.095   5.466   4.269  1.9734  1.7492 -0.8273
15238TIP3    H267206   0.086   5.423   4.124 -0.6498 -0.5897 -0.0463
15239TIP3   OH267207   0.256   0.800  12.756  0.0865 -0.3933 -0.0906
15239TIP3    H167208   0.209   0.809  12.838 -1.5210 -1.7671 -0.7953
15239TIP3    H267209   0.189   0.811  12.688  1.2240 -0.0361 -1.2120
15240TIP3   OH267210   6.618   2.381   4.724  0.2509 -0.4016 -0.8961
15240TIP3    H167211   6.639   2.469   4.755  1.3468 -0.7294 -0.6904
15240TIP3    H267212   6.698   2.331   4.738 -0.6473 -1.6753 -0.1376
15241TIP3   OH267213   3.059   6.804  16.971  0.0438 -0.4509  0.3886
15241TIP3    H167214   3.127   6.860  16.933  1.3229 -1.1336  1.5965
15241TIP3    H267215   3.078   6.717  16.937 -0.6538 -0.5288  0.1903
15242TIP3   OH267216   5.625   3.249   3.429  0.0048 -0.0881 -0.0941
15242TIP3    H167217   5.633   3.332   3.475  2.7925 -0.2591 -0.0935
15242TIP3    H267218   5.592   3.272   3.342 -1.5263  0.6895  0.6515
15243TIP3   OH267219   6.768   3.837   5.333  0.5970 -0.0792 -0.1112
15243TIP3    H167220   6.773   3.870   5.423 -1.1218 -0.4704  0.1733
15243TIP3    H267221   6.691   3.880   5.296  0.3822 -1.0877 -0.8824
15244TIP3   OH267222   4.152   1.091   3.093 -0.4447 -0.1438 -0.0219
15244TIP3    H167223   4.131   1.149   3.020  0.3706  0.9208  0.5634
15244TIP3    H267224   4.146   1.147   3.171  1.0333 -0.6536  0.4974
15245TIP3   OH267225   0.537   5.029  13.494 -0.4702 -0.0131 -0.3048
15245TIP3    H167226   0.581   4.992  13.571  0.2094 -1.4344 -1.3265
15245TIP3    H267227   0.491   5.106  13.528  0.3715 -0.1899  1.3817
15246TIP3   OH267228   0.233   5.667  17.139 -0.8699 -0.0388  0.3682
15246TIP3    H167229   0.247   5.592  17.197  0.8812  0.0058  0.0587
15246TIP3    H267230   0.274   5.640  17.056 -0.6547  1.0594  0.1051
15247TIP3   OH267231   4.806   0.314  12.511 -0.8884 -0.3488 -0.0939
15247TIP3    H167232   4.738   0.246  12.509 -0.6512 -0.6843 -3.7088
15247TIP3    H267233   4.888   0.265  12.508 -0.3357  0.0833  3.3977
15248TIP3   OH267234   6.733   4.273  13.857 -0.3301  0.0885  0.4482
15248TIP3    H167235   6.723   4.178  13.867 -0.8218 -0.1238 -1.7083
15248TIP3    H267236   6.647   4.304  13.831 -0.3789  1.2921  1.8806
15249TIP3   OH267237   3.361   1.361  14.736  0.3094  0.4762  0.3276
15249TIP3    H167238   3.322   1.327  14.656 -0.6247 -0.1049  1.0135
15249TIP3    H267239   3.287   1.372  14.797  0.9426  1.2832  0.9853
15250TIP3   OH267240   3.941   0.170   1.547  0.0065 -0.3816 -0.2081
15250TIP3    H167241   4.027   0.136   1.521  0.8422  0.2308  1.5834
15250TIP3    H267242   3.957   0.262   1.570 -1.4677  0.2059 -1.3384
15251TIP3   OH267243   5.748   2.324  11.846 -0.6643 -0.9372  0.0288
15251TIP3    H167244   5.736   2.264  11.772 -0.3234 -0.5651 -0.3267
15251TIP3    H267245   5.812   2.280  11.902 -0.3489 -0.8645 -0.2743
15252TIP3   OH267246   5.575   1.544   3.857  0.4807  0.2012  0.1854
15252TIP3    H167247   5.669   1.555   3.868  0.4671 -0.1086  0.6320
15252TIP3    H267248   5.565   1.455   3.824  0.4050  0.5634 -0.8063
15253TIP3   OH267249   3.484   6.674  12.241  0.0063 -0.2092  0.0986
15253TIP3    H167250   3.513   6.638  12.158 -0.8854  0.4578 -0.5192
15253TIP3    H267251   3.422   6.742  12.217  0.0155  0.2425  1.3040
15254TIP3   OH267252   0.315   2.830   4.678 -0.3450  1.0277 -0.6398
15254TIP3    H167253   0.235   2.838   4.626  0.0794  0.6154 -1.3548
15254TIP3    H267254   0.378   2.888   4.635 -0.1078  0.9852 -0.3512
15255TIP3   OH267255   5.619   3.369   0.056 -0.2133  0.6723  0.2829
15255TIP3    H167256   5.625   3.429   0.131  1.5511  1.7726 -0.6478
15255TIP3    H267257   5.526   3.365   0.036 -0.4779  2.4847  0.8969
15256TIP3   OH267258   1.514   0.770   0.499 -0.4878 -0.3160  0.0362
15256TIP3    H167259   1.590   0.768   0.439  0.8278  0.7701  1.5689
15256TIP3    H267260   1.462   0.844   0.467  0.5783  0.7230  0.5886
15257TIP3   OH267261   3.540   1.157   2.747  0.0539 -0.0856  0.9524
15257TIP3    H167262   3.550   1.068   2.712 -0.2149 -0.3739  1.6003
15257TIP3    H267263   3.448   1.178   2.734  0.3937  0.6253 -0.4213
15258TIP3   OH267264   4.686   2.333  10.905 -0.1646  0.2183 -0.0642
15258TIP3    H167265   4.745   2.325  10.830  0.1840  1.4675  0.0577
15258TIP3    H267266   4.662   2.426  10.907  0.0779  0.2733  1.5579
15259TIP3   OH267267   3.845   3.166   4.912 -0.0263  0.7247 -0.4090
15259TIP3    H167268   3.790   3.201   4.983 -1.6305 -2.1172 -0.0809
15259TIP3    H267269   3.792   3.179   4.833 -0.1724 -0.0205 -0.4325
15260TIP3   OH267270   0.313   1.707   0.369  1.0285  0.1780  0.1479
15260TIP3    H167271   0.227   1.747   0.381  1.0049 -0.1466  1.1436
15260TIP3    H267272   0.344   1.688   0.458  0.8706 -2.3614 -0.2697
15261TIP3   OH267273   3.556   3.111  13.429 -0.0505  0.4436 -0.0115
15261TIP3    H167274   3.565   3.057  13.507 -1.2049 -0.3870 -0.4158
15261TIP3    H267275   3.464   3.101  13.403  0.1006  1.3705 -0.9902
15262TIP3   OH267276   6.841   4.219  11.537  0.4271  0.4288 -0.0246
15262TIP3    H167277   6.779   4.289  11.519  0.0660 -0.2877 -1.7382
15262TIP3    H267278   6.841   4.211  11.633 -1.8079  0.7298  0.0445
15263TIP3   OH267279   0.532   5.381   2.511  0.2760 -0.2621  0.3205
15263TIP3    H167280   0.546   5.466   2.553  2.0503 -0.6440  0.5897
15263TIP3    H267281   0.574   5.318   2.569 -1.5340 -1.4371  0.4325
15264TIP3   OH267282   1.372   0.088  12.846 -0.0295 -0.1748 -0.3737
15264TIP3    H167283   1.280   0.114  12.851  0.5975  2.0440  1.3677
15264TIP3    H267284   1.408   0.138  12.772  0.2171  0.6297  0.2754
15265TIP3   OH267285   2.987   5.434  12.296 -0.0496 -0.0983  0.0546
15265TIP3    H167286   2.992   5.353  12.246 -0.6110  1.1309 -2.1141
15265TIP3    H267287   2.898   5.436  12.331 -0.1492 -0.2547 -0.1918
15266TIP3   OH267288   1.329   1.471  15.598  0.1576 -0.2233  0.0514
15266TIP3    H167289   1.307   1.387  15.557  1.4537  0.1331 -1.5080
15266TIP3    H267290   1.423   1.481  15.582 -0.0531  1.7142 -0.1961
15267TIP3   OH267291   3.452   6.784   2.289  0.4791  0.0286 -0.2378
15267TIP3    H167292   3.409   6.803   2.372 -0.8749  0.6090 -1.0469
15267TIP3    H267293   3.544   6.808   2.304  0.3581 -0.3196  1.2151
15268TIP3   OH267294   4.204   3.181  13.721  0.1389 -0.2015  0.2131
15268TIP3    H167295   4.266   3.247  13.691  0.3750 -0.6487 -0.2910
15268TIP3    H267296   4.140   3.174  13.649 -1.0363  0.9161  1.0982
15269TIP3   OH267297   1.854   2.733   3.913  0.0648 -0.0709  0.1467
15269TIP3    H167298   1.911   2.781   3.972 -0.9037  2.4418 -0.8546
15269TIP3    H267299   1.849   2.787   3.834 -1.7992 -1.3971 -0.7283
15270TIP3   OH267300   3.032   6.800  16.422 -0.0509  0.2205  0.6914
15270TIP3    H167301   3.104   6.751  16.460  2.1140  2.4212 -0.2766
15270TIP3    H267302   3.032   6.775  16.329 -0.9530 -0.2331  0.8080
15271TIP3   OH267303   4.711   4.123   5.844  0.3948 -0.0859  0.2050
15271TIP3    H167304   4.797   4.100   5.810  0.5704  0.5722  0.1959
15271TIP3    H267305   4.676   4.186   5.782  0.1511  0.0947  0.5193
15272TIP3   OH267306   6.514   4.075  13.788 -0.2635  0.4603 -0.1743
15272TIP3    H167307   6.586   4.037  13.837 -2.1446 -2.4675  0.5248
15272TIP3    H267308   6.502   4.017  13.713 -2.5778  0.1469  0.3470
15273TIP3   OH267309   4.337   4.134   0.682 -0.4400  0.0240 -0.7943
15273TIP3    H167310   4.263   4.181   0.643 -0.3798 -0.1262 -1.0883
15273TIP3    H267311   4.413   4.161   0.630 -0.3547 -0.1517 -0.7620
15274TIP3   OH267312   6.743   5.335  12.986  0.5106  0.5218 -0.0867
15274TIP3    H167313   6.717   5.421  13.019 -1.3895  0.5378 -1.4686
15274TIP3    H267314   6.698   5.273  13.044  1.3763  0.4425  0.5204
15275TIP3   OH267315   5.116   1.833   2.652  0.3467  0.6539  0.1335
15275TIP3    H167316   5.205   1.817   2.620  0.5938 -0.2920  1.2327
15275TIP3    H267317   5.089   1.913   2.607  0.5424 -0.7033 -2.6349
15276TIP3   OH267318   1.624   5.640   5.943  0.6434  0.0403  0.2530
15276TIP3    H167319   1.588   5.625   5.855 -0.5316  0.9215  0.5540
15276TIP3    H267320   1.583   5.571   5.997  1.6630 -0.7421  0.0555
15277TIP3   OH267321   2.840   1.214  11.246  0.0794 -0.5846  0.6855
15277TIP3    H167322   2.766   1.171  11.290 -1.4055  2.1059  1.0168
15277TIP3    H267323   2.814   1.217  11.154 -0.1008  0.0932  0.7559
15278TIP3   OH267324   6.311   2.638  14.410 -0.3977 -0.3859  0.8272
15278TIP3    H167325   6.283   2.631  14.501 -1.6906 -0.8275  0.4106
15278TIP3    H267326   6.405   2.656  14.415 -0.3236 -1.0755  2.2330
15279TIP3   OH267327   0.085   1.956   4.801 -0.3326 -0.1927  0.2703
15279TIP3    H167328   0.150   1.993   4.860 -0.0091  0.6859 -0.6169
15279TIP3    H267329   0.098   2.002   4.718 -0.9985 -1.1587 -0.3977
15280TIP3   OH267330   0.586   5.266   3.307 -0.3007  0.0769 -0.2224
15280TIP3    H167331   0.675   5.230   3.309  0.1559  1.1743  0.3358
15280TIP3    H267332   0.593   5.347   3.357 -1.3695  0.7586 -1.1492
15281TIP3   OH267333   3.629   2.699   2.359 -0.5221 -0.5893 -0.6021
15281TIP3    H167334   3.538   2.672   2.354 -1.2295  1.2091  1.2202
15281TIP3    H267335   3.670   2.638   2.420 -0.9660 -0.3505 -0.0552
15282TIP3   OH267336   0.103   6.840   1.560  0.4528 -0.4937  0.6613
15282TIP3    H167337   0.135   6.803   1.477  0.7198  0.1262  0.4822
15282TIP3    H267338   0.012   6.810   1.566  0.6910 -1.2801  0.5851
15283TIP3   OH267339   1.590   2.244   1.901  0.3947  0.8596  0.0986
15283TIP3    H167340   1.548   2.325   1.930 -0.7784  0.4357 -0.3381
15283TIP3    H267341   1.539   2.217   1.824 -0.5275 -1.3196  1.3542
15284TIP3   OH267342   5.254   1.307  13.943  0.4452  0.2626 -0.3516
15284TIP3    H167343   5.333   1.264  13.977 -0.1317 -0.7515 -0.2517
15284TIP3    H267344   5.287   1.364  13.874  1.4620  1.1780  0.8344
15285TIP3   OH267345   4.489   5.707  12.864 -0.3694 -0.1343 -0.1384
15285TIP3    H167346   4.573   5.671  12.837  1.8124  2.8096  2.0518
15285TIP3    H267347   4.468   5.661  12.945  1.2988  1.7617  1.4739
15286TIP3   OH267348   2.427   1.701   5.699 -0.1034  0.5197 -0.2726
15286TIP3    H167349   2.521   1.692   5.714  0.3620  1.3774 -2.4118
15286TIP3    H267350   2.387   1.666   5.779  2.0482  2.0555  1.5850
15287TIP3   OH267351   4.623   3.849  13.747  0.1639  0.0814 -0.5078
15287TIP3    H167352   4.693   3.905  13.713  0.2000  1.1514  1.1945
15287TIP3    H267353   4.641   3.842  13.840 -0.4330 -1.9770 -0.5068
15288TIP3   OH267354   2.199   1.733  14.399 -0.0008 -0.0436  0.1309
15288TIP3    H167355   2.185   1.694  14.313 -0.3068 -0.7200  0.4745
15288TIP3    H267356   2.162   1.821  14.392  1.2939  0.4469 -0.8573
15289TIP3   OH267357   1.053   3.848   4.266 -0.3299  0.6017  0.0745
15289TIP3    H167358   1.144   3.878   4.257 -0.0871 -0.0515  0.2849
15289TIP3    H267359   1.022   3.890   4.346 -0.0410  0.4315  0.2814
15290TIP3   OH267360   2.298   5.042  11.602 -0.3455  1.1719 -0.4717
15290TIP3    H167361   2.359   4.969  11.611 -1.4376  0.2504 -0.3255
15290TIP3    H267362   2.345   5.106  11.549  0.6096  0.3383 -0.6610
15291TIP3   OH267363   4.928   1.665  13.066 -0.3765  0.0230 -0.5321
15291TIP3    H167364   4.909   1.758  13.073 -0.3197  0.0193 -0.3372
15291TIP3    H267365   4.968   1.641  13.150 -1.4590 -0.4308 -0.1228
15292TIP3   OH267366   6.700   2.182   2.882 -0.4864  0.3584  0.0639
15292TIP3    H167367   6.789   2.149   2.874 -0.8535 -1.7288  2.7574
15292TIP3    H267368   6.680   2.221   2.797  2.8716  0.7386 -0.6921
15293TIP3   OH267369   6.484   3.128  11.010  0.6769  0.4315  0.3894
15293TIP3    H167370   6.505   3.203  10.953 -0.6692  0.6190  0.1053
15293TIP3    H267371   6.406   3.089  10.971  0.4706 -0.2068  1.3982
15294TIP3   OH267372   1.228   2.589  16.233 -0.6286  0.2652 -0.5870
15294TIP3    H167373   1.234   2.618  16.324 -0.5795  2.0428 -1.1319
15294TIP3    H267374   1.255   2.497  16.236  1.8488  0.9328  0.8609
15295TIP3   OH267375   2.518   5.082   1.329 -0.0097  0.6168  0.3449
15295TIP3    H167376   2.525   5.141   1.405 -0.7620 -1.4065  2.0977
15295TIP3    H267377   2.434   5.038   1.341  0.5318 -0.8176 -0.8487
15296TIP3   OH267378   6.091   3.453  17.059  0.5851  0.0424 -0.1460
15296TIP3    H167379   6.015   3.431  17.006  1.6780  1.8198 -2.6489
15296TIP3    H267380   6.055   3.472  17.146 -1.6562 -0.1803 -0.9520
15297TIP3   OH267381   3.320   2.514   1.175 -0.3177 -0.1277  0.5001
15297TIP3    H167382   3.323   2.426   1.136  0.0780 -0.4470  1.2222
15297TIP3    H267383   3.369   2.569   1.114  0.3545 -0.6337  0.5761
15298TIP3   OH267384   6.411   4.431  15.754  0.2162 -0.2084 -0.0308
15298TIP3    H167385   6.449   4.399  15.835  0.5948 -0.0019 -0.1242
15298TIP3    H267386   6.400   4.525  15.768 -1.4796 -0.4563  0.4775
15299TIP3   OH267387   1.340   0.528  15.396  0.0394  0.2348  0.5815
15299TIP3    H167388   1.325   0.482  15.478 -0.0556 -1.9832 -0.5981
15299TIP3    H267389   1.258   0.520  15.347 -0.5322  3.0574  0.8661
15300TIP3   OH267390   0.140   5.882  11.572 -0.5747 -0.0397  0.1617
15300TIP3    H167391   0.169   5.838  11.652 -2.1931  1.1232  1.4523
15300TIP3    H267392   0.217   5.930  11.541  0.2816 -1.1152  0.5649
15301TIP3   OH267393   4.077   1.023   6.539 -0.1049  0.0410  0.7418
15301TIP3    H167394   4.054   1.103   6.491  0.1814 -0.9117 -1.0966
15301TIP3    H267395   3.995   0.994   6.579 -0.6464  0.2471 -0.1919
15302TIP3   OH267396   3.994   1.359  15.519  0.2447  1.2230 -0.8170
15302TIP3    H167397   4.042   1.308  15.584  0.5111 -0.8107 -2.4883
15302TIP3    H267398   4.058   1.421  15.484  0.6203  1.0403 -0.4531
15303TIP3   OH267399   2.939   3.644  13.536 -0.0161  0.1960  0.5155
15303TIP3    H167400   2.914   3.684  13.620 -0.9812  0.3536  0.1611
15303TIP3    H267401   2.925   3.714  13.472  0.2495 -0.0794  0.1562
15304TIP3   OH267402   2.649   5.016   2.986 -0.0147 -0.1461 -0.6443
15304TIP3    H167403   2.702   4.962   3.044  0.5476 -1.9219 -2.6614
15304TIP3    H267404   2.573   4.961   2.966 -0.1455  0.3669 -1.6165
15305TIP3   OH267405   4.951   5.404   4.154 -0.7513  0.2193 -0.3607
15305TIP3    H167406   4.902   5.452   4.220 -1.8529 -0.0477 -0.9645
15305TIP3    H267407   4.917   5.435   4.070  0.5203  0.4486 -0.8242
15306TIP3   OH267408   3.716   4.395   6.088  0.0248 -0.1656 -0.4825
15306TIP3    H167409   3.710   4.303   6.113  0.4527 -0.1360 -0.2623
15306TIP3    H267410   3.764   4.436   6.160 -0.1537  0.2298 -0.5848
15307TIP3   OH267411   4.697   0.673  10.445 -0.3375 -0.2589  0.2461
15307TIP3    H167412   4.702   0.749  10.503  0.9880  2.3380 -2.9314
15307TIP3    H267413   4.786   0.637  10.445 -0.4333 -0.5002  0.1535
15308TIP3   OH267414   1.237   2.167   5.119 -0.8388  0.7310 -0.1383
15308TIP3    H167415   1.194   2.159   5.034  0.0531 -1.4823 -0.4659
15308TIP3    H267416   1.292   2.244   5.112 -1.6052  1.2051 -1.1694
15309TIP3   OH267417   6.840   0.065  12.566 -0.1705  0.3421 -0.0231
15309TIP3    H167418   6.859   0.115  12.487  0.2945  1.9622  1.0877
15309TIP3    H267419   6.766   0.110  12.606  0.5157  0.4195  1.2135
15310TIP3   OH267420   0.011   2.056   1.727  0.0960  0.5757  0.2244
15310TIP3    H167421  -0.062   2.067   1.788 -1.6980 -2.6017 -1.1611
15310TIP3    H267422  -0.005   2.120   1.658 -1.0855  0.3011  0.2294
15311TIP3   OH267423   4.210   5.230   6.334 -0.6357  0.0280  0.1050
15311TIP3    H167424   4.259   5.254   6.256  1.4319 -0.8007  1.0705
15311TIP3    H267425   4.192   5.313   6.378 -0.2910  0.3581 -0.3683
15312TIP3   OH267426   0.255   4.926   2.648 -1.1291 -0.2777  0.1376
15312TIP3    H167427   0.161   4.909   2.641 -1.2895  1.0662 -1.9715
15312TIP3    H267428   0.282   4.944   2.558  0.9133  0.5071  0.8601
15313TIP3   OH267429   3.502   2.130  16.487 -0.7183 -0.2811 -0.6201
15313TIP3    H167430   3.561   2.205  16.487 -0.2790 -0.5869  1.1331
15313TIP3    H267431   3.430   2.155  16.544 -0.1275 -1.4722  0.7228
15314TIP3   OH267432   1.094   1.610  15.031 -0.1632 -0.6107 -0.2947
15314TIP3    H167433   1.062   1.694  14.999  1.2900  0.2738  0.4380
15314TIP3    H267434   1.151   1.578  14.962  0.7364 -0.0782  0.1845
15315TIP3   OH267435   0.291   1.569  15.450 -0.6410 -0.0151 -0.8237
15315TIP3    H167436   0.236   1.640  15.417 -0.4409  1.5232  1.8662
15315TIP3    H267437   0.327   1.602  15.532  3.2307 -1.4769 -1.6959
15316TIP3   OH267438   5.750   6.303   0.661  0.3206 -0.0770 -0.2122
15316TIP3    H167439   5.735   6.372   0.726 -0.0976 -0.7597  0.4241
15316TIP3    H267440   5.819   6.339   0.605 -0.5501  1.2560 -0.4811
15317TIP3   OH267441   4.669   4.573   3.317  0.2379  0.0910  0.7954
15317TIP3    H167442   4.674   4.574   3.413 -1.2462 -0.5827  0.9119
15317TIP3    H267443   4.596   4.632   3.297 -0.1119 -0.5509  0.1539
15318TIP3   OH267444   5.445   6.125   0.050 -0.0565  0.3361 -0.4924
15318TIP3    H167445   5.478   6.103   0.137 -0.2307  0.4451 -0.3978
15318TIP3    H267446   5.352   6.142   0.064 -0.1021  0.2667 -0.7155
15319TIP3   OH267447   1.148   2.135  12.032  0.0790  0.2467 -0.4757
15319TIP3    H167448   1.088   2.130  11.958 -0.1985 -1.0874 -0.1815
15319TIP3    H267449   1.208   2.206  12.009  0.5644 -0.7162 -2.4042
15320TIP3   OH267450   1.478   2.907   5.313 -0.1733 -0.5122 -0.1621
15320TIP3    H167451   1.524   2.973   5.261  3.1272 -1.3397  1.3644
15320TIP3    H267452   1.391   2.944   5.328  0.7756  2.4592 -1.1945
15321TIP3   OH267453   3.926   4.626   3.719  0.6744  0.4406  0.4468
15321TIP3    H167454   3.974   4.551   3.685  2.5904  1.7985 -0.0414
15321TIP3    H267455   3.941   4.624   3.813 -1.0365 -0.9091  0.7353
15322TIP3   OH267456   0.140   4.035   4.218 -0.0675 -0.8665 -0.4113
15322TIP3    H167457   0.213   4.074   4.266  0.2762 -0.8951 -0.8941
15322TIP3    H267458   0.062   4.056   4.270  0.2064 -0.2380 -0.2462
15323TIP3   OH267459   0.047   3.061   0.381  0.0551 -1.0027  0.0892
15323TIP3    H167460   0.027   3.034   0.292 -2.3149  0.7256  0.0001
15323TIP3    H267461   0.021   3.153   0.384  2.9203 -0.1145  1.7554
15324TIP3   OH267462   1.336   3.931   4.334 -0.0848  0.5998 -0.0094
15324TIP3    H167463   1.403   3.869   4.305 -2.6882 -2.9739  0.7481
15324TIP3    H267464   1.318   3.985   4.257 -0.3100 -2.3330 -2.2206
15325TIP3   OH267465   4.467   2.731  13.717  0.6061  0.2410 -0.2802
15325TIP3    H167466   4.440   2.748  13.808 -0.8061  2.5394 -1.0272
15325TIP3    H267467   4.424   2.649  13.694 -0.9026  0.7705  0.4767
15326TIP3   OH267468   2.012   4.587   5.688 -0.3636  0.3324 -0.2521
15326TIP3    H167469   2.091   4.542   5.718 -0.7658 -2.0220 -2.4205
15326TIP3    H267470   1.940   4.542   5.732 -0.6371  1.7552  0.8595
15327TIP3   OH267471   4.884   5.381   2.494 -0.2324 -0.3306  0.0732
15327TIP3    H167472   4.898   5.362   2.401  2.7288  0.2227  0.3241
15327TIP3    H267473   4.889   5.477   2.499 -0.4018 -0.3585  0.8073
15328TIP3   OH267474   1.706   1.182  16.702  0.4555  0.3126 -0.1492
15328TIP3    H167475   1.706   1.108  16.763  1.8218  0.7226  0.3883
15328TIP3    H267476   1.795   1.215  16.706  0.5807  0.3620 -2.3767
15329TIP3   OH267477   5.727   2.272  15.842  0.1224 -0.1472 -0.2449
15329TIP3    H167478   5.778   2.295  15.919 -0.7058  2.7714 -0.4755
15329TIP3    H267479   5.644   2.239  15.877 -0.9437  2.7877  0.2479
15330TIP3   OH267480   0.243   1.787  10.485 -0.8009  0.0873  0.5952
15330TIP3    H167481   0.260   1.730  10.560 -1.6025  1.4432  1.8767
15330TIP3    H267482   0.323   1.784  10.433 -0.6351 -1.7659  0.8773
15331TIP3   OH267483   4.919   0.297  14.546  0.1443  0.3648  0.3264
15331TIP3    H167484   4.927   0.312  14.451 -1.2182 -1.8729 -0.2164
15331TIP3    H267485   4.856   0.363  14.575  0.3734  0.9065 -0.3859
15332TIP3   OH267486   1.883   6.504   3.607  0.1201 -0.2782  0.3031
15332TIP3    H167487   1.856   6.414   3.589  0.3460 -0.3895  0.5046
15332TIP3    H267488   1.827   6.532   3.680  0.7928 -0.6463  0.9865
15333TIP3   OH267489   2.144   6.203  12.336 -0.3034  0.5005 -0.9050
15333TIP3    H167490   2.235   6.189  12.311  0.0153 -2.2261  1.3780
15333TIP3    H267491   2.095   6.189  12.255  1.2139  1.7590 -2.1161
15334TIP3   OH267492   6.143   5.428   5.745 -0.0984  0.0077 -0.4757
15334TIP3    H167493   6.062   5.409   5.697 -1.1014 -2.7961  2.0012
15334TIP3    H267494   6.156   5.352   5.801  0.6107  3.1089  4.1313
15335TIP3   OH267495   1.483   2.015   4.669  0.2610  0.2780  0.9678
15335TIP3    H167496   1.434   2.096   4.683 -2.8679 -1.0958 -0.9248
15335TIP3    H267497   1.435   1.948   4.717  0.7991 -1.0181 -0.2040
15336TIP3   OH267498   6.803   1.223  15.755 -0.3410  0.3591 -0.1590
15336TIP3    H167499   6.765   1.244  15.840 -0.4263  3.0468 -0.8028
15336TIP3    H267500   6.729   1.197  15.701 -0.5135  0.3049  0.1001
15337TIP3   OH267501   4.804   0.858  14.076 -0.5131  0.0187  0.1173
15337TIP3    H167502   4.803   0.763  14.078  1.2539 -0.0414 -0.5590
15337TIP3    H267503   4.825   0.880  13.985 -0.2691  1.0387  0.4078
15338TIP3   OH267504   0.408   4.183  12.140  0.1509 -0.2616  0.0700
15338TIP3    H167505   0.320   4.219  12.146 -0.6356 -1.1638 -3.5644
15338TIP3    H267506   0.399   4.092  12.171  0.1741  0.0567  1.0435
15339TIP3   OH267507   3.802   0.012  14.177  0.4045  0.0168  0.3425
15339TIP3    H167508   3.756   0.090  14.145 -1.7760 -0.5275  1.8895
15339TIP3    H267509   3.859  -0.014  14.105  1.0525  2.8680 -0.3178
15340TIP3   OH267510   4.166   0.568  13.112  0.2534  0.3796  0.4943
15340TIP3    H167511   4.208   0.605  13.190  0.8606 -0.3908  0.5394
15340TIP3    H267512   4.185   0.474  13.117  0.5362  0.3656 -0.7249
15341TIP3   OH267513   3.876   0.508  13.088  0.0113 -0.0003  0.4825
15341TIP3    H167514   3.963   0.478  13.063 -0.9495 -0.3474 -2.9642
15341TIP3    H267515   3.888   0.547  13.175  3.1040 -1.9881  1.1121
15342TIP3   OH267516   3.955   1.512   5.906 -0.2343  0.1732  0.3034
15342TIP3    H167517   3.938   1.501   5.812 -0.4716  0.4502  0.3125
15342TIP3    H267518   4.031   1.570   5.910  0.0151 -0.1473  0.2789
15343TIP3   OH267519   5.638   2.110   0.695 -0.2226 -0.3985  0.0515
15343TIP3    H167520   5.569   2.168   0.727  0.4381  0.8284 -0.6499
15343TIP3    H267521   5.592   2.031   0.668 -1.2849  0.1742  0.1257
15344TIP3   OH267522   5.954   1.272  16.892 -0.4270 -0.3205  0.7579
15344TIP3    H167523   5.982   1.290  16.982 -1.4192  2.0477  0.6831
15344TIP3    H267524   5.994   1.343  16.841  1.9962 -2.8294 -1.1544
15345TIP3   OH267525   4.119   2.183  17.061 -0.2233 -0.4449  0.3510
15345TIP3    H167526   4.209   2.171  17.090 -0.7108 -0.6970  1.8302
15345TIP3    H267527   4.115   2.274  17.031  0.3930 -0.2852  0.7450
15346TIP3   OH267528   1.440   0.495  11.851 -0.2339 -0.4072  0.0246
15346TIP3    H167529   1.441   0.550  11.929 -0.7999 -0.2978 -0.0404
15346TIP3    H267530   1.509   0.431  11.865  0.1670  0.0750  0.2799
15347TIP3   OH267531   3.443   3.983  11.869  0.3133  0.1027  0.4723
15347TIP3    H167532   3.523   3.935  11.848 -0.3259 -0.8146  0.0740
15347TIP3    H267533   3.407   4.010  11.785 -1.7149 -2.7082  0.2812
15348TIP3   OH267534   4.895   0.104   3.132 -0.3805  0.2891  0.0968
15348TIP3    H167535   4.963   0.150   3.082 -0.5187  2.0913  1.4358
15348TIP3    H267536   4.818   0.161   3.125 -0.5369  0.3618  1.9104
15349TIP3   OH267537   2.074   1.413   5.739 -0.0486  0.0765  0.0530
15349TIP3    H167538   2.012   1.438   5.670  1.2020 -1.8640 -1.8667
15349TIP3    H267539   2.159   1.410   5.696  0.9597 -0.2227  1.9388
15350TIP3   OH267540   5.014   0.614  14.228 -0.2536  0.0373  0.3432
15350TIP3    H167541   5.029   0.522  14.254  1.5806 -0.0876 -0.9796
15350TIP3    H267542   4.973   0.608  14.142  0.6822  0.4282 -0.1449
15351TIP3   OH267543   5.906   2.461   3.515  0.0110 -0.1909  0.7263
15351TIP3    H167544   5.818   2.427   3.498 -0.3364  1.0129 -0.0641
15351TIP3    H267545   5.938   2.489   3.429 -0.5857  3.3427  1.4948
15352TIP3   OH267546   4.882   0.457  15.407  0.2678  0.0831  0.0511
15352TIP3    H167547   4.960   0.469  15.461  1.6973 -1.0864 -1.6382
15352TIP3    H267548   4.889   0.526  15.340 -0.6765  0.5729  0.4387
15353TIP3   OH267549   0.215   1.707  16.065  0.1160  0.3756 -1.2538
15353TIP3    H167550   0.285   1.644  16.086 -1.2993 -0.6694  0.6833
15353TIP3    H267551   0.193   1.688  15.974  0.2583 -1.4458 -0.9543
15354TIP3   OH267552   1.942   4.403   2.971 -0.3934 -0.8241 -0.0241
15354TIP3    H167553   1.897   4.445   2.897 -0.7187  1.1855  1.2192
15354TIP3    H267554   2.033   4.432   2.964 -0.0445 -1.9974 -0.5475
15355TIP3   OH267555   3.445   3.818   1.477 -0.3539 -0.0917 -0.0316
15355TIP3    H167556   3.517   3.878   1.498 -1.3119  1.3840 -0.7838
15355TIP3    H267557   3.445   3.814   1.381 -0.4878 -1.1165 -0.0064
15356TIP3   OH267558   5.837   4.848   0.482 -0.2710  0.2532  0.7660
15356TIP3    H167559   5.896   4.807   0.418  0.2053  1.2653  0.5416
15356TIP3    H267560   5.813   4.776   0.542 -1.2145 -0.8602 -0.8706
15357TIP3   OH267561   3.461   0.381   6.458  0.4267  0.1636  0.4071
15357TIP3    H167562   3.480   0.352   6.547  1.1042  0.6033  0.4102
15357TIP3    H267563   3.544   0.414   6.425  0.5739 -1.4388 -0.9521
15358TIP3   OH267564   6.132   0.427  11.505  0.1980 -0.5023  0.0902
15358TIP3    H167565   6.164   0.338  11.519  0.0465 -0.6780 -0.6300
15358TIP3    H267566   6.206   0.484  11.529  1.7149 -0.9272 -3.0542
15359TIP3   OH267567   6.379   5.244   5.587 -0.1538  0.1557 -0.1119
15359TIP3    H167568   6.371   5.154   5.618 -1.5055  0.4311  0.4145
15359TIP3    H267569   6.411   5.236   5.497 -1.0784 -0.8821 -0.3645
15360TIP3   OH267570   4.614   4.732   2.372  0.2005  0.1795  0.8104
15360TIP3    H167571   4.525   4.769   2.371  0.3183  0.5200 -0.8712
15360TIP3    H267572   4.635   4.723   2.465 -2.4856 -2.1017  1.3627
15361TIP3   OH267573   5.296   0.586  17.124 -0.0249 -0.4508 -0.0562
15361TIP3    H167574   5.303   0.674  17.087 -1.8986 -0.2960 -0.1522
15361TIP3    H267575   5.244   0.598  17.204  0.2480 -1.3838  0.2763
15362TIP3   OH267576   2.333   1.967  15.568  0.5074 -0.2130  0.1024
15362TIP3    H167577   2.342   1.882  15.610  0.5803  0.1148  0.7696
15362TIP3    H267578   2.325   1.948  15.474 -2.1840 -1.1199  0.4558
15363TIP3   OH267579   5.210   3.328   1.147  0.2059 -0.4485  0.7904
15363TIP3    H167580   5.123   3.302   1.178  0.5191 -0.8881  1.3341
15363TIP3    H267581   5.204   3.324   1.052 -0.6072  0.3280  0.7909
15364TIP3   OH267582   6.723   6.090   5.744  0.5014  0.2623 -0.1063
15364TIP3    H167583   6.703   6.115   5.835  0.2952  0.8572 -0.3086
15364TIP3    H267584   6.639   6.062   5.708  0.6304 -0.2040 -0.0410
15365TIP3   OH267585   0.212   1.558  11.998  0.3001 -0.2108  0.3101
15365TIP3    H167586   0.186   1.624  12.062 -0.3060  0.9879 -1.1191
15365TIP3    H267587   0.266   1.605  11.935  0.1622 -1.1658 -0.5436
15366TIP3   OH267588   5.232   0.646  14.380 -0.3549  0.1248 -0.0691
15366TIP3    H167589   5.155   0.651  14.323 -0.9162 -2.3415  0.3482
15366TIP3    H267590   5.303   0.619  14.322  0.0188  1.4729 -0.2753
15367TIP3   OH267591   2.584   6.470   4.118  0.5786 -0.4099  0.7474
15367TIP3    H167592   2.650   6.537   4.102 -0.5165  0.5304  0.0530
15367TIP3    H267593   2.624   6.389   4.086  0.4689  0.5397 -2.0371
15368TIP3   OH267594   4.770   3.722   1.427  0.5528  0.5409 -0.3518
15368TIP3    H167595   4.795   3.745   1.338 -0.1580  0.7735 -0.4982
15368TIP3    H267596   4.843   3.670   1.460  0.7703  0.3638 -1.1033
15369TIP3   OH267597   0.217   2.976  11.369  0.2711  0.8953  0.9862
15369TIP3    H167598   0.284   2.934  11.314 -0.1627 -1.5950  2.1769
15369TIP3    H267599   0.223   2.929  11.453 -0.8057  2.8245  2.2046
15370TIP3   OH267600   5.559   4.796   4.573 -0.1675  0.4034 -0.0427
15370TIP3    H167601   5.629   4.776   4.510  1.8148  1.0143  1.8500
15370TIP3    H267602   5.499   4.722   4.566 -0.8966  1.1428 -3.6755
15371TIP3   OH267603   4.773   0.484   0.410 -0.0960 -0.4956  0.8903
15371TIP3    H167604   4.762   0.519   0.498  0.5559 -0.1584  0.8413
15371TIP3    H267605   4.759   0.559   0.352 -0.7619 -0.7657  0.6892
15372TIP3   OH267606   5.850   2.594  12.896  0.3257 -0.1325  0.4488
15372TIP3    H167607   5.924   2.566  12.950  0.0247  0.7496  1.3531
15372TIP3    H267608   5.801   2.514  12.879  1.9386 -0.8984 -0.9133
15373TIP3   OH267609   2.299   2.136   2.567  0.4483  0.3904 -0.2028
15373TIP3    H167610   2.350   2.068   2.611  0.0488  0.1246 -0.1456
15373TIP3    H267611   2.361   2.207   2.552  1.4167 -0.7366 -2.0103
15374TIP3   OH267612   1.274   0.553  13.901 -0.0875 -0.3217  0.0940
15374TIP3    H167613   1.251   0.469  13.861 -1.5908  0.3352 -0.5180
15374TIP3    H267614   1.254   0.541  13.993 -2.1176 -0.1048 -0.2625
15375TIP3   OH267615   0.255   5.049   4.739  0.3844 -0.1902 -0.4651
15375TIP3    H167616   0.230   5.077   4.827 -0.7375 -0.9029 -0.5439
15375TIP3    H267617   0.204   4.970   4.723 -0.8095  0.9093 -2.4566
15376TIP3   OH267618   3.563   1.144   0.392  0.5931  0.8430 -0.0064
15376TIP3    H167619   3.598   1.060   0.363  0.7334  1.1801 -0.8218
15376TIP3    H267620   3.608   1.161   0.475 -0.1342 -0.3360  0.6683
15377TIP3   OH267621   3.644   0.844   3.975 -0.0710 -0.3049  0.0253
15377TIP3    H167622   3.652   0.815   4.066 -0.6596 -1.0960 -0.1654
15377TIP3    H267623   3.587   0.921   3.979 -0.2077 -0.4200  0.3128
15378TIP3   OH267624   6.037   6.482   4.702 -0.5713  0.1252 -0.0131
15378TIP3    H167625   6.116   6.516   4.660  1.1671 -2.0894  1.2330
15378TIP3    H267626   5.973   6.553   4.694  1.3749  1.8419 -1.4620
15379TIP3   OH267627   1.686   2.853  14.545  0.0109 -0.0227 -0.5540
15379TIP3    H167628   1.625   2.885  14.612  1.3683  0.6622  0.4056
15379TIP3    H267629   1.632   2.843  14.467 -1.3035  0.7215  0.2089
15380TIP3   OH267630   4.646   1.413  15.455  0.7610 -0.4583  0.2438
15380TIP3    H167631   4.663   1.475  15.526 -0.3985  0.2289 -0.0615
15380TIP3    H267632   4.551   1.415  15.443  0.7825 -1.7128 -0.3071
15381TIP3   OH267633   1.237   2.674  17.135  0.2850  1.0739 -0.1382
15381TIP3    H167634   1.141   2.667  17.144  0.3041 -0.2132 -0.7254
15381TIP3    H267635   1.269   2.672  17.225 -0.3078  3.3164  0.1826
15382TIP3   OH267636   3.568   1.347  14.304 -0.2449  0.3562  0.0913
15382TIP3    H167637   3.619   1.388  14.234  0.1839  1.0844  0.8210
15382TIP3    H267638   3.597   1.256  14.305  0.7549  0.6668  0.2314
15383TIP3   OH267639   2.843   3.391   2.775 -0.0829  0.0336  0.0300
15383TIP3    H167640   2.823   3.446   2.851 -0.5125 -1.4865  1.0517
15383TIP3    H267641   2.906   3.327   2.808  3.6722  2.2291 -2.1016
15384TIP3   OH267642   6.692   3.512   0.573 -0.1783 -0.9435  0.0162
15384TIP3    H167643   6.734   3.596   0.555 -1.5950 -0.2966 -0.4820
15384TIP3    H267644   6.654   3.522   0.660 -1.0035 -0.7740 -0.3551
15385TIP3   OH267645   5.731   6.436  11.011 -0.5021  0.7543  0.7253
15385TIP3    H167646   5.739   6.502  10.943 -3.3417  1.0750  0.5761
15385TIP3    H267647   5.765   6.356  10.971  1.0219  1.6400  0.1710
15386TIP3   OH267648   2.120   2.711  15.594  0.3325 -0.3648 -0.0649
15386TIP3    H167649   2.056   2.723  15.524  0.3977  2.3408  0.2458
15386TIP3    H267650   2.204   2.712  15.550  0.3951  1.6970 -0.0103
15387TIP3   OH267651   4.991   3.528  16.997  0.0958 -0.5212  0.2436
15387TIP3    H167652   4.936   3.602  17.022  1.3067 -0.1185  1.8337
15387TIP3    H267653   5.072   3.567  16.965  0.3419 -1.1415  0.0918
15388TIP3   OH267654   2.884   4.229  13.793  0.6132 -0.0858 -0.5588
15388TIP3    H167655   2.909   4.136  13.801 -0.2060 -0.4433 -1.8793
15388TIP3    H267656   2.846   4.236  13.706  1.7353  1.7683 -0.9546
15389TIP3   OH267657   1.830   5.268   2.417  0.2412 -0.5918  0.1048
15389TIP3    H167658   1.793   5.255   2.504  0.1984 -0.0912  0.1633
15389TIP3    H267659   1.756   5.293   2.362  0.3378 -0.4966  0.0159
15390TIP3   OH267660   2.763   0.443   5.301  0.0540 -0.4893  0.1689
15390TIP3    H167661   2.737   0.506   5.369 -0.8575  0.5260 -1.0490
15390TIP3    H267662   2.846   0.408   5.331  1.1737  2.1247  0.4062
15391TIP3   OH267663   1.932   4.061  12.871  0.9219  0.4522  0.4515
15391TIP3    H167664   1.956   4.104  12.953 -0.0373  1.4917  0.2136
15391TIP3    H267665   1.902   4.132  12.814  1.8653 -0.2176 -0.9246
15392TIP3   OH267666   0.471   3.734  11.656 -0.0404  0.1651 -0.0385
15392TIP3    H167667   0.398   3.729  11.718 -0.9941  2.4458 -0.8965
15392TIP3    H267668   0.472   3.647  11.615  0.1278 -1.1655  2.5273
15393TIP3   OH267669   0.073   2.947  15.283 -0.2720 -0.2146  0.2417
15393TIP3    H167670  -0.017   2.930  15.257 -0.7708  0.2128  1.5811
15393TIP3    H267671   0.109   3.001  15.213 -0.2165 -2.4764 -1.5887
15394TIP3   OH267672   1.684   4.435  10.877 -0.0940  0.3623 -0.2707
15394TIP3    H167673   1.663   4.370  10.810  0.8851 -0.2883  0.0292
15394TIP3    H267674   1.668   4.389  10.960  0.6875  0.4678 -0.0561
15395TIP3   OH267675   4.885   0.892   5.551  0.3166  0.7189 -0.0572
15395TIP3    H167676   4.953   0.844   5.503 -1.1728 -0.4450 -1.0818
15395TIP3    H267677   4.828   0.824   5.586  0.2713  1.6339  1.7711
15396TIP3   OH267678   3.580   4.104   2.210  0.1278 -0.1045  0.0307
15396TIP3    H167679   3.641   4.059   2.151  0.9778 -0.0883  0.8671
15396TIP3    H267680   3.591   4.197   2.189 -0.6438 -0.1763 -0.7686
15397TIP3   OH267681   5.547   3.909  12.330 -0.0497 -0.0371 -0.1305
15397TIP3    H167682   5.588   3.968  12.393  0.5414 -0.6625  0.0836
15397TIP3    H267683   5.496   3.966  12.273  0.9438  0.7438 -0.2654
15398TIP3   OH267684   4.357   4.785  14.167 -0.3832  0.0521 -0.0498
15398TIP3    H167685   4.390   4.760  14.080  1.4494  0.4356  0.4970
15398TIP3    H267686   4.422   4.750  14.228 -0.6661  1.3975  1.0616
15399TIP3   OH267687   6.651   2.580   4.497  0.1555  0.0575 -0.7227
15399TIP3    H167688   6.570   2.566   4.545  0.9930  0.2047  0.8139
15399TIP3    H267689   6.651   2.673   4.474  0.3670  0.2962  0.2218
15400TIP3   OH267690   2.039   5.060   2.461  0.0162 -0.4931 -0.0064
15400TIP3    H167691   2.023   5.154   2.462  0.9705 -0.2739 -1.5491
15400TIP3    H267692   2.022   5.032   2.550 -0.6995  1.0651  0.3833
15401TIP3   OH267693   0.721   1.552  12.238  0.2499 -0.0692 -0.2325
15401TIP3    H167694   0.808   1.524  12.208 -0.6511 -1.0344 -2.1401
15401TIP3    H267695   0.695   1.486  12.302  1.0400  0.4330  0.6397
15402TIP3   OH267696   4.157   4.179  16.140 -0.0887 -0.4995  0.4440
15402TIP3    H167697   4.083   4.120  16.145 -0.3225 -0.1336  1.7821
15402TIP3    H267698   4.200   4.157  16.057 -2.3646  0.1111 -1.0068
15403TIP3   OH267699   2.539   3.767   4.299  0.4595  0.4560 -0.5213
15403TIP3    H167700   2.631   3.791   4.309  0.8206 -0.7304 -0.8217
15403TIP3    H267701   2.540   3.693   4.238 -0.6049 -0.2393  0.2758
15404TIP3   OH267702   2.275   6.251  11.517  0.5868 -0.3132  0.0901
15404TIP3    H167703   2.291   6.158  11.502  1.0484 -0.2949  0.4582
15404TIP3    H267704   2.257   6.258  11.611  0.3680 -0.0587  0.0296
15405TIP3   OH267705   4.971   3.140   0.937  0.0349 -0.7561 -0.7265
15405TIP3    H167706   4.983   3.168   0.846  0.2079 -3.0592 -1.4748
15405TIP3    H267707   5.012   3.054   0.942  0.6439 -0.4139  1.7515
15406TIP3   OH267708   3.894   1.845   4.187  0.3899 -0.1527 -0.2219
15406TIP3    H167709   3.882   1.757   4.152 -0.4562 -0.4022  0.6391
15406TIP3    H267710   3.819   1.858   4.245 -0.8364  2.0547 -2.1217
15407TIP3   OH267711   3.247   4.216  15.700 -0.8281  0.3424 -0.1905
15407TIP3    H167712   3.222   4.204  15.609 -0.5143 -0.5461 -0.1763
15407TIP3    H267713   3.325   4.271  15.696 -0.2499 -0.4654 -0.5485
15408TIP3   OH267714   0.285   6.406   5.765 -0.1397 -0.4369 -0.1636
15408TIP3    H167715   0.211   6.397   5.705 -0.0690  0.2750 -0.3624
15408TIP3    H267716   0.306   6.499   5.765 -0.6909 -0.2637  1.6171
15409TIP3   OH267717   3.427   2.395  14.835  0.4183 -0.2850  0.3055
15409TIP3    H167718   3.452   2.303  14.826  0.4352 -0.3907  1.2531
15409TIP3    H267719   3.506   2.444  14.813  0.7863 -0.5472  0.9973
15410TIP3   OH267720   4.141   2.716   2.985  0.2709  0.3797  0.2148
15410TIP3    H167721   4.072   2.749   2.927 -1.2315 -0.7446  1.2998
15410TIP3    H267722   4.189   2.653   2.931 -1.2068 -0.7664  0.1708
15411TIP3   OH267723   3.417   1.619   1.915  0.0907  0.3042  0.6856
15411TIP3    H167724   3.486   1.683   1.898 -0.8307  0.7205 -1.9659
15411TIP3    H267725   3.406   1.621   2.010  4.2015 -0.3514  1.3959
15412TIP3   OH267726   2.192   6.466   0.380  0.4075 -0.2738 -0.2564
15412TIP3    H167727   2.232   6.380   0.371 -0.3318 -0.6219 -0.2366
15412TIP3    H267728   2.117   6.452   0.437 -1.3205 -0.1630 -2.3931
15413TIP3   OH267729   5.575   2.704   5.394 -0.4610 -0.5065  0.3581
15413TIP3    H167730   5.534   2.683   5.478 -0.4849 -2.0301 -0.0080
15413TIP3    H267731   5.661   2.662   5.398  0.7293  1.8144  0.7156
15414TIP3   OH267732   5.794   0.389  12.619  1.0633  0.1693 -0.5459
15414TIP3    H167733   5.745   0.468  12.642  0.3589 -1.1671  3.3557
15414TIP3    H267734   5.730   0.334  12.573  0.1453  0.1553  0.6982
15415TIP3   OH267735   1.825   3.312   5.690 -0.0218  0.0149  0.4186
15415TIP3    H167736   1.830   3.286   5.782 -1.3211  1.0033  0.8075
15415TIP3    H267737   1.793   3.402   5.692 -0.6330 -0.1306 -1.0191
15416TIP3   OH267738   0.911   5.454  11.564  0.4083  0.2286  0.5551
15416TIP3    H167739   0.999   5.492  11.556  0.1629  0.5386 -1.2138
15416TIP3    H267740   0.867   5.508  11.629  1.0263  1.0841  0.2906
15417TIP3   OH267741   0.578   6.413  15.282  0.1534 -0.3874  0.1337
15417TIP3    H167742   0.484   6.426  15.299 -0.6266 -1.4550 -2.7498
15417TIP3    H267743   0.597   6.327  15.322 -0.1862 -0.3626  0.3590
15418TIP3   OH267744   6.153   5.948  13.099 -0.4686 -0.1347 -0.3015
15418TIP3    H167745   6.247   5.935  13.090 -0.4696  0.9459 -2.5066
15418TIP3    H267746   6.126   5.886  13.167  2.1241  1.0266  1.9592
15419TIP3   OH267747   2.110   4.530  12.548  0.1426 -0.5010  0.2134
15419TIP3    H167748   2.046   4.500  12.484  0.5394  0.4468 -0.6570
15419TIP3    H267749   2.092   4.624  12.557  2.9362  0.3736 -1.9442
15420TIP3   OH267750   4.208   2.439  17.000 -0.1128  0.1777 -0.0025
15420TIP3    H167751   4.272   2.380  16.959 -1.8743 -0.8940 -1.4021
15420TIP3    H267752   4.173   2.490  16.927  0.5105  2.1437  1.0235
15421TIP3   OH267753   5.433   5.691  17.032 -0.1348  0.8801  0.3003
15421TIP3    H167754   5.509   5.712  17.086 -0.8724  0.9966  1.3198
15421TIP3    H267755   5.470   5.648  16.954  0.8441 -0.8937  1.6609
15422TIP3   OH267756   6.805   1.445   0.414 -0.0155  0.3160 -0.4219
15422TIP3    H167757   6.748   1.376   0.447  0.1019 -0.8457 -2.4762
15422TIP3    H267758   6.751   1.493   0.351  0.7505  0.2771 -1.1299
15423TIP3   OH267759   0.812   2.024  12.549 -0.0527 -0.5637  0.4113
15423TIP3    H167760   0.823   1.953  12.613 -1.1893 -2.1279 -1.0309
15423TIP3    H267761   0.852   1.991  12.469  0.3671  0.8961 -0.0089
15424TIP3   OH267762   1.835   2.851   3.638 -0.1354  0.2456 -0.3395
15424TIP3    H167763   1.767   2.790   3.609 -0.1614  0.2029 -0.1878
15424TIP3    H267764   1.912   2.827   3.586  0.2777 -0.8736  0.7327
15425TIP3   OH267765   6.517   5.274  13.762  0.2605 -0.2313 -0.1850
15425TIP3    H167766   6.459   5.205  13.794  1.3194 -1.2006 -0.2860
15425TIP3    H267767   6.506   5.273  13.667  0.3834 -0.3635 -0.1982
15426TIP3   OH267768   5.393   1.424   3.119 -0.4057 -0.0007 -0.4450
15426TIP3    H167769   5.377   1.497   3.179  3.1738  1.1040 -0.5961
15426TIP3    H267770   5.340   1.445   3.042 -0.2066  1.9821 -0.1163
15427TIP3   OH267771   4.542   0.458  16.596 -0.0949 -0.4348  0.3894
15427TIP3    H167772   4.487   0.391  16.636 -2.0821  0.4522 -0.7241
15427TIP3    H267773   4.491   0.539  16.602  1.7543  0.7792  0.6877
15428TIP3   OH267774   6.035   1.922  15.364 -0.0312 -0.3247  0.0508
15428TIP3    H167775   6.033   1.947  15.272 -0.0600  0.1466  0.1771
15428TIP3    H267776   6.126   1.897  15.381  0.6872  2.3867  0.6184
15429TIP3   OH267777   1.108   6.069  11.681 -0.3390 -0.5109  0.0850
15429TIP3    H167778   1.056   6.047  11.605 -0.7922  1.2369 -0.1517
15429TIP3    H267779   1.044   6.089  11.750 -0.0780  1.7909 -0.2510
15430TIP3   OH267780   1.454   5.201   4.134 -0.5619 -0.3620 -0.0331
15430TIP3    H167781   1.527   5.150   4.168  1.5698  0.9671 -2.2809
15430TIP3    H267782   1.445   5.274   4.195  0.4410 -0.2077 -0.0529
15431TIP3   OH267783   6.656   2.991  12.653 -0.6893  0.0219  0.3399
15431TIP3    H167784   6.703   3.052  12.710  0.9571 -1.2643  0.4102
15431TIP3    H267785   6.580   2.964  12.704  0.3526 -0.5332  1.6422
15432TIP3   OH267786   2.111   2.800   3.567 -0.4806 -0.3825 -0.2910
15432TIP3    H167787   2.140   2.888   3.541  0.9700 -0.5872  0.5253
15432TIP3    H267788   2.160   2.782   3.648 -3.6606 -0.3692  1.7879
15433TIP3   OH267789   4.691   3.648  13.509  0.2381 -0.3222 -0.5533
15433TIP3    H167790   4.598   3.668  13.502  0.3929  0.5833 -0.1692
15433TIP3    H267791   4.711   3.660  13.602  0.9085  0.3082 -0.7716
15434TIP3   OH267792   3.536   5.125  11.748  0.1058  0.5160  0.7733
15434TIP3    H167793   3.565   5.188  11.681  2.6796 -0.3437  0.9595
15434TIP3    H267794   3.464   5.077  11.707  0.1707  1.4869 -0.5300
15435TIP3   OH267795   0.352   3.303  11.349  0.3955 -0.0718 -0.2320
15435TIP3    H167796   0.275   3.254  11.378 -1.1292  2.0384 -0.5145
15435TIP3    H267797   0.405   3.238  11.304  0.1264 -2.2016  2.2614
15436TIP3   OH267798   2.072   4.524  13.544  0.5732  0.0496  0.4642
15436TIP3    H167799   2.025   4.442  13.529 -0.0000  0.3752  0.4217
15436TIP3    H267800   2.059   4.573  13.463 -0.8572  1.0219  1.2508
15437TIP3   OH267801   5.187   5.933  14.916  0.2175 -0.2191 -0.0948
15437TIP3    H167802   5.176   5.851  14.964 -1.5696  0.2849  0.4246
15437TIP3    H267803   5.126   5.994  14.957 -0.5118  0.5903 -2.2092
15438TIP3   OH267804   3.258   2.313   4.584 -0.6245 -0.4045 -0.0042
15438TIP3    H167805   3.219   2.300   4.497 -1.8756  1.9306  0.1238
15438TIP3    H267806   3.308   2.233   4.600 -0.8958 -1.1898 -2.5803
15439TIP3   OH267807   0.101   1.615   2.189 -0.0764  0.1422  0.3606
15439TIP3    H167808   0.191   1.619   2.222 -0.2351  1.3265  0.6872
15439TIP3    H267809   0.104   1.548   2.120  0.8932 -0.3203  0.8285
15440TIP3   OH267810   2.626   0.976  15.187  0.3471  0.4389 -0.0939
15440TIP3    H167811   2.582   0.901  15.227 -0.3594  0.8041 -0.1652
15440TIP3    H267812   2.692   0.937  15.130 -0.8638 -0.1836 -1.1325
15441TIP3   OH267813   5.381   2.655   2.078 -0.0401 -0.0455 -0.0953
15441TIP3    H167814   5.434   2.709   2.137 -0.7904 -0.1194  0.6589
15441TIP3    H267815   5.366   2.574   2.125  2.1648 -1.5328 -1.7275
15442TIP3   OH267816   5.801   2.869  11.657  0.1902  0.4838  0.0233
15442TIP3    H167817   5.874   2.889  11.598  1.5289 -1.6540  0.8246
15442TIP3    H267818   5.769   2.784  11.628 -0.7324  0.5013  0.8990
15443TIP3   OH267819   5.390   5.818  15.703  0.0107  0.3138  0.2549
15443TIP3    H167820   5.392   5.846  15.612  2.0354  0.6619  0.3793
15443TIP3    H267821   5.391   5.722  15.698  0.9948  0.3392 -0.0806
15444TIP3   OH267822   1.515   5.494  12.169  0.3941 -0.1339  0.3238
15444TIP3    H167823   1.455   5.489  12.094  1.4553 -1.3207 -0.4939
15444TIP3    H267824   1.545   5.585  12.170  1.0158 -0.2834 -1.2617
15445TIP3   OH267825   0.008   0.426   3.074 -0.1483  0.3741  0.2171
15445TIP3    H167826   0.054   0.439   2.991 -0.5307  0.8880  0.0856
15445TIP3    H267827   0.027   0.335   3.098  1.2191  0.6784  0.3429
15446TIP3   OH267828   1.180   2.356   3.017  0.0646  0.0503 -0.3660
15446TIP3    H167829   1.212   2.400   3.095  1.0618  2.1425 -1.8858
15446TIP3    H267830   1.087   2.379   3.013  0.1423  0.4020 -0.1283
15447TIP3   OH267831   2.362   2.167  16.045  0.2842 -0.0639 -0.1423
15447TIP3    H167832   2.308   2.188  15.969  0.4033 -0.6955 -0.4092
15447TIP3    H267833   2.435   2.117  16.009  1.5332  1.5215  0.0906
15448TIP3   OH267834   2.225   6.513   1.205  0.2856  0.0612  0.1669
15448TIP3    H167835   2.133   6.487   1.204  0.3712 -0.2868 -0.9512
15448TIP3    H267836   2.227   6.594   1.255 -0.6692  0.1897  0.0093
15449TIP3   OH267837   1.347   5.410  11.195  0.1504  0.2786  0.0002
15449TIP3    H167838   1.292   5.467  11.249  0.7246  1.4173 -0.5813
15449TIP3    H267839   1.288   5.376  11.128 -0.1392  0.4059  0.1911
15450TIP3   OH267840   1.340   6.313  13.695  0.5479  0.1059  0.1916
15450TIP3    H167841   1.405   6.318  13.625  0.1668  1.8018 -0.0864
15450TIP3    H267842   1.285   6.238  13.671  1.6346 -0.5893 -0.2201
15451TIP3   OH267843   5.392   5.540  15.650  0.6701 -0.1351  0.3111
15451TIP3    H167844   5.405   5.522  15.743  0.5041  1.1293  0.6032
15451TIP3    H267845   5.481   5.548  15.614  0.7323 -0.2928  0.4322
15452TIP3   OH267846   1.993   1.116   0.409 -0.2340 -0.3835 -0.1110
15452TIP3    H167847   1.902   1.143   0.427 -0.2652 -0.0062 -0.7765
15452TIP3    H267848   1.987   1.023   0.389 -0.4380 -0.4217  0.1294
15453TIP3   OH267849   2.580   6.806  11.890 -0.0682 -0.8554 -0.2736
15453TIP3    H167850   2.648   6.803  11.957 -0.3540 -0.1317  0.0562
15453TIP3    H267851   2.553   6.714  11.879  1.8886 -1.3390 -1.4037
15454TIP3   OH267852   1.395   3.168   2.564 -0.0117 -0.2840 -0.5797
15454TIP3    H167853   1.458   3.179   2.635 -1.0136 -3.2775  0.9603
15454TIP3    H267854   1.312   3.150   2.609 -1.7959  2.2966 -2.5397
15455TIP3   OH267855   3.711   4.250  12.309  0.2876  0.0204  0.3303
15455TIP3    H167856   3.669   4.196  12.242 -2.0925  0.5738  1.2527
15455TIP3    H267857   3.692   4.340  12.282 -0.0890  0.2560  1.3296
15456TIP3   OH267858   0.231   1.110   0.963  0.6440  0.0593 -0.3495
15456TIP3    H167859   0.247   1.188   1.015  0.8276 -1.0698  1.3596
15456TIP3    H267860   0.208   1.143   0.876  0.2212  2.0141  0.4593
15457TIP3   OH267861   0.856   0.743   5.807  0.3405 -0.4116 -0.3709
15457TIP3    H167862   0.899   0.806   5.865 -0.1668  0.5930 -1.0538
15457TIP3    H267863   0.793   0.698   5.863 -1.4738  1.8389 -0.4714
15458TIP3   OH267864   3.040   2.201  17.027 -0.3491 -0.1113 -0.6580
15458TIP3    H167865   2.964   2.145  17.016 -0.8918  1.0100 -3.5476
15458TIP3    H267866   3.015   2.263  17.096 -2.0144  0.0874 -1.3812
15459TIP3   OH267867   6.795   5.781   2.698  0.1314 -0.1797 -0.2749
15459TIP3    H167868   6.724   5.839   2.724  0.9334  0.4208  0.6423
15459TIP3    H267869   6.782   5.702   2.751 -0.9685 -0.8908 -1.5342
15460TIP3   OH267870   3.599   6.116  14.835  0.3339 -0.3472  0.2478
15460TIP3    H167871   3.574   6.163  14.755  1.6770 -1.3255 -0.7850
15460TIP3    H267872   3.623   6.185  14.897  4.3106  0.5024 -1.8941
15461TIP3   OH267873   3.366   2.585  12.300  0.0638  0.0718 -0.3394
15461TIP3    H167874   3.277   2.556  12.316  1.4435 -3.5633  1.8686
15461TIP3    H267875   3.395   2.621  12.384  1.5926 -1.7930  0.0003
15462TIP3   OH267876   2.555   2.654   5.582 -1.0750  0.0499  0.0448
15462TIP3    H167877   2.602   2.698   5.654 -0.9649 -0.2481  0.1565
15462TIP3    H267878   2.622   2.604   5.537 -1.1152  0.3568 -0.3655
15463TIP3   OH267879   3.627   5.601  13.713 -0.3806  0.2829 -0.2317
15463TIP3    H167880   3.596   5.552  13.636 -0.3770  1.3598 -0.9445
15463TIP3    H267881   3.711   5.561  13.734  1.6635  2.4781 -3.3413
15464TIP3   OH267882   6.203   3.579   4.947 -0.2971  0.1247  0.5141
15464TIP3    H167883   6.141   3.509   4.968  0.0898 -0.5093 -0.4057
15464TIP3    H267884   6.197   3.590   4.852  0.9974  0.0380  0.4025
15465TIP3   OH267885   6.653   2.115   4.196  0.4728  0.2314  0.2107
15465TIP3    H167886   6.694   2.174   4.132  0.0104  0.8591  0.4781
15465TIP3    H267887   6.594   2.061   4.144 -0.4492  1.2281  0.1743
15466TIP3   OH267888   0.509   3.837   2.908  0.0912  0.6819  0.1864
15466TIP3    H167889   0.520   3.931   2.904 -0.7580  0.8726  1.6689
15466TIP3    H267890   0.457   3.822   2.987 -0.3559 -0.9689 -0.3746
15467TIP3   OH267891   0.307   6.773  15.920 -0.1269 -0.2335 -0.1691
15467TIP3    H167892   0.278   6.856  15.959 -1.1197  1.0461 -3.3712
15467TIP3    H267893   0.245   6.708  15.953 -0.0746  0.4501  1.4042
15468TIP3   OH267894   3.508   3.126   5.258 -0.2707 -0.5606 -0.3677
15468TIP3    H167895   3.565   3.180   5.204  0.1493 -0.0940  0.5221
15468TIP3    H267896   3.435   3.184   5.281  0.0553 -0.4344  0.3832
15469TIP3   OH267897   6.046   2.090  13.089  0.0393 -0.1859  0.0884
15469TIP3    H167898   6.140   2.083  13.073  0.1881 -1.0127  1.1920
15469TIP3    H267899   6.019   2.002  13.115 -0.7226  0.3952  1.3578
15470TIP3   OH267900   3.253   0.904  13.779  0.1686  0.5024 -0.3958
15470TIP3    H167901   3.215   0.817  13.771  1.1275  0.0692 -0.3509
15470TIP3    H267902   3.190   0.961  13.734 -1.6062  0.1529  1.4992
15471TIP3   OH267903   5.099   2.513   2.710  0.4986  0.5730  0.0801
15471TIP3    H167904   5.040   2.582   2.681 -0.2761  0.5317  1.4853
15471TIP3    H267905   5.179   2.559   2.737  0.1695  0.8825  0.5415
15472TIP3   OH267906   3.534   4.545  13.389 -0.0440 -0.5353  0.1068
15472TIP3    H167907   3.603   4.482  13.409  1.4138  0.4929 -1.4283
15472TIP3    H267908   3.496   4.515  13.306 -1.4665 -1.0681  0.9130
15473TIP3   OH267909   1.022   3.792  11.602  0.0759  0.1572  0.0711
15473TIP3    H167910   1.064   3.850  11.537 -0.4595  1.3657  0.7694
15473TIP3    H267911   0.994   3.716  11.551 -0.0360  0.9306 -1.0705
15474TIP3   OH267912   2.661   4.602  16.880  0.5920  0.0781  0.1691
15474TIP3    H167913   2.689   4.511  16.890 -1.1933 -0.6274 -0.7914
15474TIP3    H267914   2.705   4.631  16.800  2.3720  0.6065  1.2787
15475TIP3   OH267915   1.715   2.099   1.654  0.5012  0.0250 -0.0947
15475TIP3    H167916   1.719   2.035   1.725 -0.9939 -0.5227 -0.4760
15475TIP3    H267917   1.803   2.138   1.653  0.5295  0.1638  2.1314
15476TIP3   OH267918   2.834   4.943  16.815 -0.1178  0.2745  0.3598
15476TIP3    H167919   2.811   4.954  16.723  1.9785 -0.9970 -0.3995
15476TIP3    H267920   2.894   5.015  16.834 -0.0028  0.1376  0.5253
15477TIP3   OH267921   2.681   4.549  15.873  0.4567 -0.6577 -0.0968
15477TIP3    H167922   2.758   4.504  15.836  1.7481  2.2089 -1.2571
15477TIP3    H267923   2.607   4.512  15.826  1.5189 -1.0959 -1.5053
15478TIP3   OH267924   1.159   3.082  13.870  0.0433  0.2861  0.3082
15478TIP3    H167925   1.083   3.138  13.889 -1.0631 -0.8936 -0.4851
15478TIP3    H267926   1.224   3.143  13.834 -0.7121  1.2391  0.4940
15479TIP3   OH267927   5.138   0.262  14.687 -0.4459  0.7560  0.4702
15479TIP3    H167928   5.059   0.293  14.643  0.2815 -0.2774 -1.7099
15479TIP3    H267929   5.203   0.330  14.671 -0.8618  1.7046  2.4376
15480TIP3   OH267930   3.032   0.534   3.674 -0.1742  0.5331  0.1333
15480TIP3    H167931   2.948   0.523   3.629  0.2814  0.5164 -0.7257
15480TIP3    H267932   3.060   0.622   3.651  0.9912 -0.1552 -1.2392
15481TIP3   OH267933   0.431   5.421   6.088  0.9441  1.2102 -0.1230
15481TIP3    H167934   0.340   5.435   6.116  0.3740 -3.1647  0.8412
15481TIP3    H267935   0.483   5.437   6.168  1.0194  2.7586 -0.4365
15482TIP3   OH267936   5.958   0.845   4.506  0.4537 -0.3787  0.5386
15482TIP3    H167937   5.900   0.836   4.431 -0.4916 -1.1119  1.3254
15482TIP3    H267938   5.991   0.935   4.501  0.1112 -0.3037 -0.5341
15483TIP3   OH267939   6.039   4.835   2.562 -0.1421  0.0421  0.0879
15483TIP3    H167940   6.072   4.745   2.554 -0.4970  0.0256 -1.6447
15483TIP3    H267941   6.025   4.847   2.656  1.7499 -1.0282  0.5575
15484TIP3   OH267942   0.133   5.722  13.819 -0.4911  0.1403  0.1298
15484TIP3    H167943   0.182   5.734  13.737 -0.6418 -0.5170 -0.0685
15484TIP3    H267944   0.135   5.807  13.861  3.0847 -0.4208  1.4287
15485TIP3   OH267945   4.472   0.885   5.522  0.1602  0.3879  0.1420
15485TIP3    H167946   4.389   0.877   5.569  0.7263  0.5516  1.1833
15485TIP3    H267947   4.446   0.910   5.433 -1.0056 -1.2485 -0.0290
15486TIP3   OH267948   6.600   2.548  16.212  0.1396 -0.0684  0.0221
15486TIP3    H167949   6.516   2.559  16.167 -0.4742  0.0997  1.1703
15486TIP3    H267950   6.576   2.538  16.304  1.3949  0.1159  0.3793
15487TIP3   OH267951   4.148   0.721  16.377  0.7134 -0.3991  0.2214
15487TIP3    H167952   4.180   0.646  16.427  0.6233 -0.9171 -0.4797
15487TIP3    H267953   4.156   0.795  16.436  0.8367 -0.9587  0.9142
15488TIP3   OH267954   1.629   2.691   3.512 -0.2213 -0.4026 -0.2001
15488TIP3    H167955   1.617   2.748   3.436 -2.5919  0.2975  0.5891
15488TIP3    H267956   1.615   2.603   3.479 -0.5270 -0.1643 -0.7274
15489TIP3   OH267957   6.522   1.650  16.585 -0.5088 -0.1669  0.6521
15489TIP3    H167958   6.474   1.710  16.529 -1.0299  1.7943  3.0487
15489TIP3    H267959   6.573   1.597  16.524 -2.4031  0.5740 -1.7359
15490TIP3   OH267960   2.048   2.712  13.424  0.2529 -0.1022 -0.5015
15490TIP3    H167961   2.053   2.681  13.334  0.8233 -1.9323  0.1103
15490TIP3    H267962   1.987   2.651  13.466 -0.2406  0.9102  0.2845
15491TIP3   OH267963   1.557   2.844  15.065 -0.0093  0.1946 -0.1301
15491TIP3    H167964   1.498   2.820  14.993 -0.3913 -2.0725  0.8655
15491TIP3    H267965   1.501   2.846  15.142  0.9178 -0.2520  0.5658
15492TIP3   OH267966   4.050   0.132   3.392 -0.1850 -0.0191  0.1842
15492TIP3    H167967   4.089   0.209   3.435  0.1802 -0.2034  0.1851
15492TIP3    H267968   4.081   0.137   3.301 -0.2182 -0.1291  0.1667
15493TIP3   OH267969   5.405   0.131  10.988  0.0152  0.5242 -0.2295
15493TIP3    H167970   5.377   0.209  11.035  0.6625  1.0403 -0.6820
15493TIP3    H267971   5.363   0.138  10.903 -1.5958 -0.6853  0.4279
15494TIP3   OH267972   3.266   3.686   2.196  0.7490 -0.0277 -0.0089
15494TIP3    H167973   3.193   3.624   2.192  1.1265 -0.4263 -1.1473
15494TIP3    H267974   3.328   3.647   2.256  0.5848 -0.3190 -0.0292
15495TIP3   OH267975   0.407   3.758   5.520  0.1196  0.0768 -0.1522
15495TIP3    H167976   0.390   3.817   5.448  0.0552  0.3294  0.0693
15495TIP3    H267977   0.465   3.807   5.578  1.8667 -0.8541 -1.0287
15496TIP3   OH267978   3.135   6.309  12.698  1.1518 -0.4190 -0.6513
15496TIP3    H167979   3.143   6.404  12.704  0.1215 -0.3482 -0.0433
15496TIP3    H267980   3.209   6.276  12.749 -0.0812  0.1119  1.6202
15497TIP3   OH267981   1.124   3.125  11.123  0.0494  0.0375  0.6064
15497TIP3    H167982   1.119   3.036  11.087  0.2561  0.4235 -0.3797
15497TIP3    H267983   1.079   3.180  11.059 -0.0430  0.6605  1.1905
15498TIP3   OH267984   6.093   2.502  11.315 -0.3489 -0.3812 -0.2837
15498TIP3    H167985   6.177   2.545  11.329 -0.3917 -0.1551 -0.7167
15498TIP3    H267986   6.031   2.573  11.301 -1.1438 -0.3846  2.5737
15499TIP3   OH267987   0.936   6.362  12.482  0.1294  0.1781 -0.0403
15499TIP3    H167988   0.963   6.453  12.470  0.6100 -0.0987 -1.1242
15499TIP3    H267989   1.000   6.326  12.543  0.9764  0.1131 -0.9348
15500TIP3   OH267990   1.382   0.992  13.654 -0.2446  0.1874 -0.0577
15500TIP3    H167991   1.323   0.936  13.704 -0.4877  0.5692  0.0914
15500TIP3    H267992   1.350   1.081  13.670  0.8549  0.4792  0.7052
15501TIP3   OH267993   5.754   6.444  11.691  0.0692  0.1628  0.4336
15501TIP3    H167994   5.686   6.500  11.654 -1.1486 -1.3226  0.3309
15501TIP3    H267995   5.801   6.410  11.615  0.2433  0.3499  0.4560
15502TIP3   OH267996   2.189   3.283   2.951  0.1595 -0.0108 -0.5619
15502TIP3    H167997   2.165   3.204   2.902 -0.6172  0.1000 -0.3714
15502TIP3    H267998   2.205   3.252   3.040  2.3158 -0.3347 -1.0030
15503TIP3   OH267999   0.606   5.508  16.882 -0.2708  0.0059 -0.7746
15503TIP3    H168000   0.589   5.603  16.887 -1.1185 -0.1625 -0.1786
15503TIP3    H268001   0.694   5.501  16.844  0.6995  1.0818  1.1603
15504TIP3   OH268002   6.177   3.107  13.662  0.7113 -0.0643 -0.0175
15504TIP3    H168003   6.201   3.192  13.699 -1.6450  0.5730  0.1797
15504TIP3    H268004   6.176   3.048  13.738 -0.5600  0.4262  0.3689
15505TIP3   OH268005   6.810   3.876   3.870  1.1663 -0.4414 -0.0665
15505TIP3    H168006   6.767   3.944   3.923  0.7689  0.6173 -1.6762
15505TIP3    H268007   6.743   3.809   3.857  0.4771  0.4358 -1.1979
15506TIP3   OH268008   5.439   4.877  12.347  0.4898  0.1272 -0.0035
15506TIP3    H168009   5.386   4.798  12.360  1.3360 -0.4407  0.1069
15506TIP3    H268010   5.397   4.943  12.402 -1.0283  0.1527 -1.1520
15507TIP3   OH268011   2.933   3.549   5.205 -0.0154  0.3354  0.0052
15507TIP3    H168012   2.942   3.631   5.157  2.2732  0.7208  0.9933
15507TIP3    H268013   2.985   3.486   5.155 -1.7180 -0.5678 -0.7232
15508TIP3   OH268014   1.937   2.656   5.740 -0.0576  0.1439 -0.3151
15508TIP3    H168015   2.003   2.640   5.807 -0.4426 -0.5689 -0.0954
15508TIP3    H268016   1.858   2.677   5.789 -0.1634  0.3341 -0.5652
15509TIP3   OH268017   0.251   0.608  11.941  0.1795 -0.2034 -0.4246
15509TIP3    H168018   0.263   0.541  11.873 -0.5336  1.0477 -1.8554
15509TIP3    H268019   0.273   0.564  12.023  1.3758 -1.6861 -1.4900
15510TIP3   OH268020   0.265   5.504   1.848  0.0803 -0.1611  0.5236
15510TIP3    H168021   0.294   5.595   1.854  0.1667 -0.1854  0.4727
15510TIP3    H268022   0.330   5.455   1.897 -1.0268  0.0294  2.2871
15511TIP3   OH268023   4.125   6.236  14.008  0.1414  0.1644  0.1764
15511TIP3    H168024   4.217   6.236  13.982  0.5149 -3.9584  0.7693
15511TIP3    H268025   4.125   6.265  14.099  0.5733  1.8164 -0.3278
15512TIP3   OH268026   5.731   3.685   6.799  0.2165  0.3133  0.3532
15512TIP3    H168027   5.665   3.696   6.867 -1.0839  0.9230 -0.9571
15512TIP3    H268028   5.730   3.767   6.750  1.6114  0.1466  0.0096
15513TIP3   OH268029   1.945   1.360  13.910  0.4680 -0.1801 -0.2420
15513TIP3    H168030   1.964   1.432  13.970 -1.6084 -0.2635  0.6245
15513TIP3    H268031   1.886   1.303  13.959  0.3129 -1.3153 -1.6804
15514TIP3   OH268032   6.426   1.962  17.002 -0.3711  0.0176 -0.5463
15514TIP3    H168033   6.487   1.929  16.936  0.0043 -2.1697  0.7836
15514TIP3    H268034   6.468   2.040  17.037  0.9372 -0.5893 -0.7094
15515TIP3   OH268035   2.877   2.798  15.807 -0.4784 -0.4383  0.3153
15515TIP3    H168036   2.929   2.865  15.850 -0.7453 -1.0048  1.5495
15515TIP3    H268037   2.822   2.846  15.745  0.8559  0.2497 -0.3771
15516TIP3   OH268038   4.629   6.194   1.750  0.0250  1.0676 -0.8936
15516TIP3    H168039   4.636   6.123   1.686 -0.2080  0.9331 -0.7725
15516TIP3    H268040   4.539   6.188   1.782  0.3334  0.6932 -0.0574
15517TIP3   OH268041   0.751   4.423   5.538 -0.5557 -0.0035 -0.1217
15517TIP3    H168042   0.663   4.403   5.506 -0.4649  0.4666 -0.6835
15517TIP3    H268043   0.766   4.514   5.513  0.5279 -0.4123 -1.0802
15518TIP3   OH268044   1.437   4.617  12.529 -0.4306  0.4016 -0.2848
15518TIP3    H168045   1.479   4.670  12.597  0.1128  1.9119 -1.7506
15518TIP3    H268046   1.352   4.659  12.515  0.1273  1.1277 -1.6686
15519TIP3   OH268047   1.583   4.972   0.887 -0.0694 -0.4274  0.0829
15519TIP3    H168048   1.607   4.916   0.813  0.1386  0.5840 -0.6320
15519TIP3    H268049   1.665   4.981   0.937  0.2436  0.3294 -0.5471
15520TIP3   OH268050   5.401   4.686   1.352  0.2519  0.0884  0.0830
15520TIP3    H168051   5.338   4.757   1.354 -0.3625 -0.4590  0.4645
15520TIP3    H268052   5.370   4.624   1.418  1.6194  0.1678  0.8383
15521TIP3   OH268053   1.543   1.324  16.528 -0.1506  0.0268 -0.1407
15521TIP3    H168054   1.582   1.263  16.591 -2.1188 -0.3511  0.8003
15521TIP3    H268055   1.617   1.372  16.491  1.1951 -0.8779  1.2832
15522TIP3   OH268056   4.432   1.714   5.527 -0.0691 -0.4484  0.2885
15522TIP3    H168057   4.479   1.797   5.522  0.4163 -0.6176  1.6074
15522TIP3    H268058   4.374   1.724   5.603 -0.6844 -0.9849 -0.1003
15523TIP3   OH268059   6.095   4.570   5.602 -0.0269  0.1049  0.5314
15523TIP3    H168060   6.158   4.610   5.661  1.4453 -1.2164 -0.0798
15523TIP3    H268061   6.082   4.635   5.533  2.3606 -0.3737 -0.4801
15524TIP3   OH268062   5.207   6.236  15.675  0.3321  0.3578 -0.5324
15524TIP3    H168063   5.152   6.314  15.667 -1.1090 -0.6849 -1.2043
15524TIP3    H268064   5.147   6.167  15.705  1.1708 -0.8999 -1.6361
15525TIP3   OH268065   3.358   6.206   5.952  0.7382  0.3236 -0.0734
15525TIP3    H168066   3.327   6.133   6.006 -1.9043  1.0228 -0.5485
15525TIP3    H268067   3.446   6.224   5.987  0.2951 -1.1355  2.0362
15526TIP3   OH268068   4.553   0.529   1.324 -0.3468 -0.2061  0.1962
15526TIP3    H168069   4.538   0.611   1.372  2.4876 -0.0711  1.0242
15526TIP3    H268070   4.591   0.556   1.241 -2.4820 -0.6106 -1.0042
15527TIP3   OH268071   0.486   5.944  13.777  0.2687 -0.2363 -0.0399
15527TIP3    H168072   0.578   5.967  13.769  1.1062 -1.3217  4.2608
15527TIP3    H268073   0.450   6.006  13.840 -1.4139 -1.1082 -0.0603
15528TIP3   OH268074   5.421   5.262   2.504 -0.1733  0.0510  0.0385
15528TIP3    H168075   5.463   5.283   2.587 -0.3838  0.1392  0.1251
15528TIP3    H268076   5.493   5.254   2.441 -0.0754  0.8981  0.0315
15529TIP3   OH268077   2.915   0.124   0.070 -0.0166  0.1912  0.7890
15529TIP3    H168078   2.952   0.042   0.103 -1.1253 -0.0828  1.4199
15529TIP3    H268079   2.870   0.162   0.146 -2.0118 -0.0957 -0.1900
15530TIP3   OH268080   3.741   2.762   5.519 -0.1794  0.3589 -0.3085
15530TIP3    H168081   3.709   2.736   5.605 -1.6801  1.1728 -0.5861
15530TIP3    H268082   3.836   2.763   5.528 -0.3169  1.2380  1.5817
15531TIP3   OH268083   4.707   5.075   5.378 -0.4912  0.1309 -0.2923
15531TIP3    H168084   4.778   5.012   5.365 -0.2172  0.6922 -1.6706
15531TIP3    H268085   4.694   5.078   5.473  0.9481 -0.3959 -0.0642
15532TIP3   OH268086   5.497   2.298   3.207 -0.1390  0.1624  0.1222
15532TIP3    H168087   5.539   2.216   3.182 -0.7811  0.2837 -1.4607
15532TIP3    H268088   5.429   2.272   3.270 -0.0718 -0.4832 -0.0621
15533TIP3   OH268089   2.381   2.849  11.980  0.1199  0.3853  0.0398
15533TIP3    H168090   2.339   2.767  12.006 -0.1173  1.4160  3.5313
15533TIP3    H268091   2.377   2.850  11.885 -2.0467 -2.4950 -0.0203
15534TIP3   OH268092   5.045   3.719  15.171 -0.3386 -0.4987  0.6532
15534TIP3    H168093   5.140   3.731  15.176 -0.4374  0.7219  0.0035
15534TIP3    H268094   5.031   3.627  15.193  1.1508 -1.1558 -0.8911
15535TIP3   OH268095   2.309   2.983   4.802  0.0984 -0.1118  0.1255
15535TIP3    H168096   2.333   3.032   4.880  2.7501 -0.4024 -0.4230
15535TIP3    H268097   2.316   2.891   4.829  1.2759 -0.2169 -0.4829
15536TIP3   OH268098   3.965   6.354   5.306  0.0046  0.7308 -0.0111
15536TIP3    H168099   3.981   6.307   5.388 -1.4380  0.8384  0.3621
15536TIP3    H268100   4.012   6.304   5.240 -1.4859 -1.3166  0.3684
15537TIP3   OH268101   0.958   5.932  14.810 -0.2271  0.5617 -0.1763
15537TIP3    H168102   0.939   5.958  14.900 -1.1087 -2.7699  0.7257
15537TIP3    H268103   0.995   5.844  14.817  0.6211  0.5777 -3.0320
15538TIP3   OH268104   3.717   1.471   3.716  0.1481  0.6376 -0.6382
15538TIP3    H168105   3.646   1.503   3.661 -0.1415 -0.8098 -1.1345
15538TIP3    H268106   3.733   1.381   3.687  0.1624 -0.1024  1.4446
15539TIP3   OH268107   5.166   6.132   4.287 -0.1801 -0.1962 -0.3659
15539TIP3    H168108   5.166   6.155   4.194 -0.8525  0.0083 -0.3224
15539TIP3    H268109   5.073   6.117   4.307 -0.0899  0.2331  0.3878
15540TIP3   OH268110   1.282   4.709  16.482 -0.8524  0.2218 -0.2940
15540TIP3    H168111   1.297   4.696  16.576 -2.7662  0.4549  0.0959
15540TIP3    H268112   1.272   4.804  16.472 -2.0026  0.1026 -0.4656
15541TIP3   OH268113   1.501   0.774   1.548 -0.1487  0.2037 -0.8747
15541TIP3    H168114   1.447   0.726   1.611 -0.2335  2.2170  0.7142
15541TIP3    H268115   1.540   0.706   1.493 -1.5118 -1.5383  0.1896
15542TIP3   OH268116   1.844   4.069  12.411  0.6029 -0.1409  0.3163
15542TIP3    H168117   1.862   4.003  12.343  1.4320 -0.7435  1.0951
15542TIP3    H268118   1.755   4.099  12.391  1.5138  1.1824 -2.2424
15543TIP3   OH268119   2.951   5.330   4.443  0.7955 -0.6588 -0.4088
15543TIP3    H168120   3.015   5.284   4.497 -0.5601 -3.3307 -0.9037
15543TIP3    H268121   2.890   5.261   4.415 -0.8491  1.3341 -2.0003
15544TIP3   OH268122   4.702   2.774   1.431 -0.2395  0.0086 -0.3180
15544TIP3    H168123   4.694   2.867   1.450 -1.1109 -0.3388  1.2340
15544TIP3    H268124   4.788   2.749   1.465  0.3857  0.4003 -1.5575
15545TIP3   OH268125   1.531   3.530  15.927 -0.2638  0.0435 -0.1292
15545TIP3    H168126   1.621   3.560  15.939 -0.7297  1.5008 -0.0006
15545TIP3    H268127   1.538   3.454  15.870  1.0614 -0.0201  0.0846
15546TIP3   OH268128   0.886   3.065   0.781 -0.5831  1.2202 -0.7077
15546TIP3    H168129   0.940   3.120   0.839  0.5668  1.9972 -2.4357
15546TIP3    H268130   0.798   3.073   0.816  0.0517  1.7129  0.8913
15547TIP3   OH268131   2.930   3.338  12.172  0.4785  0.1523  0.2183
15547TIP3    H168132   2.925   3.392  12.093 -1.1154  0.7352  0.6590
15547TIP3    H268133   2.890   3.393  12.240  1.2310 -0.5866  1.2872
15548TIP3   OH268134   6.764   3.133  10.873 -0.2086 -0.2720 -0.2730
15548TIP3    H168135   6.702   3.200  10.845  0.2634 -0.1064 -0.9814
15548TIP3    H268136   6.833   3.135  10.806 -0.4763 -1.8754 -0.6487
15549TIP3   OH268137   5.550   0.693   2.315  0.2448  0.2208 -0.0664
15549TIP3    H168138   5.535   0.764   2.377 -1.7516 -1.4085  1.4639
15549TIP3    H268139   5.556   0.735   2.230 -0.8469  2.2033  0.7931
15550TIP3   OH268140   0.069   1.715   3.958  0.2415  0.0458  0.4542
15550TIP3    H168141   0.119   1.688   4.035  0.5894  0.9850  0.5675
15550TIP3    H268142  -0.022   1.695   3.980  0.4769 -1.0744  0.5039
15551TIP3   OH268143   5.417   2.813  12.571 -0.5010 -0.1376 -0.1336
15551TIP3    H168144   5.458   2.898  12.587  1.6079 -1.0285 -0.5274
15551TIP3    H268145   5.329   2.821  12.609 -0.9578  2.7278 -1.5460
15552TIP3   OH268146   3.393   2.306   1.513 -0.4969 -0.3817 -0.1655
15552TIP3    H168147   3.309   2.305   1.466 -0.0175  1.3426 -1.1672
15552TIP3    H268148   3.459   2.296   1.444  0.1649 -0.0216  0.3989
15553TIP3   OH268149   3.378   4.389  11.575 -0.1939  0.3899 -0.0291
15553TIP3    H168150   3.386   4.400  11.670 -0.8170 -0.6658  0.1518
15553TIP3    H268151   3.463   4.356  11.548  0.0074  0.7540  0.1441
15554TIP3   OH268152   3.195   3.662   1.048  0.4462 -0.2368 -0.3513
15554TIP3    H168153   3.186   3.569   1.024 -2.3447  0.2537 -1.6250
15554TIP3    H268154   3.112   3.684   1.089  1.8056  1.2833  1.8188
15555TIP3   OH268155   5.865   5.181   1.994  0.5752  0.4785 -0.3269
15555TIP3    H168156   5.779   5.140   2.007  1.1474 -1.0104 -1.1114
15555TIP3    H268157   5.924   5.132   2.052  0.9571  1.3587  0.0500
15556TIP3   OH268158   1.448   1.709  14.810 -0.1279  0.5106 -0.3464
15556TIP3    H168159   1.423   1.775  14.746 -1.8790 -0.6434 -0.9264
15556TIP3    H268160   1.372   1.652  14.818  0.7304 -0.5073  1.3507
15557TIP3   OH268161   3.994   6.559   2.160 -0.6728  0.6616 -0.0998
15557TIP3    H168162   4.004   6.591   2.071 -0.4606  0.3506 -0.1888
15557TIP3    H268163   3.938   6.482   2.153 -0.7206  0.6817  0.0444
15558TIP3   OH268164   3.485   6.045  13.069  0.1612  0.3487 -0.1736
15558TIP3    H168165   3.534   6.023  13.148  3.4682  3.2969 -1.1548
15558TIP3    H268166   3.521   5.988  13.001 -0.3176  0.0888 -0.2135
15559TIP3   OH268167   5.179   1.256  12.086 -0.2001 -0.3153  0.1510
15559TIP3    H168168   5.175   1.184  12.023  1.2116  0.7057 -1.1933
15559TIP3    H268169   5.249   1.312  12.053  1.2280 -0.1572  3.1185
15560TIP3   OH268170   4.992   1.696  14.104  0.2326  0.1920  0.6220
15560TIP3    H168171   4.905   1.656  14.107  1.0230 -1.7189 -0.6019
15560TIP3    H268172   4.977   1.787  14.131 -2.4953  0.5048 -1.5421
15561TIP3   OH268173   1.147   5.902   6.192 -0.6614  0.0427 -0.0178
15561TIP3    H168174   1.197   5.932   6.268 -1.2656 -0.2581  0.5086
15561TIP3    H268175   1.118   5.814   6.216  0.2462 -0.5959 -1.1394
15562TIP3   OH268176   5.411   5.979  11.463 -0.3164 -0.5082 -0.0056
15562TIP3    H168177   5.417   5.929  11.544  1.2292 -0.3843 -0.0254
15562TIP3    H268178   5.501   6.005  11.443 -0.4981 -1.4561 -2.3460
15563TIP3   OH268179   1.633   3.805  12.611 -0.6181 -0.3463 -0.6380
15563TIP3    H168180   1.568   3.744  12.646  0.4782 -1.8293 -1.0869
15563TIP3    H268181   1.581   3.876  12.573 -1.9054 -0.5255  0.7076
15564TIP3   OH268182   6.286   6.195  15.157  0.7474 -0.7284  0.0669
15564TIP3    H168183   6.368   6.169  15.115  1.0675  0.2582  0.0317
15564TIP3    H268184   6.314   6.239  15.237  0.1541 -2.2594  1.1421
15565TIP3   OH268185   6.381   0.545   0.595  0.1871  0.2154  0.4500
15565TIP3    H168186   6.382   0.462   0.643  0.1394  0.6225  1.1654
15565TIP3    H268187   6.446   0.532   0.526  0.5796 -0.2278  0.8886
15566TIP3   OH268188   2.835   4.233   0.144  0.3687 -0.0833 -0.1064
15566TIP3    H168189   2.755   4.235   0.091 -0.0358 -0.5256  0.4667
15566TIP3    H268190   2.876   4.318   0.129 -0.0242  0.0156 -0.6853
15567TIP3   OH268191   6.286   6.804   3.205 -0.2042 -1.1149  0.5316
15567TIP3    H168192   6.334   6.828   3.125  0.2171 -1.0529  0.7992
15567TIP3    H268193   6.214   6.750   3.174  0.0353 -1.2050  0.1168
15568TIP3   OH268194   3.351   2.744  12.058  0.3248  0.4249 -0.0486
15568TIP3    H168195   3.364   2.838  12.071  0.2998  0.5032 -0.5609
15568TIP3    H268196   3.334   2.709  12.146 -3.4786  1.4899 -0.2177
15569TIP3   OH268197   6.781   4.398  15.288  0.5531 -0.4396  0.0570
15569TIP3    H168198   6.856   4.353  15.327  1.8622  2.3161  1.0288
15569TIP3    H268199   6.820   4.468  15.236 -1.3298  1.0790  0.5706
15570TIP3   OH268200   0.036   5.726  12.827 -0.0841 -0.3246 -0.0593
15570TIP3    H168201   0.038   5.634  12.799 -0.2340 -0.9973  1.9482
15570TIP3    H268202   0.124   5.758  12.810  0.6614 -1.5495  1.2507
15571TIP3   OH268203   1.522   5.899  15.710  0.5852  0.4124 -0.0494
15571TIP3    H168204   1.452   5.834  15.704  2.0610 -1.1475 -1.5746
15571TIP3    H268205   1.583   5.875  15.640  1.6059  2.9937 -0.1481
15572TIP3   OH268206   5.715   3.556  10.223  0.6682  0.8046 -0.4973
15572TIP3    H168207   5.673   3.609  10.291 -0.7201 -0.4414 -0.3423
15572TIP3    H268208   5.705   3.466  10.254 -0.7036  0.1254 -2.7038
15573TIP3   OH268209   6.762   1.579  13.283 -0.0983 -0.3148  0.2791
15573TIP3    H168210   6.688   1.599  13.226 -1.6690 -2.7805  1.2384
15573TIP3    H268211   6.773   1.658  13.336  0.2401  1.3594 -2.1227
15574TIP3   OH268212   4.007   4.100  12.706 -0.2241  0.3842 -0.5647
15574TIP3    H168213   4.055   4.053  12.638  1.4779 -0.8734  1.3712
15574TIP3    H268214   3.928   4.048  12.721  0.0216 -0.0346 -0.7208
15575TIP3   OH268215   3.368   2.105  11.393 -0.2391 -0.4611 -0.4863
15575TIP3    H168216   3.393   2.166  11.463 -0.8274 -0.1875 -0.5103
15575TIP3    H268217   3.429   2.124  11.322 -0.4747  0.1721 -0.5278
15576TIP3   OH268218   6.172   3.477   0.849 -0.4469 -0.2475 -0.1454
15576TIP3    H168219   6.247   3.418   0.838 -0.4803 -0.3492  0.1637
15576TIP3    H268220   6.174   3.533   0.772  0.8797  0.7972  0.6130
15577TIP3   OH268221   2.314   6.802  17.146 -0.4813  0.0417 -0.8108
15577TIP3    H168222   2.405   6.825  17.128 -0.1178 -0.7276  0.0031
15577TIP3    H268223   2.319   6.730  17.209 -1.6516 -0.0458 -0.7975
15578TIP3   OH268224   6.341   3.695  13.636 -0.3937  0.0641  0.0261
15578TIP3    H168225   6.392   3.620  13.605  0.7004  0.5133  0.6789
15578TIP3    H268226   6.255   3.684  13.596 -0.0156 -1.1249 -0.5004
15579TIP3   OH268227   1.959   1.222  16.604 -0.0606 -0.3539 -0.1563
15579TIP3    H168228   1.935   1.145  16.552  1.2846 -1.4167  0.6901
15579TIP3    H268229   1.982   1.289  16.539  0.8443 -1.3937 -0.9497
15580TIP3   OH268230   0.668   1.200   0.124 -0.0432  0.8317  0.0896
15580TIP3    H168231   0.606   1.261   0.083  0.0599 -0.5473 -2.3241
15580TIP3    H268232   0.663   1.121   0.070  3.4749  0.4884  0.0053
15581TIP3   OH268233   1.562   4.855   5.277  0.0418 -0.0426 -0.3560
15581TIP3    H168234   1.512   4.794   5.222 -0.2901 -0.9028  0.8607
15581TIP3    H268235   1.583   4.928   5.219 -0.0171 -1.0606 -1.7162
15582TIP3   OH268236   4.556   1.817   2.128 -0.1842  0.6026  0.2979
15582TIP3    H168237   4.493   1.886   2.105 -0.6181 -0.0545 -0.5113
15582TIP3    H268238   4.594   1.790   2.045 -0.5378 -0.6252  0.5128
15583TIP3   OH268239   6.202   6.686  12.049  0.3779  0.0123 -0.2899
15583TIP3    H168240   6.168   6.639  11.973  0.8935 -1.2664  0.2367
15583TIP3    H268241   6.297   6.691  12.034  0.5495 -0.6628  0.4597
15584TIP3   OH268242   4.508   6.319   4.273 -0.1724  0.1130  1.0743
15584TIP3    H168243   4.522   6.413   4.284  1.9884 -0.1895  1.3266
15584TIP3    H268244   4.579   6.278   4.323  0.1482 -1.6036 -0.6442
15585TIP3   OH268245   3.984   5.319   2.224  0.1558  0.6059  0.0085
15585TIP3    H168246   3.902   5.314   2.176 -0.8397 -1.6272  1.7360
15585TIP3    H268247   3.960   5.308   2.316  2.2610  1.3133  0.7128
15586TIP3   OH268248   6.656   3.045   4.192  0.2970 -0.5963  0.1476
15586TIP3    H168249   6.591   3.115   4.185  0.0675 -0.6704  1.4077
15586TIP3    H268250   6.741   3.091   4.192  0.1443 -0.3078  1.0548
15587TIP3   OH268251   6.208   0.801  12.997 -0.2610  0.3129 -0.0749
15587TIP3    H168252   6.251   0.737  13.054  1.3775 -0.0339 -1.6140
15587TIP3    H268253   6.150   0.748  12.942 -1.6116  0.6124  1.0088
15588TIP3   OH268254   1.982   1.610  13.302  0.0401 -0.2298  0.5538
15588TIP3    H168255   1.961   1.620  13.395  1.4268  0.3754  0.8200
15588TIP3    H268256   2.071   1.575  13.300 -0.2240 -0.9061 -0.5492
15589TIP3   OH268257   3.345   4.764   2.126  0.2455  0.5461  0.6988
15589TIP3    H168258   3.276   4.828   2.140  1.2961  1.6875  0.8055
15589TIP3    H268259   3.314   4.710   2.053 -0.9818  0.6865  1.0981
15590TIP3   OH268260   2.222   3.835   0.186  0.4064 -0.3256  0.1930
15590TIP3    H168261   2.162   3.826   0.261  2.0217 -1.6420  1.4091
15590TIP3    H268262   2.189   3.910   0.138 -0.0305  1.3683  2.9130
15591TIP3   OH268263   6.703   5.407  16.629 -0.1247 -0.2161 -0.0453
15591TIP3    H168264   6.675   5.378  16.716 -2.1496 -0.4486 -0.7294
15591TIP3    H268265   6.714   5.327  16.579 -1.1463 -0.0266 -0.6058
15592TIP3   OH268266   3.608   3.703   2.086  0.0123 -0.5073 -0.1850
15592TIP3    H168267   3.572   3.705   2.174  2.6592 -2.1619  1.0379
15592TIP3    H268268   3.630   3.794   2.067 -0.2146 -0.1923  1.0104
15593TIP3   OH268269   1.101   0.065   2.793  0.2423  0.1607  0.7742
15593TIP3    H168270   1.016   0.083   2.833 -0.5262 -1.6903  0.0745
15593TIP3    H268271   1.097   0.109   2.708 -0.2404 -0.3370  0.5299
15594TIP3   OH268272   1.188   5.360   5.355  0.1556  0.2241  0.5360
15594TIP3    H168273   1.125   5.413   5.403  0.4097  0.5992  0.4585
15594TIP3    H268274   1.146   5.342   5.271  0.3979  0.9863  0.2470
15595TIP3   OH268275   5.662   3.785   3.497  0.2491  0.0338  0.3665
15595TIP3    H168276   5.657   3.878   3.477  0.8459 -0.0763 -0.3397
15595TIP3    H268277   5.599   3.744   3.438 -0.6048  0.0555  1.2342
15596TIP3   OH268278   2.354   2.849   1.205  0.2421 -0.5634 -0.1872
15596TIP3    H168279   2.447   2.833   1.218  0.6268  2.6314  2.3018
15596TIP3    H268280   2.313   2.763   1.218  2.7305 -1.9184 -0.6355
15597TIP3   OH268281   4.655   1.086   2.829 -0.1259  0.2514  0.2409
15597TIP3    H168282   4.628   0.994   2.820 -0.9622  0.6042 -1.4224
15597TIP3    H268283   4.589   1.134   2.779  1.6028  1.5328 -0.9063
15598TIP3   OH268284   3.118   6.329  13.077 -0.5499 -0.3739  0.0070
15598TIP3    H168285   3.067   6.397  13.032  1.2505  0.4551 -0.8839
15598TIP3    H268286   3.097   6.341  13.169 -0.2283  1.4945 -0.1163
15599TIP3   OH268287   5.330   0.009  11.769  0.5290  0.1129  0.1962
15599TIP3    H168288   5.249  -0.016  11.725  1.5013 -0.8731 -1.1220
15599TIP3    H268289   5.346   0.099  11.741  0.9879 -0.4104 -1.3089
15600TIP3   OH268290   6.159   4.227  17.083  0.6898 -0.3493 -0.4756
15600TIP3    H168291   6.157   4.321  17.065 -0.6066 -0.3656 -0.4938
15600TIP3    H268292   6.106   4.188  17.014  1.1688 -1.0912 -0.4325
15601TIP3   OH268293   3.251   6.628   0.969  0.3247  0.2523  0.1266
15601TIP3    H168294   3.193   6.704   0.976  0.1593  0.1431 -0.0337
15601TIP3    H268295   3.197   6.561   0.927  0.6178  0.2014 -0.1731
15602TIP3   OH268296   0.520   6.668   4.984  0.0883  0.1355 -0.3510
15602TIP3    H168297   0.607   6.645   4.951  0.3155 -1.2799  1.1088
15602TIP3    H268298   0.527   6.660   5.079 -1.7529 -0.5530 -0.2278
15603TIP3   OH268299   0.067   1.007   1.351 -0.2473  0.2191 -0.1273
15603TIP3    H168300   0.090   0.923   1.310 -1.4934  0.9877 -2.5949
15603TIP3    H268301   0.146   1.033   1.397  1.4211 -0.6235 -2.3199
15604TIP3   OH268302   1.926   4.785   2.241  0.0120  0.0575  0.2679
15604TIP3    H168303   1.850   4.843   2.237  0.7492  0.9980 -1.4297
15604TIP3    H268304   1.893   4.704   2.279 -1.9466  0.2981 -0.7823
15605TIP3   OH268305   6.584   0.829  11.614 -1.0038 -0.2580  0.4104
15605TIP3    H168306   6.598   0.812  11.521 -1.6216  2.6992 -0.3040
15605TIP3    H268307   6.571   0.742  11.652  0.9212 -1.6956 -1.9257
15606TIP3   OH268308   2.447   4.145  11.785  0.2472  0.6114 -0.6310
15606TIP3    H168309   2.410   4.102  11.862 -0.9675  0.1752 -1.4195
15606TIP3    H268310   2.509   4.209  11.820 -0.4340  0.5722  0.7117
15607TIP3   OH268311   2.017   6.021   1.556 -0.4206 -0.0812  0.2064
15607TIP3    H168312   2.093   6.042   1.502 -0.6769  0.8491  0.1815
15607TIP3    H268313   2.009   5.926   1.551  0.1068 -0.0937 -0.6587
15608TIP3   OH268314   0.325   2.854   1.861 -0.4623 -0.3731 -0.4693
15608TIP3    H168315   0.313   2.823   1.950 -2.8210  2.6318  0.4724
15608TIP3    H268316   0.270   2.797   1.808 -0.6099 -0.9787  0.3279
15609TIP3   OH268317   2.394   6.260   5.272  0.1594  0.5867 -0.4135
15609TIP3    H168318   2.332   6.303   5.214  0.3377  0.3457 -0.7922
15609TIP3    H268319   2.368   6.168   5.270 -0.9916  0.8141  1.3552
15610TIP3   OH268320   0.164   0.472   4.775  0.5016 -0.0320  0.0670
15610TIP3    H168321   0.120   0.391   4.798  3.2577 -2.2586 -1.8239
15610TIP3    H268322   0.107   0.514   4.711  1.1069 -3.0972 -2.7681
15611TIP3   OH268323   1.839   1.412   1.997  0.1354  0.2609  0.0787
15611TIP3    H168324   1.850   1.356   1.920  2.1419  2.3968 -1.3471
15611TIP3    H268325   1.784   1.362   2.056 -0.9096 -1.7900 -2.4502
15612TIP3   OH268326   5.680   1.559  11.105  0.7778 -0.1021 -0.1728
15612TIP3    H168327   5.612   1.514  11.154  2.0387 -0.2418  1.5267
15612TIP3    H268328   5.676   1.521  11.017 -0.5397 -0.9323  0.2234
15613TIP3   OH268329   2.331   4.313  14.386  0.1518 -0.3388  0.2453
15613TIP3    H168330   2.389   4.286  14.458 -0.4336 -0.5175  0.6599
15613TIP3    H268331   2.289   4.232  14.358 -0.3821 -0.1194  0.3905
15614TIP3   OH268332   1.032   5.768  10.822 -0.0927  0.2601 -0.3842
15614TIP3    H168333   0.940   5.777  10.846  0.3203 -0.0357  1.4430
15614TIP3    H268334   1.079   5.772  10.905  1.2480 -3.9906 -0.7217
15615TIP3   OH268335   6.064   2.800  11.187 -0.0331 -0.2935 -0.2285
15615TIP3    H168336   6.134   2.748  11.148 -0.4708 -1.1442  0.0953
15615TIP3    H268337   6.102   2.887  11.197  1.1704 -0.8646  0.4436
15616TIP3   OH268338   1.111   5.541  16.730 -0.1900 -0.1696 -0.1293
15616TIP3    H168339   1.139   5.624  16.690 -1.6032 -0.0948 -1.0413
15616TIP3    H268340   1.171   5.476  16.695  1.1491  0.4872  0.8512
15617TIP3   OH268341   0.303   3.748  12.481 -0.4450 -0.4361  0.5337
15617TIP3    H168342   0.271   3.658  12.486  0.0576 -0.6301  0.3189
15617TIP3    H268343   0.353   3.760  12.561 -0.3442 -0.4112  0.4665
15618TIP3   OH268344   3.784   0.119   3.369  0.7988 -0.1444 -0.3073
15618TIP3    H168345   3.775   0.040   3.424 -0.1646 -2.1531 -3.1244
15618TIP3    H268346   3.875   0.145   3.381  0.5640 -0.2150  2.4658
15619TIP3   OH268347   3.588   0.188  16.541 -0.5924  0.5047 -0.3715
15619TIP3    H168348   3.551   0.123  16.600  0.9583  0.9860  1.2193
15619TIP3    H268349   3.596   0.143  16.457 -0.3655 -1.0732  0.4692
15620TIP3   OH268350   5.269   5.273  14.704  0.5759  0.0153 -0.4368
15620TIP3    H168351   5.329   5.347  14.694  1.0402 -0.5263 -1.7965
15620TIP3    H268352   5.314   5.214  14.765  1.0843 -0.0279 -0.8439
15621TIP3   OH268353   6.404   4.056   3.455 -1.0638  0.0189 -0.1316
15621TIP3    H168354   6.487   4.012   3.474 -0.8767 -0.3496 -1.6514
15621TIP3    H268355   6.408   4.138   3.504  0.8767  0.7134 -1.3362
15622TIP3   OH268356   6.839   3.803   1.842  0.3747  0.0519  0.3696
15622TIP3    H168357   6.870   3.872   1.901  2.0692 -0.5053  0.1720
15622TIP3    H268358   6.903   3.801   1.771 -2.8866  2.4285 -2.9765
15623TIP3   OH268359   5.929   5.608  14.090 -0.0492  0.0928 -0.1920
15623TIP3    H168360   5.845   5.572  14.062 -0.4282 -0.5651  1.6395
15623TIP3    H268361   5.921   5.702  14.076 -0.3859 -0.1411 -1.7311
15624TIP3   OH268362   3.086   2.825  14.891  0.2648 -0.3242 -0.4770
15624TIP3    H168363   3.168   2.782  14.869  1.5712  0.6328  2.0874
15624TIP3    H268364   3.086   2.905  14.838  1.1398 -0.2026 -0.3073
15625TIP3   OH268365   6.183   6.573  15.430 -0.1331 -0.2136  0.5098
15625TIP3    H168366   6.187   6.566  15.526  0.8244  1.4458  0.6356
15625TIP3    H268367   6.089   6.577  15.410 -0.3451 -0.7429  1.3595
15626TIP3   OH268368   2.709   5.802  12.518  0.4273  0.6002 -0.2084
15626TIP3    H168369   2.651   5.868  12.479  1.5927  2.1342  0.5169
15626TIP3    H268370   2.683   5.799  12.610 -2.2070 -2.8906 -0.8748
15627TIP3   OH268371   5.457   2.179   0.908 -0.0223  0.5616 -0.2053
15627TIP3    H168372   5.501   2.097   0.932  0.0731  0.4639 -0.6878
15627TIP3    H268373   5.404   2.202   0.985  1.6707  1.2447  0.7968
15628TIP3   OH268374   4.306   3.199   2.409 -0.5037  0.1154  0.2570
15628TIP3    H168375   4.388   3.246   2.397 -1.3238  1.8164  0.8818
15628TIP3    H268376   4.252   3.259   2.462 -1.9664 -1.1422  0.2586
15629TIP3   OH268377   3.397   2.156   1.760  0.4426 -0.1809 -0.3360
15629TIP3    H168378   3.424   2.211   1.834 -0.9479 -0.3267  0.3055
15629TIP3    H268379   3.389   2.217   1.687  1.0342  0.1046 -0.1682
15630TIP3   OH268380   3.102   3.888  16.767 -0.2337  0.5875  0.7618
15630TIP3    H168381   3.141   3.801  16.755  0.0228  0.8515 -0.3763
15630TIP3    H268382   3.092   3.896  16.862  0.1873 -0.4854  0.9145
15631TIP3   OH268383   3.625   2.987  13.794 -0.1494  0.2774 -0.2989
15631TIP3    H168384   3.577   2.951  13.719  0.5929 -0.7121 -0.3187
15631TIP3    H268385   3.641   2.911  13.850  2.6511  0.2659 -0.9765
15632TIP3   OH268386   0.470   1.876   3.431  0.2498  0.3257  0.1774
15632TIP3    H168387   0.453   1.835   3.346 -1.0817 -0.4053  0.7623
15632TIP3    H268388   0.396   1.936   3.443 -0.7551 -1.1468  1.7442
15633TIP3   OH268389   2.028   4.718  14.584 -0.0702  0.2673  0.0734
15633TIP3    H168390   2.003   4.628  14.561 -2.8135  0.8457  0.4575
15633TIP3    H268391   2.116   4.728  14.548  0.5382 -2.7200  0.4556
15634TIP3   OH268392   0.722   3.890   2.621 -0.0155  0.1196 -0.3977
15634TIP3    H168393   0.777   3.923   2.550 -1.2480  1.2066 -0.8887
15634TIP3    H268394   0.669   3.965   2.646  0.6191 -0.1545  1.9324
15635TIP3   OH268395   4.165   6.494   1.183  0.7338  0.2084 -0.6997
15635TIP3    H168396   4.167   6.510   1.089  1.6998 -0.1257 -0.7457
15635TIP3    H268397   4.207   6.571   1.222 -0.1099  0.5777 -0.4977
15636TIP3   OH268398   2.430   0.043  11.670  0.6262  0.3070 -0.1955
15636TIP3    H168399   2.462   0.120  11.623  0.4088  2.3570  2.7590
15636TIP3    H268400   2.492   0.031  11.742 -2.1503  1.1346  2.5606
15637TIP3   OH268401   0.610   3.108   2.595  1.2499 -0.1326 -0.0445
15637TIP3    H168402   0.520   3.096   2.626  0.6660  0.9640 -1.2405
15637TIP3    H268403   0.641   3.186   2.642  1.8468 -0.9111  0.8923
15638TIP3   OH268404   5.556   3.299   4.627  0.3591 -0.3699 -0.7915
15638TIP3    H168405   5.598   3.257   4.552  0.6261  0.9860 -1.4404
15638TIP3    H268406   5.594   3.256   4.703  3.2277  0.9307 -1.3190
15639TIP3   OH268407   2.370   4.596  13.065  0.1206  0.3185 -0.6704
15639TIP3    H168408   2.358   4.555  12.979  0.2621 -0.1741 -0.4566
15639TIP3    H268409   2.408   4.527  13.120  0.6809  0.8400 -0.3985
15640TIP3   OH268410   2.479   0.631   5.298  0.4472  0.1467 -0.2313
15640TIP3    H168411   2.398   0.656   5.253  0.8582  3.0708  0.4361
15640TIP3    H268412   2.462   0.649   5.390  1.1001 -1.5454  0.2671
15641TIP3   OH268413   4.695   2.190  16.434 -0.1248 -0.0377  0.2448
15641TIP3    H168414   4.768   2.215  16.377  0.4643 -0.9470  0.5927
15641TIP3    H268415   4.712   2.099  16.456  0.0668  0.4855  2.4720
15642TIP3   OH268416   5.851   6.304   0.275 -0.1129 -0.0047 -0.6078
15642TIP3    H168417   5.889   6.237   0.333 -2.0961 -2.3717 -1.8380
15642TIP3    H268418   5.923   6.364   0.258  1.5376 -1.2867  1.3582
15643TIP3   OH268419   0.425   6.314   1.549  0.5957 -0.3712 -0.8286
15643TIP3    H168420   0.374   6.244   1.591  1.5097 -1.4011 -1.3828
15643TIP3    H268421   0.516   6.296   1.576  1.1202 -0.6769 -2.6905
15644TIP3   OH268422   4.356   1.587   3.372 -0.7942  0.2303 -0.4360
15644TIP3    H168423   4.332   1.555   3.459 -2.2766 -0.5283 -1.0956
15644TIP3    H268424   4.294   1.545   3.312  0.2982  0.5945 -1.8958
15645TIP3   OH268425   3.290   4.371   2.295  0.2791  0.2024  0.6198
15645TIP3    H168426   3.220   4.324   2.250 -1.0522  0.6854  2.0824
15645TIP3    H268427   3.246   4.416   2.367  2.0649  0.7792  1.4102
15646TIP3   OH268428   6.419   2.817   5.068  0.0223 -0.2083 -0.0939
15646TIP3    H168429   6.433   2.864   4.986 -0.2872 -2.0287 -1.2236
15646TIP3    H268430   6.343   2.860   5.107 -0.9165 -0.4118 -1.6159
15647TIP3   OH268431   6.836   6.068  15.631  0.6057 -0.0918 -0.2697
15647TIP3    H168432   6.785   6.001  15.675  1.3927  0.6457  1.8786
15647TIP3    H268433   6.782   6.094  15.556 -1.2289 -0.7467  0.7623
15648TIP3   OH268434   3.813   2.561  16.811  0.3034 -0.1090 -0.4855
15648TIP3    H168435   3.873   2.488  16.826  0.1818 -0.6285 -2.2855
15648TIP3    H268436   3.735   2.521  16.772 -0.4358  0.7987  0.0017
15649TIP3   OH268437   2.634   5.995  11.475 -0.1132  0.1974  0.5994
15649TIP3    H168438   2.682   6.077  11.469 -1.0695  0.6829 -0.8945
15649TIP3    H268439   2.701   5.928  11.478  0.6688  0.9323 -0.1187
15650TIP3   OH268440   4.425   2.151   3.190  0.3099  0.3351 -0.3357
15650TIP3    H168441   4.354   2.189   3.243  1.6290 -0.6796  2.3203
15650TIP3    H268442   4.505   2.174   3.237  1.6764  0.1439 -2.4393
15651TIP3   OH268443   4.114   4.976   6.369  0.5676 -0.4240 -0.6912
15651TIP3    H168444   4.145   5.065   6.356  0.1603 -0.1625  0.0829
15651TIP3    H268445   4.048   4.983   6.438  0.3037 -1.2780 -0.8420
15652TIP3   OH268446   5.947   5.758   0.993  0.1450 -0.0923 -0.1390
15652TIP3    H168447   6.029   5.799   1.018  0.0428  0.2661 -0.4010
15652TIP3    H268448   5.944   5.677   1.045 -0.1595  0.7477  1.1924
15653TIP3   OH268449   1.944   1.031   3.664  0.3603  0.6936 -0.1264
15653TIP3    H168450   1.914   1.030   3.755 -1.6357  2.4199 -0.6982
15653TIP3    H268451   1.898   0.959   3.622  1.2267 -0.0579  0.1751
15654TIP3   OH268452   5.973   6.088  11.575  0.1076 -0.0977 -0.3858
15654TIP3    H168453   5.972   6.170  11.526 -0.2917  0.6451  0.8323
15654TIP3    H268454   6.063   6.057  11.568 -0.0229 -0.1960 -1.8729
15655TIP3   OH268455   1.871   5.522   2.322  0.2528 -0.1390 -0.4029
15655TIP3    H168456   1.881   5.428   2.340 -1.5923 -0.3120 -0.0613
15655TIP3    H268457   1.913   5.565   2.396 -0.2351 -0.7337  0.2298
15656TIP3   OH268458   2.541   1.151  11.669  0.7079  0.0744  0.0790
15656TIP3    H168459   2.537   1.175  11.577 -1.3655 -1.3552 -0.2832
15656TIP3    H268460   2.453   1.167  11.702  1.2777  0.0579  1.6871
15657TIP3   OH268461   6.053   4.243  10.877  0.2359  0.0518  0.0056
15657TIP3    H168462   6.080   4.152  10.889  1.6276  0.6708  2.1923
15657TIP3    H268463   5.963   4.238  10.845  0.1085 -2.0957  0.5931
15658TIP3   OH268464   5.635   4.906  12.599  0.0190  0.4497 -0.3742
15658TIP3    H168465   5.608   4.945  12.515 -0.7560 -0.0240 -0.3548
15658TIP3    H268466   5.622   4.975  12.663 -0.6534  0.3986 -0.4506
15659TIP3   OH268467   3.393   6.570  12.498 -0.0138  0.1900  0.4518
15659TIP3    H168468   3.373   6.478  12.481  0.9167 -0.1196  0.9909
15659TIP3    H268469   3.398   6.610  12.410 -2.0008  0.1101  0.2459
15660TIP3   OH268470   5.907   4.448  11.048 -0.3649  0.6907  0.5154
15660TIP3    H168471   5.939   4.380  10.989 -0.3364  0.3237  0.9585
15660TIP3    H268472   5.984   4.501  11.067 -0.1004  0.0386  1.2665
15661TIP3   OH268473   1.535   0.760   6.068 -0.2222 -0.0177 -1.1017
15661TIP3    H168474   1.534   0.828   6.135  1.3665 -0.6701 -0.3567
15661TIP3    H268475   1.502   0.682   6.113  3.3173 -1.1533 -0.1512
15662TIP3   OH268476   5.975   0.024  14.342  0.0142 -0.0058 -0.6234
15662TIP3    H168477   6.064   0.049  14.367 -0.0120 -0.6665  0.1858
15662TIP3    H268478   5.944   0.097  14.288  0.4433  1.0295  0.4766
15663TIP3   OH268479   3.671   5.492   1.510 -0.1950 -0.0023 -0.3454
15663TIP3    H168480   3.724   5.514   1.587 -0.4177 -0.4806 -0.0539
15663TIP3    H268481   3.616   5.569   1.497  2.1477  1.5153 -2.0559
15664TIP3   OH268482   2.881   2.288  16.199 -0.6543  0.1064 -0.5168
15664TIP3    H168483   2.959   2.331  16.233  0.4312 -0.9109 -1.6476
15664TIP3    H268484   2.849   2.348  16.131 -0.5084  0.2321 -0.4784
15665TIP3   OH268485   4.917   4.702   4.736 -0.5150 -0.0032 -1.0086
15665TIP3    H168486   4.983   4.761   4.699  1.1621 -0.6343  0.7796
15665TIP3    H268487   4.835   4.748   4.725  0.4509  1.6307 -1.7354
15666TIP3   OH268488   0.711   3.851  16.945  1.0326 -0.1372 -0.0185
15666TIP3    H168489   0.617   3.835  16.940  0.7563  1.0713  0.8612
15666TIP3    H268490   0.748   3.767  16.971  0.1579 -0.5183  0.0448
15667TIP3   OH268491   2.253   5.840  13.068  0.3764 -0.9352  0.5624
15667TIP3    H168492   2.238   5.935  13.070 -0.4908 -1.0398 -0.4222
15667TIP3    H268493   2.280   5.819  13.157  1.0974  0.3154  0.6661
15668TIP3   OH268494   0.125   3.390  13.476 -0.6155 -0.1649 -0.2903
15668TIP3    H168495   0.033   3.410  13.460 -0.6938  0.7250  1.0884
15668TIP3    H268496   0.123   3.312  13.532 -0.5190 -0.2824 -0.4493
15669TIP3   OH268497   4.989   4.353  15.333 -0.4435  0.5117 -0.0077
15669TIP3    H168498   4.937   4.306  15.267 -1.7601 -1.4333  2.2527
15669TIP3    H268499   4.926   4.380  15.399  1.0928  0.1038  1.7220
15670TIP3   OH268500   5.793   0.504   4.812 -0.0242  0.6190 -0.1210
15670TIP3    H168501   5.735   0.432   4.837 -0.3673  0.6255 -0.8770
15670TIP3    H268502   5.753   0.582   4.850 -0.3037  0.5744 -0.3261
15671TIP3   OH268503   4.007   6.649  12.237  0.2123  1.0131  0.2586
15671TIP3    H168504   3.975   6.727  12.192 -0.7344  0.1313 -0.6550
15671TIP3    H268505   3.928   6.607  12.272  0.6584  0.2776  0.4151
15672TIP3   OH268506   2.559   6.727  15.920 -0.3072 -0.2226 -0.3413
15672TIP3    H168507   2.553   6.744  16.014  0.5395  1.8578 -0.6020
15672TIP3    H268508   2.508   6.647  15.906 -2.6802  0.8557  1.4867
15673TIP3   OH268509   1.225   0.699  13.335  0.4531  0.1237  0.1429
15673TIP3    H168510   1.239   0.658  13.421  1.9560  1.4834  0.5998
15673TIP3    H268511   1.312   0.724  13.306 -0.1068  0.2617 -1.5150
15674TIP3   OH268512   2.146   3.104  17.158 -0.2592  0.2372 -0.5196
15674TIP3    H168513   2.235   3.087  17.126 -0.5511 -0.7219 -0.8755
15674TIP3    H268514   2.100   3.139  17.081 -0.5440 -0.5833 -0.7376
15675TIP3   OH268515   3.733   1.181  14.999  0.6240  0.0391  0.7991
15675TIP3    H168516   3.829   1.185  14.994  0.5579  0.5458 -0.1827
15675TIP3    H268517   3.716   1.148  15.088  1.7255 -1.3312  0.5484
15676TIP3   OH268518   3.079   4.356  16.321  0.0860  0.2658  0.3950
15676TIP3    H168519   3.134   4.382  16.246 -0.3075  0.5503  0.2020
15676TIP3    H268520   3.053   4.266  16.301 -1.5676  0.9490 -0.7551
15677TIP3   OH268521   6.143   0.843   0.086  0.1243  0.0943  0.5207
15677TIP3    H168522   6.123   0.847  -0.008 -0.1518  0.7688  0.6033
15677TIP3    H268523   6.087   0.774   0.120  1.2488 -1.1494 -0.0540
15678TIP3   OH268524   1.069   3.701   5.381  1.0293 -0.0234 -0.2728
15678TIP3    H168525   1.035   3.711   5.470  2.4761 -0.1234  0.3308
15678TIP3    H268526   1.146   3.758   5.379  1.6281 -0.8437 -1.1116
15679TIP3   OH268527   4.184   3.088  11.387  0.0895  0.3849 -0.8089
15679TIP3    H168528   4.213   2.997  11.390 -2.0952 -0.3817 -0.9618
15679TIP3    H268529   4.131   3.094  11.308 -0.4185  1.5914 -0.4124
15680TIP3   OH268530   2.033   3.270   2.033 -0.0246 -0.4543  0.0380
15680TIP3    H168531   1.964   3.315   1.984 -0.8736 -0.6884  0.9804
15680TIP3    H268532   2.114   3.294   1.988 -0.7173 -0.1920 -1.1074
15681TIP3   OH268533   0.002   4.372  14.170  0.5259 -0.0065 -0.1407
15681TIP3    H168534  -0.084   4.379  14.211  0.3448 -0.0944 -0.5070
15681TIP3    H268535   0.003   4.442  14.105  0.1585 -0.9360 -1.1762
15682TIP3   OH268536   4.458   6.784  11.399 -0.2849  0.5470  0.1419
15682TIP3    H168537   4.434   6.704  11.353 -2.3243  0.4955  1.1749
15682TIP3    H268538   4.492   6.842  11.331 -1.1781 -0.2923 -1.0639
15683TIP3   OH268539   1.663   6.430  16.132  0.1494  0.3677  0.0716
15683TIP3    H168540   1.604   6.499  16.160  2.2880  1.9506  0.8934
15683TIP3    H268541   1.701   6.396  16.213 -0.2208 -1.2475 -0.3805
15684TIP3   OH268542   4.061   5.620   0.252  0.3725 -0.3732 -0.4609
15684TIP3    H168543   3.994   5.621   0.320  0.2743 -0.7328 -0.5477
15684TIP3    H268544   4.107   5.703   0.262 -0.4941  0.1605 -0.8191
15685TIP3   OH268545   6.589   1.737   0.491 -0.1484 -0.1377 -0.1020
15685TIP3    H168546   6.639   1.717   0.412 -1.2379 -0.0396 -0.8426
15685TIP3    H268547   6.519   1.671   0.491  1.2431 -1.7713  2.1557
15686TIP3   OH268548   5.527   1.283  10.655  0.2323 -0.3951 -0.2903
15686TIP3    H168549   5.614   1.241  10.647 -0.0536 -0.9186 -0.7524
15686TIP3    H268550   5.541   1.373  10.626  0.8415 -0.1858  0.6247
15687TIP3   OH268551   4.436   2.943   1.284 -0.0250  0.1437 -0.1646
15687TIP3    H168552   4.357   2.893   1.303  0.4826 -0.4514  0.4886
15687TIP3    H268553   4.453   2.927   1.191 -1.2733  1.1991 -0.6079
15688TIP3   OH268554   3.751   0.014   2.329 -0.3541 -0.2007 -0.1236
15688TIP3    H168555   3.786  -0.054   2.387 -0.5154 -0.7242 -0.6345
15688TIP3    H268556   3.827   0.045   2.281 -0.3147 -0.1552 -0.0337
15689TIP3   OH268557   5.743   6.078  11.141  0.1284 -0.1290 -0.1350
15689TIP3    H168558   5.657   6.113  11.120  0.4584  1.3042  0.7974
15689TIP3    H268559   5.801   6.113  11.073  0.1505 -0.3622 -0.2400
15690TIP3   OH268560   2.892   3.328   2.522  0.7450 -0.0483  0.8278
15690TIP3    H168561   2.834   3.365   2.455 -0.0003  0.0328  1.4997
15690TIP3    H268562   2.853   3.356   2.605  0.6734 -1.5585  1.3381
15691TIP3   OH268563   3.319   5.859   4.947 -0.2754  0.4093 -0.2415
15691TIP3    H168564   3.288   5.818   4.866  1.3666 -0.2917 -0.5534
15691TIP3    H268565   3.268   5.816   5.016  0.8990 -1.7327 -0.6223
15692TIP3   OH268566   1.986   2.046   2.063 -0.1266 -0.1699 -0.6772
15692TIP3    H168567   2.069   2.051   2.015  0.4646  0.5900  0.3744
15692TIP3    H268568   1.919   2.043   1.995  0.6824  0.8846 -1.5727
15693TIP3   OH268569   2.667   2.777   4.145 -0.0401  0.0498 -0.2822
15693TIP3    H168570   2.710   2.784   4.059 -1.9719 -0.8344 -1.3792
15693TIP3    H268571   2.628   2.690   4.144 -1.7663  0.7821  0.7059
15694TIP3   OH268572   5.205   0.724  15.760  0.2190  0.4823  0.4561
15694TIP3    H168573   5.146   0.753  15.690  0.3230  1.1204  0.6207
15694TIP3    H268574   5.154   0.737  15.840  0.8108  1.7188  0.6628
15695TIP3   OH268575   2.425   5.978   1.995 -0.0498 -0.1848  0.2527
15695TIP3    H168576   2.375   5.896   1.997  1.8670 -1.4568 -0.7917
15695TIP3    H268577   2.399   6.019   1.913  0.1287 -0.5224  0.0233
15696TIP3   OH268578   2.330   2.698  17.117 -0.7957  0.3997  0.2719
15696TIP3    H168579   2.246   2.652  17.113 -1.4816  1.6820 -1.5893
15696TIP3    H268580   2.314   2.773  17.174 -0.6463  0.1934  0.5917
15697TIP3   OH268581   0.186   5.046  12.373  0.5286  0.2310  0.0916
15697TIP3    H168582   0.091   5.041  12.361  0.6097 -0.9514 -0.2320
15697TIP3    H268583   0.219   4.963  12.337  1.4693 -0.3231  2.0709
15698TIP3   OH268584   4.884   4.363  16.764  0.3978 -0.0417 -0.1611
15698TIP3    H168585   4.864   4.360  16.857  0.2623 -1.5071 -0.2119
15698TIP3    H268586   4.974   4.330  16.758 -0.1193 -1.4678 -0.6515
15699TIP3   OH268587   5.309   3.045  13.054  0.2791  0.0653  0.2460
15699TIP3    H168588   5.344   3.026  12.967 -2.1922 -2.7940 -0.2771
15699TIP3    H268589   5.325   2.965  13.105 -0.4860  0.7708  1.6757
15700TIP3   OH268590   6.166   6.035   2.334  0.2176 -0.6931  0.0155
15700TIP3    H168591   6.115   6.000   2.262 -0.5511 -0.1014  0.2631
15700TIP3    H268592   6.112   6.020   2.412  0.3859 -0.0027  0.2702
15701TIP3   OH268593   0.782   1.801   4.346 -0.2747 -0.0934 -0.9024
15701TIP3    H168594   0.733   1.824   4.267 -2.2133 -3.1531 -0.7454
15701TIP3    H268595   0.718   1.809   4.417  0.0454 -1.8723 -0.3569
15702TIP3   OH268596   1.968   1.559  16.066 -0.1361 -0.2886 -0.4739
15702TIP3    H168597   2.059   1.540  16.044 -0.0414 -0.2552 -0.1192
15702TIP3    H268598   1.964   1.549  16.161 -0.7148 -1.1904 -0.5785
15703TIP3   OH268599   1.924   0.137   4.888 -0.1858  0.9178  0.3264
15703TIP3    H168600   1.857   0.116   4.824  0.0301 -0.0954  0.4113
15703TIP3    H268601   1.942   0.230   4.876 -0.1225  0.7305 -1.1108
15704TIP3   OH268602   5.808   4.709   5.007  0.2282 -0.2317 -0.4451
15704TIP3    H168603   5.746   4.716   4.935 -0.9647 -1.0623  0.4636
15704TIP3    H268604   5.863   4.634   4.983 -0.5136 -0.8470 -0.2430
15705TIP3   OH268605   2.357   4.217  10.857 -0.0279 -0.2714 -0.5089
15705TIP3    H168606   2.428   4.262  10.811 -1.3023  1.8392 -0.5330
15705TIP3    H268607   2.296   4.190  10.788 -0.5828  0.4122 -0.2982
15706TIP3   OH268608   0.401   0.535   3.359 -0.1445 -0.0098 -0.0242
15706TIP3    H168609   0.309   0.537   3.330  0.0044  0.7015 -0.4702
15706TIP3    H268610   0.399   0.570   3.448 -0.4911 -1.3932  0.5420
15707TIP3   OH268611   0.401   4.318   4.286 -0.0456  0.1584 -0.2024
15707TIP3    H168612   0.459   4.370   4.342 -0.7584 -0.1510  0.8411
15707TIP3    H268613   0.346   4.269   4.347 -1.1216  0.1241 -1.1728
15708TIP3   OH268614   4.372   5.998  12.962  0.0587  0.0246  0.1453
15708TIP3    H168615   4.324   6.059  12.905  0.7722  0.9339  0.4891
15708TIP3    H268616   4.424   5.945  12.902  3.0779  2.8752 -0.0853
15709TIP3   OH268617   3.541   0.911   6.368 -0.1118 -0.2327  0.6755
15709TIP3    H168618   3.507   0.824   6.388  0.7626 -0.1261  2.8563
15709TIP3    H268619   3.464   0.967   6.361 -0.6383 -1.0253 -0.0491
15710TIP3   OH268620   3.909   1.307  15.941 -0.4089  0.2989  0.2788
15710TIP3    H168621   3.984   1.248  15.947 -0.3244  0.4102  0.3215
15710TIP3    H268622   3.853   1.269  15.873 -1.2075 -0.8111  1.4821
15711TIP3   OH268623   2.226   1.793  16.354  0.0708 -0.3171 -0.1495
15711TIP3    H168624   2.163   1.856  16.317 -0.2634  0.0816  1.0546
15711TIP3    H268625   2.234   1.819  16.446  0.3184 -1.7265  0.2414
15712TIP3   OH268626   5.457   2.326   1.651 -0.5578  0.6364  0.5589
15712TIP3    H168627   5.503   2.242   1.650  1.1893  1.5213  1.3941
15712TIP3    H268628   5.436   2.341   1.743  1.5383  2.2657  0.8637
15713TIP3   OH268629   5.868   1.021   5.538 -0.5319  0.5311  0.1017
15713TIP3    H168630   5.959   1.046   5.519 -0.0008 -1.6047 -0.4772
15713TIP3    H268631   5.824   1.025   5.453 -0.4665 -0.2880  0.0204
15714TIP3   OH268632   3.474   2.732  14.068  0.5808  0.2742  0.5715
15714TIP3    H168633   3.380   2.717  14.058  0.7810 -0.0285 -1.1110
15714TIP3    H268634   3.480   2.804  14.131 -0.9211  2.3294 -1.4895
15715TIP3   OH268635   4.914   3.339   5.575  0.2280  0.0386  0.0507
15715TIP3    H168636   4.895   3.399   5.647  1.5746  1.3015 -0.5956
15715TIP3    H268637   4.853   3.364   5.506  0.1343  0.0141  0.1248
15716TIP3   OH268638   0.755   2.801   6.112  0.6262  0.5048  0.3895
15716TIP3    H168639   0.695   2.754   6.170 -1.8100  0.6446 -1.8095
15716TIP3    H268640   0.728   2.893   6.119  1.0905  0.6753 -0.0516
15717TIP3   OH268641   6.533   2.638   3.618  0.3911 -0.5310  0.4953
15717TIP3    H168642   6.596   2.569   3.595  0.6314 -0.5886  1.2707
15717TIP3    H268643   6.449   2.606   3.586  0.6342 -0.8034  0.1188
15718TIP3   OH268644   3.756   2.567  16.112  0.6968 -0.1456  0.4396
15718TIP3    H168645   3.794   2.649  16.079 -1.0202  0.3271 -0.4952
15718TIP3    H268646   3.759   2.508  16.037  1.4714 -0.8116  0.9720
15719TIP3   OH268647   2.872   0.002   6.464 -0.2563 -0.1182 -0.0279
15719TIP3    H168648   2.844   0.093   6.476  0.1850  0.2447 -1.5567
15719TIP3    H268649   2.955   0.008   6.417 -0.2000 -1.3135 -0.1180
15720TIP3   OH268650   2.514   3.510  12.337 -0.5121 -0.3526  0.0723
15720TIP3    H168651   2.434   3.460  12.357 -0.9025  0.6335  1.1129
15720TIP3    H268652   2.496   3.598  12.371  1.2791 -0.2850  0.9578
15721TIP3   OH268653   5.667   3.823   5.849 -0.3825 -0.1379 -0.1961
15721TIP3    H168654   5.635   3.759   5.786  0.9268  0.0401 -1.0956
15721TIP3    H268655   5.656   3.781   5.935 -1.4076 -0.7273 -0.6080
15722TIP3   OH268656   6.465   3.469  14.444  0.5645  0.0169 -0.2568
15722TIP3    H168657   6.446   3.393  14.499 -0.5146  0.5952  0.1944
15722TIP3    H268658   6.561   3.470  14.438  0.7267 -0.0422  1.6655
15723TIP3   OH268659   0.419   6.250   4.125  0.0130 -0.1658  0.2093
15723TIP3    H168660   0.379   6.289   4.048 -1.1748  0.2509  1.0078
15723TIP3    H268661   0.511   6.276   4.121  0.0700 -0.5334 -1.2887
15724TIP3   OH268662   1.313   1.087  16.003  0.2382 -0.0837 -0.1472
15724TIP3    H168663   1.222   1.103  15.979  0.3867  1.7421  0.3952
15724TIP3    H268664   1.358   1.076  15.919 -0.3588 -0.3889 -0.4355
15725TIP3   OH268665   6.174   0.876   4.003  0.1785  0.3224 -0.3078
15725TIP3    H168666   6.095   0.929   3.990 -0.3609 -0.4147 -0.1562
15725TIP3    H268667   6.165   0.842   4.093  0.3848 -0.2115 -0.4847
15726TIP3   OH268668   1.350   6.783   5.299 -0.5689  0.2422 -0.0778
15726TIP3    H168669   1.362   6.820   5.211  0.6950  1.4290  0.5507
15726TIP3    H268670   1.432   6.737   5.317  0.0197  1.7193  1.2351
15727TIP3   OH268671   3.209   1.812   4.911  0.4812  0.4473 -0.0276
15727TIP3    H168672   3.184   1.794   4.821  2.0366  1.3548 -0.6687
15727TIP3    H268673   3.255   1.732   4.940 -2.4410 -1.0167  0.9860
15728TIP3   OH268674   3.365   2.287   3.701 -0.0066 -0.0949  0.2257
15728TIP3    H168675   3.417   2.365   3.684  1.0801 -0.2789  2.4735
15728TIP3    H268676   3.391   2.258   3.788 -1.4132 -2.1704  0.0365
15729TIP3   OH268677   0.914   5.222   1.251 -0.2489  0.6127 -0.3731
15729TIP3    H168678   0.986   5.173   1.291 -0.9245 -0.8329 -0.8734
15729TIP3    H268679   0.948   5.312   1.243  1.1094  0.1926  0.3359
15730TIP3   OH268680   1.751   5.743   1.283  0.0682 -0.1032 -0.4100
15730TIP3    H168681   1.703   5.709   1.208 -2.1264  0.7275  0.5199
15730TIP3    H268682   1.809   5.810   1.246 -0.9166  0.2383 -1.3865
15731TIP3   OH268683   3.129   3.239   2.448  0.3333 -0.2298  0.0893
15731TIP3    H168684   3.038   3.265   2.463  0.0209 -1.6531  0.8447
15731TIP3    H268685   3.174   3.258   2.530  0.9649  1.2771 -0.5534
15732TIP3   OH268686   1.427   4.094   4.807  0.2697  0.2114  0.2624
15732TIP3    H168687   1.473   4.023   4.852 -0.2839  0.7788  1.7836
15732TIP3    H268688   1.393   4.053   4.727 -1.7494 -1.8253  2.0146
15733TIP3   OH268689   4.390   3.449  12.248 -0.3937  0.6800 -0.1052
15733TIP3    H168690   4.443   3.392  12.192  0.2409  0.2926  0.8757
15733TIP3    H268691   4.427   3.537  12.235  0.1773  0.4893  0.1918
15734TIP3   OH268692   2.147   0.191  12.082  0.0345  0.1568  0.2081
15734TIP3    H168693   2.163   0.251  12.156  0.4587  2.3476 -1.5540
15734TIP3    H268694   2.234   0.164  12.054 -0.1600 -1.4655  1.0701
15735TIP3   OH268695   3.166   1.465  13.553  0.2376 -0.0977 -0.0720
15735TIP3    H168696   3.096   1.488  13.492 -0.0795  0.3704  0.4655
15735TIP3    H268697   3.151   1.372  13.572  0.6642 -0.3958 -1.1193
15736TIP3   OH268698   6.692   4.408  17.184  0.6466  0.1966  0.6892
15736TIP3    H168699   6.748   4.450  17.118  0.2420  2.3362  1.6175
15736TIP3    H268700   6.613   4.385  17.136  1.0602  0.0582  0.0519
15737TIP3   OH268701   1.706   1.678  12.564  0.5592 -0.3663 -0.4957
15737TIP3    H168702   1.700   1.774  12.557  0.5067 -0.1553  1.7891
15737TIP3    H268703   1.792   1.658  12.527  0.7499  0.6205 -0.6325
15738TIP3   OH268704   3.101   5.780   0.499 -0.3162  0.0135 -0.1875
15738TIP3    H168705   3.155   5.732   0.436 -0.6827  0.8174 -1.1503
15738TIP3    H268706   3.114   5.734   0.582 -0.3958 -1.5504 -0.9956
15739TIP3   OH268707   3.930   0.536   0.032 -0.4199  0.1556  0.7024
15739TIP3    H168708   3.930   0.504  -0.059 -1.4060 -0.9450  1.0537
15739TIP3    H268709   3.981   0.471   0.080 -1.7744 -0.5228  1.2924
15740TIP3   OH268710   5.530   3.549   5.431 -0.2231 -0.4466 -0.2933
15740TIP3    H168711   5.457   3.544   5.370 -1.5894  0.0784  1.2212
15740TIP3    H268712   5.607   3.525   5.379 -1.2099  0.6478 -2.3647
15741TIP3   OH268713   4.433   5.548  10.913 -0.1012  0.1052 -0.1972
15741TIP3    H168714   4.481   5.609  10.969 -2.4278  1.3727  0.5874
15741TIP3    H268715   4.477   5.464  10.925  0.4093  0.6494  2.3967
15742TIP3   OH268716   5.066   1.278   6.106  0.1673 -0.7814 -0.3860
15742TIP3    H168717   5.081   1.201   6.161  0.6637 -0.6539 -0.3355
15742TIP3    H268718   4.996   1.251   6.047 -0.6482 -0.7767  0.5603
15743TIP3   OH268719   0.895   5.382   5.800  0.0783  0.6604 -0.3492
15743TIP3    H168720   0.958   5.396   5.871 -1.8940 -1.2073  1.9985
15743TIP3    H268721   0.840   5.460   5.801  0.4674  0.9340 -0.2507
15744TIP3   OH268722   5.037   0.520   5.662  0.8243  0.1980  0.1452
15744TIP3    H168723   5.059   0.428   5.676  2.2969  0.4678 -0.2525
15744TIP3    H268724   4.960   0.535   5.717 -0.4021 -1.6613 -0.9429
15745TIP3   OH268725   4.680   0.599   0.649 -0.0608  0.3785 -0.0742
15745TIP3    H168726   4.715   0.516   0.681  0.5611  0.5597 -0.2813
15745TIP3    H268727   4.652   0.645   0.729  2.1443  1.1305  0.3175
15746TIP3   OH268728   4.149   6.711   4.245  0.1342 -0.0592 -0.1233
15746TIP3    H168729   4.184   6.705   4.334  1.0874 -0.5508 -0.5202
15746TIP3    H268730   4.217   6.673   4.190 -0.2838  0.5851 -1.1119
15747TIP3   OH268731   1.853   4.392  13.059 -0.6878  0.2159  0.4205
15747TIP3    H168732   1.877   4.301  13.077  0.7887  0.3885 -0.5292
15747TIP3    H268733   1.771   4.385  13.010 -0.5828 -0.6174  0.3384
15748TIP3   OH268734   1.341   3.118   6.409 -0.0501 -0.7117  0.2466
15748TIP3    H168735   1.388   3.136   6.328  0.7641 -0.6309  0.7225
15748TIP3    H268736   1.306   3.030   6.398 -0.6099 -0.4040 -0.4990
15749TIP3   OH268737   2.487   3.494   1.973 -0.0160  0.5644  0.0317
15749TIP3    H168738   2.427   3.491   2.047  1.8905  1.9045  1.7542
15749TIP3    H268739   2.496   3.402   1.946 -1.0161  0.0867  1.2357
15750TIP3   OH268740   5.242   3.512   0.316  0.5053  0.0354 -0.0800
15750TIP3    H168741   5.322   3.469   0.346  0.7208 -0.9727 -1.9708
15750TIP3    H268742   5.273   3.579   0.255 -0.0965 -1.9520 -2.7447
15751TIP3   OH268743   2.828   4.681   2.318  0.2025  0.2158 -0.3106
15751TIP3    H168744   2.849   4.695   2.226 -0.3610  1.7589 -0.2299
15751TIP3    H268745   2.880   4.746   2.365  1.1450 -1.1217  0.5605
15752TIP3   OH268746   4.457   1.138  11.820  0.3357 -0.5401  0.2107
15752TIP3    H168747   4.534   1.082  11.812 -0.5965 -1.7292 -0.8252
15752TIP3    H268748   4.444   1.148  11.915  1.3923 -0.8303  0.3958
15753TIP3   OH268749   5.055   5.307  12.969 -0.1533 -0.0994  0.2218
15753TIP3    H168750   5.039   5.386  12.918  2.1706 -0.0923 -0.6179
15753TIP3    H268751   5.126   5.330  13.028 -2.0268 -0.4466  2.7992
15754TIP3   OH268752   1.434   2.614  14.893 -0.0667 -0.1074  0.3712
15754TIP3    H168753   1.359   2.662  14.928 -0.8717 -2.0809  1.4913
15754TIP3    H268754   1.425   2.621  14.798 -1.5140 -0.0786  0.4947
15755TIP3   OH268755   0.987   2.473   4.225 -0.1839 -0.2094 -0.2588
15755TIP3    H168756   0.933   2.549   4.248 -0.7204 -0.7363  0.3026
15755TIP3    H268757   1.070   2.488   4.270 -0.1456  0.2292 -0.4713
15756TIP3   OH268758   2.456   2.986  15.132 -0.3965 -0.2921 -0.1420
15756TIP3    H168759   2.416   3.043  15.066  1.7961 -1.5235 -2.7454
15756TIP3    H268760   2.504   3.046  15.189 -3.6033  0.9537  1.4922
15757TIP3   OH268761   2.924   0.869  16.856 -0.0821 -0.2328  0.6140
15757TIP3    H168762   2.830   0.884  16.868 -0.1137 -0.1669  0.2964
15757TIP3    H268763   2.940   0.889  16.763  0.2433 -0.2478  0.6645
15758TIP3   OH268764   0.954   4.745  15.045 -0.0705  0.4834  0.3295
15758TIP3    H168765   1.008   4.806  15.097  0.5203  0.0134  0.2872
15758TIP3    H268766   0.958   4.663  15.095 -1.3302  0.6191  0.6872
15759TIP3   OH268767   5.253   2.957  13.755 -0.4146 -0.6624  0.3640
15759TIP3    H168768   5.190   3.028  13.738 -0.4611 -1.1868 -2.0373
15759TIP3    H268769   5.199   2.879  13.766 -0.2485 -0.9918 -1.0049
15760TIP3   OH268770   5.369   5.538   6.244  0.5887  0.3229 -0.1441
15760TIP3    H168771   5.359   5.632   6.262  0.2390  0.2534  0.0365
15760TIP3    H268772   5.339   5.496   6.324  0.8342  0.0563 -0.1918
15761TIP3   OH268773   5.832   6.687  12.714 -0.4576 -0.2947 -0.2726
15761TIP3    H168774   5.920   6.691  12.751 -0.0985 -2.3039 -0.7659
15761TIP3    H268775   5.810   6.593  12.715 -1.6540 -0.1026 -2.2555
15762TIP3   OH268776   5.842   0.086   1.620 -0.3752 -0.3273  0.3058
15762TIP3    H168777   5.777   0.154   1.602  0.2669  0.5779  1.3000
15762TIP3    H268778   5.893   0.079   1.539  1.7780  2.8952  1.1595
15763TIP3   OH268779   1.544   0.206  16.259 -0.1864  0.1954 -0.0198
15763TIP3    H168780   1.538   0.116  16.290 -0.9479  0.0188 -0.6309
15763TIP3    H268781   1.632   0.234  16.283 -0.2912 -0.3642  1.0936
15764TIP3   OH268782   5.086   1.581  13.316  0.2630  0.0511 -0.4429
15764TIP3    H168783   5.122   1.503  13.274 -1.5716 -1.8639  1.3582
15764TIP3    H268784   5.061   1.553  13.403 -1.1663  2.4806  0.0276
15765TIP3   OH268785   5.071   1.597  11.768  0.1737  0.1952 -0.4101
15765TIP3    H168786   5.146   1.588  11.826 -0.5048 -0.6350  0.3613
15765TIP3    H268787   4.995   1.590  11.825 -0.5262  2.1189 -1.0012
15766TIP3   OH268788   1.868   3.744  11.910  0.0792  0.2369  0.4963
15766TIP3    H168789   1.854   3.818  11.852  2.0792 -1.1678 -1.9719
15766TIP3    H268790   1.942   3.769  11.965  0.0157  0.4899  0.4663
15767TIP3   OH268791   6.031   0.411  12.507  0.2098  0.2208 -0.2537
15767TIP3    H168792   6.016   0.477  12.439  0.5834  1.8118  1.1357
15767TIP3    H268793   5.947   0.404  12.552  0.8862  1.9295  1.3987
15768TIP3   OH268794   6.149   4.496  10.866 -0.2046  0.0061  0.3575
15768TIP3    H168795   6.129   4.403  10.866 -2.3774  0.3784  2.2412
15768TIP3    H268796   6.081   4.536  10.812  0.2531  0.5677  0.1851
15769TIP3   OH268797   0.220   2.817  11.620  0.5519 -0.3724  0.0542
15769TIP3    H168798   0.173   2.741  11.654 -0.1240 -0.0202 -0.0893
15769TIP3    H268799   0.312   2.799  11.642  0.5436 -1.7198 -0.8805
15770TIP3   OH268800   1.935   2.161   4.138  0.0332 -0.3200  0.2274
15770TIP3    H168801   2.001   2.183   4.203  0.6434 -0.8591 -0.1993
15770TIP3    H268802   1.954   2.070   4.114 -1.6634 -0.9472  1.0527
15771TIP3   OH268803   3.995   6.690   2.431 -0.2139  0.5711  0.2396
15771TIP3    H168804   4.041   6.615   2.467 -3.2113 -1.7576 -0.3627
15771TIP3    H268805   3.992   6.673   2.337  1.8768  3.2429 -0.4326
15772TIP3   OH268806   4.530   6.408   5.974 -0.1740 -0.1133  0.4697
15772TIP3    H168807   4.551   6.374   5.887  1.2934  3.6560 -0.8664
15772TIP3    H268808   4.616   6.421   6.015 -0.8251 -1.2013  2.3186
15773TIP3   OH268809   6.709   5.066   1.542 -0.0433 -0.0500  0.5652
15773TIP3    H168810   6.770   5.108   1.603  1.9396 -1.3887 -0.3833
15773TIP3    H268811   6.622   5.094   1.571  0.9311  0.8234  2.8393
15774TIP3   OH268812   3.120   4.478  16.852  0.1520 -0.2380 -0.2673
15774TIP3    H168813   3.098   4.571  16.845  0.7064 -0.1299 -0.5901
15774TIP3    H268814   3.191   4.474  16.917 -0.2949 -0.5086  0.2187
15775TIP3   OH268815   2.462   3.091  15.595 -0.2897 -0.5572 -0.0598
15775TIP3    H168816   2.397   3.046  15.649  0.3546 -1.6060 -0.1442
15775TIP3    H268817   2.433   3.077  15.505  0.5858 -1.8970 -0.1505
15776TIP3   OH268818   0.157   3.223  17.097  0.2778 -0.0113  0.0678
15776TIP3    H168819   0.064   3.232  17.118  0.4965  0.9665  0.6809
15776TIP3    H268820   0.170   3.280  17.021  0.6633  1.0072  0.8829
15777TIP3   OH268821   3.139   2.443  13.809 -0.0280  1.0471 -0.4060
15777TIP3    H168822   3.062   2.496  13.788 -1.0413 -0.2982 -0.2474
15777TIP3    H268823   3.128   2.421  13.901 -0.1152 -0.1651 -0.6850
15778TIP3   OH268824   5.205   3.540  15.736 -0.0032 -0.2237  1.1216
15778TIP3    H168825   5.170   3.537  15.647  0.0072  1.4448  1.0379
15778TIP3    H268826   5.257   3.459  15.743  0.6390 -0.0245 -0.6662
15779TIP3   OH268827   6.238   1.897   0.341 -0.0582  1.1501  0.2441
15779TIP3    H168828   6.318   1.924   0.387  0.6499 -0.9546  0.3484
15779TIP3    H268829   6.260   1.906   0.248  1.4029 -2.0164  0.1576
15780TIP3   OH268830   3.842   0.779  15.391  0.1052 -0.1451  0.1667
15780TIP3    H168831   3.934   0.791  15.417  0.1518 -1.7061  0.8774
15780TIP3    H268832   3.836   0.819  15.305  1.2108  0.8214  0.5116
15781TIP3   OH268833   6.033   1.546   1.864  0.4928 -0.4258 -0.0447
15781TIP3    H168834   5.939   1.556   1.884  1.0941  2.6652  1.9087
15781TIP3    H268835   6.066   1.488   1.933  0.1866 -0.8636 -0.2589
15782TIP3   OH268836   6.592   4.545  13.214  0.5382 -0.0615  0.3336
15782TIP3    H168837   6.592   4.641  13.217  2.4060 -0.0507  0.6206
15782TIP3    H268838   6.684   4.520  13.222 -0.0738 -1.9571  2.6081
15783TIP3   OH268839   1.736   5.301  15.157 -0.3287  0.5000  0.1552
15783TIP3    H168840   1.707   5.223  15.112 -0.4428  1.7567 -2.0707
15783TIP3    H268841   1.745   5.274  15.249 -1.4103 -1.7906 -0.3535
15784TIP3   OH268842   0.700   1.250   2.251  0.2866  0.1232  0.7025
15784TIP3    H168843   0.632   1.184   2.267  1.6183 -1.6290 -0.5231
15784TIP3    H268844   0.753   1.250   2.331 -0.1368  0.2428  0.9857
15785TIP3   OH268845   6.150   1.469   1.318 -0.1197  0.3927 -0.4684
15785TIP3    H168846   6.083   1.489   1.384  0.3683  0.3547  0.0450
15785TIP3    H268847   6.232   1.467   1.367  0.0821 -1.0558 -0.8190
15786TIP3   OH268848   5.825   6.626   1.592  0.7540  0.6789  0.2376
15786TIP3    H168849   5.819   6.718   1.565  1.6828  0.6932  0.0335
15786TIP3    H268850   5.914   6.617   1.626  0.3987  0.0468  1.0203
15787TIP3   OH268851   3.328   1.824  14.324 -0.3752 -0.1073 -0.3597
15787TIP3    H168852   3.261   1.808  14.258  0.7743 -1.4678 -1.2710
15787TIP3    H268853   3.363   1.737  14.344  1.1324  0.5524  0.0558
15788TIP3   OH268854   5.807   4.961  14.947  0.1357  0.5624 -0.2167
15788TIP3    H168855   5.883   5.020  14.949  0.8838 -0.3928  0.6986
15788TIP3    H268856   5.758   4.982  15.027  0.7015 -0.3938  0.4073
15789TIP3   OH268857   2.187   5.407  13.886 -0.3064  0.1244 -0.1397
15789TIP3    H168858   2.134   5.396  13.965 -1.5959 -0.2711 -1.0248
15789TIP3    H268859   2.276   5.381  13.913 -0.3887  1.3869  1.5355
15790TIP3   OH268860   0.694   1.444   3.521 -0.2015  0.1974 -0.5764
15790TIP3    H168861   0.659   1.529   3.494  0.7153  0.7581 -0.0596
15790TIP3    H268862   0.786   1.462   3.539 -0.5784 -0.2840  2.2634
15791TIP3   OH268863   4.379   3.168  15.219 -0.1763 -0.5058 -0.1319
15791TIP3    H168864   4.404   3.084  15.181  0.9361  0.0928 -0.7457
15791TIP3    H268865   4.414   3.166  15.308 -0.1327 -0.6760 -0.1527
15792TIP3   OH268866   5.933   1.844   2.909  0.0255  0.0301 -0.0349
15792TIP3    H168867   5.868   1.851   2.979  1.4894  0.5415  1.3381
15792TIP3    H268868   5.988   1.922   2.919 -0.0934  0.4502 -2.1872
15793TIP3   OH268869   0.714   6.478   0.573 -0.2879  0.3422  0.0293
15793TIP3    H168870   0.665   6.422   0.512 -0.5205  0.0464  0.4821
15793TIP3    H268871   0.664   6.559   0.576 -0.6899  0.0912  0.3829
15794TIP3   OH268872   2.487   1.741  15.350 -0.0714 -1.0621 -0.1654
15794TIP3    H168873   2.498   1.827  15.390  0.4145 -1.6439  1.0017
15794TIP3    H268874   2.441   1.689  15.417 -2.8099 -1.0031 -1.8170
15795TIP3   OH268875   1.849   4.580  10.739  0.3330 -0.0035 -0.2123
15795TIP3    H168876   1.784   4.525  10.785  0.7703 -1.0401 -0.7949
15795TIP3    H268877   1.811   4.667  10.740 -1.4685 -0.7190 -1.2146
15796TIP3   OH268878   6.179   3.102   1.844 -0.1438 -0.5698  0.1225
15796TIP3    H168879   6.246   3.143   1.790 -0.4077 -2.0283 -1.3902
15796TIP3    H268880   6.096   3.128   1.804 -0.4369  0.0355  1.0993
15797TIP3   OH268881   0.806   6.124  15.986  0.4315  0.2000 -0.1395
15797TIP3    H168882   0.776   6.153  16.072  0.5699 -2.3239  0.8371
15797TIP3    H268883   0.726   6.098  15.939  0.5002 -0.1066 -0.0905
15798TIP3   OH268884   4.624   6.793  15.098  0.2635  0.3003 -0.0698
15798TIP3    H168885   4.574   6.834  15.169  1.5761  0.7072  0.6673
15798TIP3    H268886   4.583   6.825  15.018 -0.1730  1.2324  0.5070
15799TIP3   OH268887   3.892   0.079  14.425  0.0006 -0.2015  0.0831
15799TIP3    H168888   3.806   0.115  14.445  0.1270  0.8920 -1.2074
15799TIP3    H268889   3.885   0.050  14.334  1.5337  1.7356 -0.7247
15800TIP3   OH268890   5.482   5.524   3.721 -0.0425  0.1391 -0.0688
15800TIP3    H168891   5.550   5.587   3.746 -0.0749  0.7452 -1.4105
15800TIP3    H268892   5.408   5.579   3.694 -0.0093 -0.4383 -1.4333
15801TIP3   OH268893   4.973   1.759   5.269 -0.3544 -0.3053 -0.0369
15801TIP3    H168894   5.020   1.796   5.194  1.4975 -0.4803  0.9763
15801TIP3    H268895   4.934   1.679   5.236  1.0552 -0.7658 -0.6612
15802TIP3   OH268896   4.287   2.590  11.174  0.6804  0.0360 -0.3013
15802TIP3    H168897   4.341   2.567  11.249  1.0055 -1.0395 -0.8438
15802TIP3    H268898   4.258   2.680  11.191  0.8963 -0.1342  1.0129
15803TIP3   OH268899   6.052   3.376   0.446  0.2716  0.4126 -0.6115
15803TIP3    H168900   6.082   3.436   0.378  0.6018  0.2410 -0.6197
15803TIP3    H268901   6.130   3.327   0.470  0.4900  1.4209  0.8714
15804TIP3   OH268902   1.169   6.142   1.128  0.1031  0.4163  0.3571
15804TIP3    H168903   1.114   6.219   1.136 -2.0235 -0.9975  0.1914
15804TIP3    H268904   1.110   6.074   1.095  2.0659 -1.0915 -0.2432
15805TIP3   OH268905   2.020   4.409  15.724  0.8024 -0.4558  0.3546
15805TIP3    H168906   2.009   4.473  15.654 -0.8123  1.1683  1.9944
15805TIP3    H268907   1.956   4.341  15.704 -0.3630  0.4935  0.7201
15806TIP3   OH268908   0.220   6.510  13.475 -0.6530  0.8556  0.5319
15806TIP3    H168909   0.159   6.475  13.539 -2.3605 -0.8604 -1.8746
15806TIP3    H268910   0.184   6.595  13.451 -2.5555 -0.3818 -1.2809
15807TIP3   OH268911   0.603   4.753   2.321 -0.4278  0.8061 -0.4878
15807TIP3    H168912   0.665   4.766   2.393 -2.4672  1.1356  1.2803
15807TIP3    H268913   0.517   4.769   2.359 -1.6018  1.1237 -3.0404
15808TIP3   OH268914   0.444   3.093  13.482  0.0809 -0.0006 -0.0560
15808TIP3    H168915   0.394   3.124  13.407  0.0773  0.3200  0.0808
15808TIP3    H268916   0.422   3.153  13.553  1.1196  0.5043 -0.1485
15809TIP3   OH268917   4.134   0.176   0.447  0.1670 -0.4801  0.0528
15809TIP3    H168918   4.101   0.250   0.498 -1.8828 -0.9293 -0.5361
15809TIP3    H268919   4.059   0.117   0.438  1.3314 -1.9071 -0.8106
15810TIP3   OH268920   2.797   1.862  15.298  0.5306  0.0001 -0.0805
15810TIP3    H168921   2.716   1.870  15.349  0.3843 -1.6399  0.0182
15810TIP3    H268922   2.769   1.831  15.212  1.0685 -1.2037  0.1520
15811TIP3   OH268923   0.717   2.744  13.231  0.2082  0.3328 -0.1032
15811TIP3    H168924   0.673   2.683  13.172  2.2179 -0.7838 -0.5492
15811TIP3    H268925   0.754   2.689  13.300  2.5155  0.9258 -0.7927
15812TIP3   OH268926   2.897   6.190   5.674 -0.0222  0.1956 -0.1057
15812TIP3    H168927   2.985   6.226   5.671  0.7566 -1.3125  2.0108
15812TIP3    H268928   2.907   6.099   5.646 -0.8173 -0.0918  0.4888
15813TIP3   OH268929   5.470   1.400  11.273 -0.8398  0.0857 -0.9009
15813TIP3    H168930   5.437   1.311  11.277  0.9707 -0.6249 -0.8955
15813TIP3    H268931   5.516   1.412  11.356 -1.6497  1.2923 -0.5952
15814TIP3   OH268932   6.759   0.778  12.719  0.0226  1.0060  0.4033
15814TIP3    H168933   6.691   0.779  12.786 -2.4002  1.4720 -1.8855
15814TIP3    H268934   6.765   0.869  12.688  0.8908  0.7619 -0.2161
15815TIP3   OH268935   2.114   6.765  16.387  0.1776 -0.7641  0.0831
15815TIP3    H168936   2.162   6.691  16.350  0.4159 -0.7929  0.4474
15815TIP3    H268937   2.169   6.797  16.458 -0.4638 -0.9830  0.6993
15816TIP3   OH268938   2.980   6.491  11.553 -0.1687  0.2672  0.0706
15816TIP3    H168939   2.888   6.507  11.535  0.3499  1.6954 -1.6143
15816TIP3    H268940   3.027   6.542  11.487  1.8284 -1.7114 -0.1748
15817TIP3   OH268941   2.378   6.809   1.139  0.0826 -0.2928 -0.4279
15817TIP3    H168942   2.415   6.895   1.121 -0.1150  0.1994  1.2931
15817TIP3    H268943   2.329   6.821   1.221 -0.5064 -1.8801 -0.5124
15818TIP3   OH268944   3.558   2.531   5.332  0.4104  0.1294 -0.3911
15818TIP3    H168945   3.500   2.570   5.267  1.3495 -0.2075 -1.4712
15818TIP3    H268946   3.633   2.591   5.336  1.2233 -0.8148 -1.0415
15819TIP3   OH268947   2.914   6.172   4.968  0.3995 -0.1360 -0.0486
15819TIP3    H168948   2.864   6.243   5.009  0.6613  0.8858 -1.4393
15819TIP3    H268949   2.847   6.107   4.944  0.1166 -0.2155  0.8949
15820TIP3   OH268950   1.650   6.119   3.268  0.1912 -0.4590 -0.1728
15820TIP3    H168951   1.614   6.206   3.287 -0.4047 -0.8121  0.3456
15820TIP3    H268952   1.614   6.096   3.182 -0.2940 -0.5273  0.0464
15821TIP3   OH268953   6.165   6.378  12.053 -0.9899  0.3036 -0.3828
15821TIP3    H168954   6.131   6.289  12.063  0.7514 -0.3165  0.6880
15821TIP3    H268955   6.204   6.398  12.138  1.4421  0.8225 -1.5240
15822TIP3   OH268956   3.238   5.681   4.086  0.5540 -0.7789 -0.1931
15822TIP3    H168957   3.285   5.701   4.167  1.0720 -0.0129 -0.6785
15822TIP3    H268958   3.203   5.593   4.100  1.7867 -1.1992  0.3237
15823TIP3   OH268959   2.600   5.091  12.468 -0.0305 -0.0431  0.1953
15823TIP3    H168960   2.653   5.011  12.468  1.3218  0.8298  0.3246
15823TIP3    H268961   2.512   5.061  12.491  0.5758 -1.4164  0.8410
15824TIP3   OH268962   6.756   4.490   3.955 -0.0217  0.3550  0.3674
15824TIP3    H168963   6.729   4.549   3.884  1.3373  0.4058 -0.1483
15824TIP3    H268964   6.678   4.479   4.009 -1.1914  0.0801 -1.3033
15825TIP3   OH268965   0.299   1.284  12.704  0.1640 -0.0967 -0.5542
15825TIP3    H168966   0.366   1.244  12.649  0.3367  0.8212 -1.0325
15825TIP3    H268967   0.216   1.256  12.664  0.2877  0.5764 -1.3172
15826TIP3   OH268968   3.672   0.659  12.704  0.5468  0.0792  0.2891
15826TIP3    H168969   3.656   0.638  12.796 -0.0049  0.6261  0.3216
15826TIP3    H268970   3.617   0.736  12.687  0.4234 -0.1933 -0.5741
15827TIP3   OH268971   5.508   3.825  16.386 -0.3733 -0.1430 -0.5782
15827TIP3    H168972   5.466   3.910  16.377  0.3476  0.5027  1.6114
15827TIP3    H268973   5.602   3.844  16.388 -0.1591 -1.0918 -0.9725
15828TIP3   OH268974   6.685   3.763   0.349 -0.5494 -0.3905  0.3364
15828TIP3    H168975   6.682   3.768   0.444  0.9532  0.2357  0.3758
15828TIP3    H268976   6.745   3.691   0.330 -1.3459 -0.9425 -0.1550
15829TIP3   OH268977   3.339   2.948   3.009  0.1970 -0.3107 -0.9163
15829TIP3    H168978   3.419   2.912   2.971 -1.6798 -3.0479 -2.6579
15829TIP3    H268979   3.319   2.891   3.082 -0.4908 -0.0537 -0.8902
15830TIP3   OH268980   1.594   4.490  11.963 -0.0956 -0.1255  0.5413
15830TIP3    H168981   1.538   4.549  12.012  0.0986  0.9938 -0.5384
15830TIP3    H268982   1.550   4.481  11.878  0.5295 -0.5394  0.2574
15831TIP3   OH268983   1.368   0.453   4.641 -0.0628  0.1563  0.0732
15831TIP3    H168984   1.299   0.389   4.622  0.0521  0.1768 -0.4309
15831TIP3    H268985   1.321   0.526   4.683 -0.3629  0.1861 -0.2991
15832TIP3   OH268986   1.133   2.333   3.581  0.2525  0.3482  0.2125
15832TIP3    H168987   1.050   2.325   3.628 -0.7522  2.0474 -1.1585
15832TIP3    H268988   1.110   2.319   3.489  1.2320  2.0037 -0.3265
15833TIP3   OH268989   2.719   4.652   4.823  0.1475  0.0317 -0.2978
15833TIP3    H168990   2.680   4.655   4.910 -0.7785  0.0478 -0.7091
15833TIP3    H268991   2.658   4.701   4.767  0.9137  0.3368 -0.8896
15834TIP3   OH268992   2.637   6.019  15.384  0.2598 -0.5229 -0.3258
15834TIP3    H168993   2.705   6.009  15.450  0.7106 -2.9294 -1.0560
15834TIP3    H268994   2.669   5.969  15.308 -0.6027  1.4618 -2.1082
15835TIP3   OH268995   5.699   6.304   3.160 -0.4375  0.0419 -0.4704
15835TIP3    H168996   5.604   6.316   3.157 -0.5720 -1.1446 -1.8013
15835TIP3    H268997   5.723   6.323   3.250 -1.9872 -0.0043 -0.0288
15836TIP3   OH268998   4.213   4.551   1.988  0.3956 -0.6989  0.1329
15836TIP3    H168999   4.142   4.614   1.975  0.4275 -0.3570  1.4249
15836TIP3    H269000   4.292   4.600   1.963  0.3017 -0.6345 -0.0401
15837TIP3   OH269001   4.652   1.662   4.456  0.3187 -0.3515  0.3473
15837TIP3    H169002   4.612   1.746   4.434  0.1382 -0.3747  0.5837
15837TIP3    H269003   4.582   1.612   4.499  0.4114 -0.6396  0.1647
15838TIP3   OH269004   1.623   0.275  13.477 -0.1768 -0.0696 -0.1555
15838TIP3    H169005   1.563   0.333  13.430 -0.2204 -0.7761 -0.9973
15838TIP3    H269006   1.589   0.274  13.567 -1.3007 -0.2684 -0.5555
15839TIP3   OH269007   0.266   5.830   2.745  0.0414  0.3130  0.2603
15839TIP3    H169008   0.348   5.853   2.788  0.2237 -0.7426  0.4989
15839TIP3    H269009   0.208   5.904   2.764  1.7149  2.4765 -2.2780
15840TIP3   OH269010   4.964   6.154   5.990 -0.2790  0.4110 -0.2507
15840TIP3    H169011   4.998   6.240   6.015 -0.2197  0.7616 -1.4707
15840TIP3    H269012   5.039   6.107   5.954 -0.5000  0.1776 -0.4109
15841TIP3   OH269013   3.226   6.099  14.574 -0.2288  0.4605  0.1894
15841TIP3    H169014   3.185   6.181  14.601  1.3721  1.3956 -0.1429
15841TIP3    H269015   3.263   6.117  14.488  2.3248  0.2105  1.1605
15842TIP3   OH269016   2.261   4.303  15.883  0.5369 -0.1777 -0.6145
15842TIP3    H169017   2.170   4.335  15.882  0.6774  0.2319 -0.7925
15842TIP3    H269018   2.265   4.243  15.957  0.9300  2.2333  1.4460
15843TIP3   OH269019   1.852   4.820   0.205 -0.4651  0.0696 -0.1757
15843TIP3    H169020   1.820   4.741   0.161 -0.3669  0.4962 -1.0198
15843TIP3    H269021   1.948   4.811   0.203 -0.4569  0.1432 -0.1302
15844TIP3   OH269022   0.934   2.202  12.734  0.0771 -0.1733  0.1822
15844TIP3    H169023   0.859   2.260  12.725 -0.6123 -1.1577 -0.6414
15844TIP3    H269024   0.910   2.124  12.684  1.7651 -0.3909 -0.3609
15845TIP3   OH269025   3.241   3.229  14.682  0.2572  0.1852  0.6502
15845TIP3    H169026   3.302   3.208  14.612 -0.7418  0.2155 -0.2393
15845TIP3    H269027   3.295   3.276  14.747  0.9675  1.1721 -0.6008
15846TIP3   OH269028   4.937   5.519  14.858 -0.4172  0.4588 -0.3939
15846TIP3    H169029   4.867   5.518  14.924 -0.4104  0.3873 -0.3868
15846TIP3    H269030   4.993   5.445  14.882  0.7921  1.7138  0.8033
15847TIP3   OH269031   4.918   2.686   5.256 -0.0684 -0.0068  0.9605
15847TIP3    H169032   4.978   2.756   5.228  0.5294 -0.2464  1.6095
15847TIP3    H269033   4.911   2.698   5.350 -1.5187  0.3699  0.8337
15848TIP3   OH269034   5.653   0.530   1.098 -0.5992  0.2522 -0.4732
15848TIP3    H169035   5.678   0.608   1.148 -0.5565  0.3834 -0.6984
15848TIP3    H269036   5.616   0.471   1.163  0.1986  0.0976 -0.1390
15849TIP3   OH269037   4.747   3.544  13.218  0.2217  0.4445 -0.3014
15849TIP3    H169038   4.832   3.560  13.177  0.9928 -0.5104  0.8662
15849TIP3    H269039   4.718   3.630  13.247  0.6727  0.8108 -0.9015
15850TIP3   OH269040   2.736   5.561   1.553 -0.0681  0.5025 -0.7329
15850TIP3    H169041   2.681   5.622   1.602 -2.6039 -2.4891  0.4974
15850TIP3    H269042   2.764   5.496   1.617  2.6936  0.3342 -1.9302
15851TIP3   OH269043   4.285   1.692   5.799 -0.2310  0.1505 -0.0599
15851TIP3    H169044   4.252   1.716   5.885  1.3421  2.1956  0.0593
15851TIP3    H269045   4.351   1.625   5.816  0.1033  0.5788  0.3401
15852TIP3   OH269046   3.612   2.336   1.011  0.0774 -0.0832 -0.0425
15852TIP3    H169047   3.600   2.262   1.072  1.1816 -0.8337 -0.6920
15852TIP3    H269048   3.558   2.406   1.048 -1.1163 -1.2487  0.5229
15853TIP3   OH269049   1.434   4.381  11.545 -0.2102 -0.3839  0.5921
15853TIP3    H169050   1.389   4.450  11.497 -1.4470 -0.2091  1.9240
15853TIP3    H269051   1.369   4.311  11.553  0.5564 -1.1219  0.4934
15854TIP3   OH269052   6.047   5.542   5.444 -0.3830 -0.3395 -0.0623
15854TIP3    H169053   6.063   5.606   5.375 -1.0015 -0.0738  0.0386
15854TIP3    H269054   5.961   5.565   5.479  1.2054  1.6419  3.0450
15855TIP3   OH269055   3.727   4.573   5.078 -0.0271 -0.1695 -0.0961
15855TIP3    H169056   3.787   4.647   5.081 -0.6498  0.3575 -0.5926
15855TIP3    H269057   3.730   4.544   4.986  0.2386 -0.7864  0.1002
15856TIP3   OH269058   0.142   6.504  14.528  0.5341 -0.2647 -0.0664
15856TIP3    H169059   0.057   6.485  14.489  0.6072  0.1131 -0.4202
15856TIP3    H269060   0.188   6.420  14.528  0.4505 -0.3152 -0.5901
15857TIP3   OH269061   6.481   2.340  15.653  0.4885 -0.0770  0.0311
15857TIP3    H169062   6.566   2.296  15.644 -0.4103 -2.0698  0.7156
15857TIP3    H269063   6.464   2.339  15.747 -0.9321 -1.0504 -0.2054
15858TIP3   OH269064   4.297   5.668  16.192  0.2245  0.5910  0.1768
15858TIP3    H169065   4.340   5.732  16.135  3.1091 -1.2109  0.1759
15858TIP3    H269066   4.350   5.666  16.271  0.0539 -1.5910  0.2859
15859TIP3   OH269067   4.849   3.182   2.630  0.2319 -0.4684 -0.2561
15859TIP3    H169068   4.840   3.265   2.583 -3.0052 -1.7616 -2.2939
15859TIP3    H269069   4.923   3.138   2.589  1.0897  0.7908 -0.0987
15860TIP3   OH269070   0.529   5.365  17.104 -0.1967  0.1647  0.5639
15860TIP3    H169071   0.609   5.319  17.130 -1.4748 -1.8960  1.1472
15860TIP3    H269072   0.547   5.398  17.017  2.0496  1.7539  1.5426
15861TIP3   OH269073   4.887   3.631  16.499  0.1228  0.3723 -0.3330
15861TIP3    H169074   4.910   3.572  16.571  0.4131  1.6610  0.6718
15861TIP3    H269075   4.908   3.582  16.420 -0.5519 -1.2275  0.4318
15862TIP3   OH269076   0.948   2.683   3.181 -0.0190  0.1749 -0.4168
15862TIP3    H169077   0.921   2.727   3.262  0.0162 -1.9255  0.8318
15862TIP3    H269078   1.042   2.695   3.177  0.2763 -1.2670  0.9491
15863TIP3   OH269079   2.321   0.921  12.358 -0.4760  0.1159  0.3903
15863TIP3    H169080   2.313   1.009  12.396  0.0286 -0.2679  1.4136
15863TIP3    H269081   2.333   0.937  12.265  0.5611  1.1833  0.6733
15864TIP3   OH269082   5.614   3.163   4.841 -0.1368 -0.1485 -0.3796
15864TIP3    H169083   5.578   3.075   4.828  0.9133 -0.4094 -1.8307
15864TIP3    H269084   5.705   3.149   4.867 -0.6981  0.5183  2.2387
15865TIP3   OH269085   0.796   3.995   5.538  0.2579 -0.2524  0.2562
15865TIP3    H169086   0.819   4.039   5.619  1.4952 -1.6900  0.7180
15865TIP3    H269087   0.832   4.051   5.469  0.9463 -0.0560  0.7722
15866TIP3   OH269088   0.350   6.008  11.363 -0.1894  0.1977  0.3613
15866TIP3    H169089   0.410   5.947  11.320 -0.4551  0.1076  0.1107
15866TIP3    H269090   0.406   6.065  11.414 -0.0504 -1.7126  2.5145
15867TIP3   OH269091   6.367   2.569   0.319 -0.1764  0.3008 -0.6440
15867TIP3    H169092   6.319   2.540   0.397 -0.6742 -0.4688 -1.2186
15867TIP3    H269093   6.401   2.489   0.280  2.1850  0.8669  0.0957
15868TIP3   OH269094   6.480   1.611   1.924  0.6094 -0.6265 -0.2433
15868TIP3    H169095   6.559   1.652   1.888  1.2619 -1.4901  0.1659
15868TIP3    H269096   6.428   1.587   1.847  1.2345 -0.9775 -0.5665
15869TIP3   OH269097   3.091   4.563  16.060  0.9294 -0.0187 -0.2075
15869TIP3    H169098   3.150   4.488  16.050  1.3386  0.3368 -0.4860
15869TIP3    H269099   3.043   4.568  15.978  0.7456 -0.1060 -0.1057
15870TIP3   OH269100   5.070   1.542   5.496  0.4368 -0.4055 -0.2356
15870TIP3    H169101   5.146   1.600   5.494 -0.7940  1.2707 -0.6490
15870TIP3    H269102   5.056   1.517   5.404  1.4710 -2.1178  0.0331
15871TIP3   OH269103   4.862   2.308  12.983 -0.0574 -0.3224  0.3995
15871TIP3    H169104   4.860   2.330  12.890  0.7689 -1.2553  0.1356
15871TIP3    H269105   4.858   2.212  12.985  0.9899 -0.3761  1.2613
15872TIP3   OH269106   3.450   4.279  16.310  0.0873 -0.1708 -0.5160
15872TIP3    H169107   3.383   4.216  16.336 -0.4085 -0.0038 -1.3510
15872TIP3    H269108   3.522   4.226  16.277 -0.4266 -0.3050 -1.4454
15873TIP3   OH269109   3.184   6.513   5.504  0.1489 -0.4935  0.5230
15873TIP3    H169110   3.102   6.464   5.514 -0.4519  0.5398  0.7308
15873TIP3    H269111   3.165   6.599   5.540  1.1418 -0.0398 -0.0066
15874TIP3   OH269112   3.008   2.036  11.323 -0.1868  0.3823  0.1873
15874TIP3    H169113   2.958   2.079  11.392  0.1794 -0.1834  0.8140
15874TIP3    H269114   3.030   1.950  11.359 -2.5385 -1.1689 -1.7335
15875TIP3   OH269115   5.871   1.376  11.315  0.9455  0.5227  0.0950
15875TIP3    H169116   5.957   1.347  11.285  0.6667 -1.0420  0.7351
15875TIP3    H269117   5.817   1.378  11.235  1.4714  1.1601 -0.2495
15876TIP3   OH269118   6.691   1.176  12.031 -0.5203  0.9605  0.0799
15876TIP3    H169119   6.699   1.098  11.975  1.3035  1.3593 -0.2530
15876TIP3    H269120   6.764   1.231  12.006  0.4394  1.1197  2.9498
15877TIP3   OH269121   4.699   4.493   5.130  0.4504 -0.5555 -0.6059
15877TIP3    H169122   4.663   4.573   5.168  2.2977 -0.2993  0.7493
15877TIP3    H269123   4.751   4.524   5.056  3.6541 -0.0164  1.6712
15878TIP3   OH269124   3.835   4.501   6.313  0.1846  0.0877 -0.4149
15878TIP3    H169125   3.903   4.564   6.337  0.0619  0.0643 -0.0048
15878TIP3    H269126   3.842   4.432   6.379 -0.2934  0.1250 -0.3256
15879TIP3   OH269127   1.049   5.671   0.963 -0.0791  0.6631  0.0237
15879TIP3    H169128   0.993   5.617   0.908 -0.6320 -0.0910  1.2720
15879TIP3    H269129   1.138   5.642   0.944 -0.2694  0.3754 -0.4227
15880TIP3   OH269130   3.612   6.223   3.323  0.1169 -0.4606 -0.5729
15880TIP3    H169131   3.533   6.251   3.277 -0.3390 -2.5109 -1.1212
15880TIP3    H269132   3.645   6.148   3.273  2.7565  0.6523 -0.7023
15881TIP3   OH269133   2.016   2.864   1.087 -0.0688 -0.1623 -0.6324
15881TIP3    H169134   2.051   2.953   1.089  1.0600 -0.5949 -0.3995
15881TIP3    H269135   1.964   2.861   1.007  0.8918  0.3422 -1.2974
15882TIP3   OH269136   0.178   4.522   2.462 -0.8629 -0.5886  0.0487
15882TIP3    H169137   0.244   4.499   2.397 -2.1670 -1.8896 -0.8784
15882TIP3    H269138   0.227   4.567   2.531  0.6254  0.4927 -1.6208
15883TIP3   OH269139   5.177   0.115   1.157  0.1297  0.1352 -0.4955
15883TIP3    H169140   5.234   0.049   1.118  0.0524 -0.4013  0.2769
15883TIP3    H269141   5.161   0.084   1.246 -1.9049 -0.0656 -0.8812
15884TIP3   OH269142   6.283   2.823  11.973  0.5795 -0.1387  0.0353
15884TIP3    H169143   6.316   2.753  11.916 -1.1445 -0.2520 -0.9098
15884TIP3    H269144   6.242   2.776  12.046  1.5755 -0.0264  0.6828
15885TIP3   OH269145   6.781   4.367   2.413 -0.2851  0.6083 -0.1171
15885TIP3    H169146   6.755   4.298   2.475 -1.1025 -1.5468 -2.6329
15885TIP3    H269147   6.865   4.399   2.446 -0.0025 -1.4194  1.3449
15886TIP3   OH269148   3.041   2.225  15.003  0.1540 -0.3155 -0.5188
15886TIP3    H169149   2.963   2.183  15.039  0.3873 -0.6604 -0.4130
15886TIP3    H269150   3.095   2.246  15.079  0.1786 -0.1049 -0.5927
15887TIP3   OH269151   0.391   3.453  15.898 -0.5156 -0.1639  0.0093
15887TIP3    H169152   0.304   3.492  15.905 -1.2444 -1.2330 -2.2115
15887TIP3    H269153   0.381   3.383  15.834  2.6033  1.5356 -2.6344
15888TIP3   OH269154   2.585   1.914  12.479 -0.0223 -0.8045  0.4106
15888TIP3    H169155   2.653   1.967  12.520  0.8368 -0.3336 -1.4816
15888TIP3    H269156   2.546   1.972  12.413  0.0204 -2.0895 -0.7894
15889TIP3   OH269157   4.461   2.558  15.867 -0.3232 -0.1551  0.6844
15889TIP3    H169158   4.495   2.470  15.849 -0.5863 -0.2614  0.6968
15889TIP3    H269159   4.397   2.573  15.797 -0.5540 -0.1275  0.8989
15890TIP3   OH269160   6.218   3.159  17.158  0.4140 -0.4680  0.0908
15890TIP3    H169161   6.226   3.220  17.085  1.5811 -1.1812 -0.4089
15890TIP3    H269162   6.271   3.084  17.132 -0.9690 -1.7013  0.6981
15891TIP3   OH269163   6.782   1.869  13.186 -0.2602  0.5204 -0.0853
15891TIP3    H169164   6.749   1.934  13.249  0.9555  1.5209 -0.4558
15891TIP3    H269165   6.741   1.894  13.103 -0.4321  0.3106 -0.0638
15892TIP3   OH269166   0.969   4.740   1.109  0.0073 -0.4082 -0.0659
15892TIP3    H169167   0.962   4.812   1.047 -1.4205 -0.7016 -0.2811
15892TIP3    H269168   0.912   4.765   1.182 -0.0865 -1.0817  0.0956
15893TIP3   OH269169   3.426   0.849   1.960 -0.0627  0.6789  0.3163
15893TIP3    H169170   3.384   0.934   1.975 -1.7579  0.2900 -1.7456
15893TIP3    H269171   3.356   0.794   1.924  1.1179 -1.4737  1.1376
15894TIP3   OH269172   2.641   6.398  16.047 -0.1199  0.6134 -0.2193
15894TIP3    H169173   2.633   6.316  16.095  0.1899  0.8641  0.2733
15894TIP3    H269174   2.556   6.410  16.005 -0.6414  0.7515  0.8566
15895TIP3   OH269175   2.727   0.604   1.735  0.2830 -0.1022  0.3114
15895TIP3    H169176   2.706   0.628   1.644  1.0005  1.3975  0.5186
15895TIP3    H269177   2.661   0.538   1.757 -0.5972  0.3131 -0.9332
15896TIP3   OH269178   3.183   5.218  14.619 -0.0529 -0.1027  0.4535
15896TIP3    H169179   3.199   5.127  14.645 -0.2860 -0.3098 -0.1278
15896TIP3    H269180   3.180   5.216  14.524  2.1281  0.8669  0.2875
15897TIP3   OH269181   1.863   0.012   5.638 -0.3802 -0.3139 -0.3181
15897TIP3    H169182   1.922   0.024   5.563 -0.7708 -1.5880 -0.8496
15897TIP3    H269183   1.905   0.062   5.709 -0.5937  1.8820 -1.6451
15898TIP3   OH269184   2.455   3.217  11.578  0.0964 -0.6256  0.0505
15898TIP3    H169185   2.405   3.269  11.640 -0.0181 -0.6094 -0.0538
15898TIP3    H269186   2.546   3.245  11.589 -0.0930  0.3023 -0.6950
15899TIP3   OH269187   1.717   0.215   3.567 -0.6373 -0.1242 -0.2249
15899TIP3    H169188   1.629   0.246   3.547 -0.8363 -0.7602 -0.3813
15899TIP3    H269189   1.703   0.129   3.607 -0.1188  0.1018  0.4478
15900TIP3   OH269190   2.702   6.096   2.357  0.2652  0.0854 -0.0794
15900TIP3    H169191   2.751   6.019   2.386  0.2299 -0.4415 -1.3738
15900TIP3    H269192   2.731   6.166   2.416  3.4364  0.0517 -1.3979
15901TIP3   OH269193   3.061   0.891   1.162  0.3686  0.5045  0.5241
15901TIP3    H169194   3.106   0.840   1.094  1.2416  2.3563 -0.3504
15901TIP3    H269195   2.968   0.879   1.142  0.6017  1.0027 -1.0211
15902TIP3   OH269196   0.291   4.042  16.064 -0.7609  0.3071 -0.8027
15902TIP3    H169197   0.237   4.038  16.143  0.8794 -1.7769  0.3135
15902TIP3    H269198   0.370   4.089  16.092  1.1226 -2.9261 -0.2353
15903TIP3   OH269199   1.939   6.760  11.541 -0.7788 -0.4617  0.3450
15903TIP3    H169200   1.942   6.729  11.450 -0.9662  2.4013 -0.7291
15903TIP3    H269201   2.031   6.762  11.568 -0.5960  0.0056 -0.2849
15904TIP3   OH269202   1.257   3.764   1.111 -0.1327 -0.4908 -0.0281
15904TIP3    H169203   1.264   3.842   1.166 -0.6522  0.0438 -0.7005
15904TIP3    H269204   1.219   3.796   1.029  0.5224 -1.2945 -0.6608
15905TIP3   OH269205   0.215   4.527  12.375  0.3420 -0.3862  0.1735
15905TIP3    H169206   0.306   4.500  12.362  0.3763  0.6165 -2.2665
15905TIP3    H269207   0.165   4.447  12.361  0.7804 -0.6418  0.0262
15906TIP3   OH269208   5.591   6.322  14.517 -0.0547  0.0424 -0.2098
15906TIP3    H169209   5.515   6.360  14.471 -0.7992 -2.1357 -0.9107
15906TIP3    H269210   5.613   6.244  14.467 -0.5053 -2.1547  2.7342
15907TIP3   OH269211   3.497   0.867  12.635  0.7918 -0.2532  0.0568
15907TIP3    H169212   3.477   0.877  12.728 -0.1024  1.0377 -0.2459
15907TIP3    H269213   3.413   0.879  12.591  1.3001 -0.2947 -0.9482
15908TIP3   OH269214   5.806   0.687  12.955  0.2836  0.1308  0.3597
15908TIP3    H169215   5.854   0.769  12.943 -0.5454  0.5013 -0.5924
15908TIP3    H269216   5.864   0.620  12.919  0.0493  0.5975 -0.9587
15909TIP3   OH269217   4.470   4.432   1.768  0.1483  0.0487  0.6315
15909TIP3    H169218   4.508   4.348   1.795  0.3629 -0.4050 -0.9637
15909TIP3    H269219   4.508   4.496   1.828 -1.3646 -1.1674  3.0245
15910TIP3   OH269220   5.801   4.584   5.553  0.1346 -0.2994 -0.3071
15910TIP3    H169221   5.823   4.585   5.460 -0.8161  0.7005 -0.5415
15910TIP3    H269222   5.884   4.568   5.597  0.8104  0.4274 -1.2793
15911TIP3   OH269223   0.912   1.349   6.011 -0.0535 -0.2083 -0.3081
15911TIP3    H169224   0.955   1.434   6.021 -0.8924  0.3469 -1.2177
15911TIP3    H269225   0.846   1.347   6.081  1.7937 -1.3354  1.5032
15912TIP3   OH269226   1.689   1.831   6.371  0.5959  0.3843 -0.2154
15912TIP3    H169227   1.669   1.917   6.407  1.2869  0.6846 -0.5433
15912TIP3    H269228   1.673   1.770   6.443 -0.5886  0.6978 -0.1880
15913TIP3   OH269229   0.921   3.963   4.474  0.0708  0.0406  0.1402
15913TIP3    H169230   0.831   3.944   4.447  0.0517  1.0269 -0.5208
15913TIP3    H269231   0.917   3.966   4.570 -0.4716 -0.5011  0.1405
15914TIP3   OH269232   1.736   5.687   4.544 -0.2066  0.1268  0.2566
15914TIP3    H169233   1.821   5.716   4.578  0.2864  1.4553 -1.9038
15914TIP3    H269234   1.718   5.605   4.591  1.5497  0.5503  1.8136
15915TIP3   OH269235   6.134   3.038   3.577  0.2152  0.9156  0.4696
15915TIP3    H169236   6.213   3.019   3.525  0.8419  1.2271  1.2965
15915TIP3    H269237   6.075   3.079   3.515  1.3284  2.1876  0.2054
15916TIP3   OH269238   6.843   2.910  14.972 -0.1204  0.7119 -0.3115
15916TIP3    H169239   6.790   2.905  15.052  2.2135 -1.4636  1.2628
15916TIP3    H269240   6.868   3.002  14.965 -1.7855  1.2679  0.4370
15917TIP3   OH269241   2.907   0.870   3.144  0.5972  0.2771 -0.2884
15917TIP3    H169242   2.895   0.900   3.234 -0.6133  1.2063 -0.7395
15917TIP3    H269243   2.834   0.810   3.129  0.2449  0.8490 -0.9360
15918TIP3   OH269244   3.799   6.127  12.099  0.0539 -0.6440  0.1602
15918TIP3    H169245   3.715   6.171  12.110 -0.8478 -1.5966 -2.1724
15918TIP3    H269246   3.864   6.194  12.120 -1.2607  1.6567 -2.3877
15919TIP3   OH269247   3.577   1.820  16.497  0.3190 -0.0148  0.2261
15919TIP3    H169248   3.618   1.786  16.577  1.6081  0.0399 -0.4026
15919TIP3    H269249   3.583   1.915  16.505  1.2773 -0.0168 -0.3421
15920TIP3   OH269250   1.829   0.799   6.373  0.7471  0.3891 -0.0872
15920TIP3    H169251   1.801   0.736   6.439  0.8392 -0.0367 -0.4495
15920TIP3    H269252   1.871   0.746   6.305 -1.1703  0.5508 -1.4837
15921TIP3   OH269253   3.748   3.647   5.230 -0.6154  0.0728 -0.3113
15921TIP3    H169254   3.722   3.731   5.269  0.0528  0.0279  0.2505
15921TIP3    H269255   3.834   3.664   5.193  0.9310 -1.0833  2.4324
15922TIP3   OH269256   1.514   5.230   6.511  0.3427 -0.2295  0.2433
15922TIP3    H169257   1.444   5.197   6.455 -0.8531  1.8172  0.4267
15922TIP3    H269258   1.527   5.321   6.482  0.5865  0.4787  2.3980
15923TIP3   OH269259   4.157   3.905   3.760 -0.0219 -0.4429  0.4647
15923TIP3    H169260   4.226   3.843   3.737  0.6843  0.8952 -1.2471
15923TIP3    H269261   4.178   3.931   3.849 -0.0882 -2.2893  1.0706
15924TIP3   OH269262   2.156   3.378   1.683  0.0068 -0.4479  0.5294
15924TIP3    H169263   2.150   3.474   1.678 -2.1728 -0.5145  0.9300
15924TIP3    H269264   2.067   3.349   1.701  0.0710 -2.7349 -2.1416
15925TIP3   OH269265   6.102   3.436   3.619 -0.5370  0.2804 -0.0845
15925TIP3    H169266   6.029   3.394   3.666 -0.0290 -2.1947 -1.3160
15925TIP3    H269267   6.095   3.402   3.529  1.9597  0.1325 -0.2932
15926TIP3   OH269268   4.705   0.687  12.010 -0.1747 -0.0937 -0.3545
15926TIP3    H169269   4.746   0.654  12.090  0.9355  1.6892 -0.1306
15926TIP3    H269270   4.628   0.735  12.040  0.9184  1.6379 -0.1735
15927TIP3   OH269271   0.957   4.841  16.227 -0.3165  0.3821  0.3371
15927TIP3    H169272   1.033   4.867  16.175  0.5688  0.4805  1.6430
15927TIP3    H269273   0.984   4.761  16.272 -0.7887  0.6906  1.1992
15928TIP3   OH269274   4.677   5.998   1.948 -0.2638 -0.3444  0.3428
15928TIP3    H169275   4.671   6.082   1.902  1.2936 -1.1689 -1.5070
15928TIP3    H269276   4.587   5.965   1.949 -0.5304  0.2282 -1.1754
15929TIP3   OH269277   4.756   5.744   5.941  0.0379 -0.4876 -0.2528
15929TIP3    H169278   4.746   5.790   6.025 -1.9370 -1.0591 -0.1139
15929TIP3    H269279   4.786   5.811   5.880  1.6077 -0.0853  0.9183
15930TIP3   OH269280   6.573   5.130  14.210  0.1137 -0.5161  0.3536
15930TIP3    H169281   6.561   5.089  14.295 -0.7674 -0.6750  0.1623
15930TIP3    H269282   6.565   5.058  14.147 -0.8965 -0.1458  0.0494
15931TIP3   OH269283   1.090   1.292  12.678  0.0025  0.4894  0.3056
15931TIP3    H169284   1.136   1.335  12.605  2.4471  0.7619  1.8883
15931TIP3    H269285   1.042   1.363  12.721 -1.3272  0.3556 -0.8801
15932TIP3   OH269286   5.255   4.067  13.094 -0.1769 -0.2390  0.4050
15932TIP3    H169287   5.287   3.977  13.090 -1.7413 -0.7943 -0.6287
15932TIP3    H269288   5.251   4.095  13.003 -1.9849 -0.0046  0.5243
15933TIP3   OH269289   6.741   6.435  14.445  0.0554  0.2501  0.1935
15933TIP3    H169290   6.729   6.415  14.538  2.6384  1.6248  0.9090
15933TIP3    H269291   6.723   6.352  14.400  1.2650 -1.1638  2.1806
15934TIP3   OH269292   0.825   5.690   0.358  0.2616  0.0302  0.7148
15934TIP3    H169293   0.907   5.643   0.350  1.2822  1.5248  1.8341
15934TIP3    H269294   0.847   5.780   0.334 -0.4698  0.9543  3.1908
15935TIP3   OH269295   0.774   2.175   5.186 -0.4070  0.5010  0.7295
15935TIP3    H169296   0.726   2.125   5.120 -0.1613  0.1210  0.8361
15935TIP3    H269297   0.865   2.150   5.174 -0.2525  1.0780  0.6516
15936TIP3   OH269298   0.264   0.886   4.236 -0.1755 -0.3474  0.4173
15936TIP3    H169299   0.193   0.932   4.192 -0.6587 -1.3407  0.1170
15936TIP3    H269300   0.325   0.864   4.166 -1.1452 -2.2971  0.1119
15937TIP3   OH269301   3.485   3.938   3.725  0.7577  0.8917 -0.1314
15937TIP3    H169302   3.488   3.986   3.807  2.5759  0.2474  0.2354
15937TIP3    H269303   3.440   3.996   3.664 -1.3099  1.0879  1.4569
15938TIP3   OH269304   5.040   3.795  13.778 -0.1377 -0.6737 -0.0036
15938TIP3    H169305   5.131   3.767  13.773  0.8133  2.1152  0.0532
15938TIP3    H269306   5.027   3.820  13.870 -0.9148 -0.8406 -0.0574
15939TIP3   OH269307   5.582   1.312   4.288 -0.6542 -0.4668  0.0349
15939TIP3    H169308   5.537   1.229   4.270 -2.0836 -0.2867  2.4082
15939TIP3    H269309   5.532   1.378   4.239  0.7376 -0.9401 -2.2067
15940TIP3   OH269310   0.826   4.206  10.788 -0.8406 -0.2086  0.1361
15940TIP3    H169311   0.883   4.141  10.828  0.5642  0.8831 -0.0201
15940TIP3    H269312   0.885   4.266  10.743 -1.9664  1.8976  1.2934
15941TIP3   OH269313   4.191   5.489  12.291 -0.1169  0.7615  0.2582
15941TIP3    H169314   4.209   5.583  12.286  2.2615  0.3224 -1.7752
15941TIP3    H269315   4.262   5.454  12.344  1.0255 -0.1902 -1.7567
15942TIP3   OH269316   3.322   4.938  12.031 -0.6353 -0.1094  0.7240
15942TIP3    H169317   3.346   5.029  12.013 -1.0324 -0.3656 -1.2932
15942TIP3    H269318   3.244   4.944  12.086 -1.2372  0.7967 -0.1987
15943TIP3   OH269319   3.569   6.672  11.229 -0.2800 -0.0125  0.2529
15943TIP3    H169320   3.545   6.719  11.310 -0.9052  1.6318 -0.8225
15943TIP3    H269321   3.665   6.672  11.229 -0.2619 -0.8303  1.4199
15944TIP3   OH269322   5.784   1.910   3.132  0.6457  0.2517  0.4209
15944TIP3    H169323   5.707   1.952   3.093  0.5588  0.4660  0.8145
15944TIP3    H269324   5.748   1.847   3.194  0.7866  0.5933  0.8537
15945TIP3   OH269325   6.372   6.261  15.960 -0.0591  0.5531 -0.2510
15945TIP3    H169326   6.390   6.175  15.923  3.9682  0.9941  0.1452
15945TIP3    H269327   6.322   6.243  16.040 -1.0706 -1.1761 -1.2218
15946TIP3   OH269328   4.765   1.522  14.207 -0.5686 -0.1709  0.6048
15946TIP3    H169329   4.742   1.441  14.161  0.7154 -1.2461  1.7784
15946TIP3    H269330   4.793   1.494  14.294  2.6387  1.1975  0.1798
15947TIP3   OH269331   6.254   0.139   0.096  0.3498  0.1602  0.4498
15947TIP3    H169332   6.304   0.193   0.157 -0.5156  1.0583  0.3857
15947TIP3    H269333   6.174   0.189   0.080  0.5289 -0.0935 -1.3795
15948TIP3   OH269334   6.670   2.096   3.567  0.6628  0.3290 -0.0298
15948TIP3    H169335   6.748   2.106   3.513  0.6468  0.7004  0.0131
15948TIP3    H269336   6.606   2.156   3.528  0.3585 -0.0705 -0.1424
15949TIP3   OH269337   1.295   6.145  16.700  0.4694 -0.1117 -0.0877
15949TIP3    H169338   1.322   6.229  16.738  1.7214 -0.9338  0.9632
15949TIP3    H269339   1.347   6.080  16.747 -1.0337 -1.5614 -0.3215
15950TIP3   OH269340   5.474   0.828  10.322  0.2653  0.3247 -0.5849
15950TIP3    H169341   5.476   0.914  10.279  1.1930  0.7463  0.2540
15950TIP3    H269342   5.383   0.799  10.312  0.0760  1.1223 -1.4100
15951TIP3   OH269343   0.496   6.324  14.438  0.5939 -0.2389  0.4172
15951TIP3    H169344   0.402   6.304  14.442  0.6198 -0.3539  0.4525
15951TIP3    H269345   0.519   6.315  14.346  0.6774 -0.7015  0.4801
15952TIP3   OH269346   0.418   4.487  13.729 -0.3800  0.1621  0.7483
15952TIP3    H169347   0.394   4.422  13.662 -0.9039  3.2019 -2.3208
15952TIP3    H269348   0.514   4.490  13.727 -0.4026  0.9267 -0.7393
15953TIP3   OH269349   5.559   5.100   1.312 -0.5255 -1.1181 -0.3683
15953TIP3    H169350   5.487   5.132   1.257 -0.7003  1.8837  1.3984
15953TIP3    H269351   5.613   5.177   1.329  1.4570 -2.6631  0.8434
15954TIP3   OH269352   6.621   1.420  11.314 -0.2194 -0.3350  0.1845
15954TIP3    H169353   6.696   1.479  11.304 -0.8801  0.3092 -1.2739
15954TIP3    H269354   6.560   1.469  11.368 -0.7003  0.2948 -0.8942
15955TIP3   OH269355   4.007   3.223  10.781  0.6997 -0.4306 -0.2201
15955TIP3    H169356   3.959   3.141  10.772  1.5616 -1.1603  1.4460
15955TIP3    H269357   4.074   3.218  10.712  0.2557 -0.7560 -0.6364
15956TIP3   OH269358   5.712   2.510  16.504  0.2407  0.0931  0.3046
15956TIP3    H169359   5.756   2.509  16.419 -0.5188  0.7677 -0.1082
15956TIP3    H269360   5.640   2.447  16.494 -1.5623  2.1155 -0.5395
15957TIP3   OH269361   2.621   3.786  15.833 -0.8588 -0.3937 -0.0364
15957TIP3    H169362   2.608   3.859  15.773  1.2314 -0.5280 -0.7126
15957TIP3    H269363   2.716   3.779  15.843 -1.0778 -1.6389  1.7461
15958TIP3   OH269364   5.748   5.732   4.484  0.1294 -0.2248 -0.0224
15958TIP3    H169365   5.815   5.777   4.433  0.0092 -1.3696 -1.2431
15958TIP3    H269366   5.696   5.803   4.523  0.8719  0.6728 -0.6180
15959TIP3   OH269367   3.873   5.530  16.478 -0.2665  0.4483  0.4523
15959TIP3    H169368   3.919   5.556  16.398 -1.5491  1.4808  0.0015
15959TIP3    H269369   3.901   5.593  16.544 -0.9826  1.0890  0.1729
15960TIP3   OH269370   2.045   0.460   5.693  0.6115  0.2346  0.0913
15960TIP3    H169371   2.073   0.531   5.751 -1.4159  0.8931  0.3247
15960TIP3    H269372   1.973   0.418   5.740 -0.6934  0.3998 -1.6631
15961TIP3   OH269373   5.683   5.947  14.657  0.4836  0.4940 -0.5528
15961TIP3    H169374   5.761   5.902  14.688  0.1539 -0.1541 -0.6471
15961TIP3    H269375   5.674   6.023  14.715  0.2728 -0.3147  0.4974
15962TIP3   OH269376   3.879   5.741  14.048 -0.5090 -0.4408 -0.4950
15962TIP3    H169377   3.955   5.799  14.045  0.0391 -1.1904 -1.8683
15962TIP3    H269378   3.807   5.795  14.016 -0.2790 -0.1224 -0.4816
15963TIP3   OH269379   2.749   1.359   0.096 -0.0074  0.4848  0.6240
15963TIP3    H169380   2.675   1.315   0.054 -1.2393  2.1154  1.0092
15963TIP3    H269381   2.807   1.287   0.122 -1.1202 -0.7946 -0.2655
15964TIP3   OH269382   0.448   2.782  16.297  0.1759 -0.4819 -0.4541
15964TIP3    H169383   0.365   2.826  16.315  0.3596 -0.9200  1.8214
15964TIP3    H269384   0.424   2.707  16.243 -0.4603  0.9885 -2.3141
15965TIP3   OH269385   1.232   3.015   5.005 -1.3136  0.0830 -0.0147
15965TIP3    H169386   1.266   2.926   5.015 -1.2881 -0.1429 -1.6987
15965TIP3    H269387   1.146   3.002   4.964 -2.2091  0.7707  1.5617
15966TIP3   OH269388   1.259   1.079  16.320 -1.0232  0.3143  0.3634
15966TIP3    H169389   1.258   1.112  16.230 -0.8297  0.7536  0.5201
15966TIP3    H269390   1.268   1.157  16.374  2.0786 -0.1228  0.6709
15967TIP3   OH269391   0.411   6.483   5.180  0.3398  0.1270  0.0094
15967TIP3    H169392   0.434   6.393   5.157 -0.3828  0.3492 -1.6828
15967TIP3    H269393   0.360   6.515   5.106 -1.9403  0.9818  1.8272
15968TIP3   OH269394   0.188   2.789   0.019  0.0614 -0.0325 -0.8609
15968TIP3    H169395   0.204   2.730  -0.055 -0.5536 -0.9032 -0.3209
15968TIP3    H269396   0.094   2.782   0.036  0.5010 -1.6129  1.4015
15969TIP3   OH269397   5.149   4.121  14.025  0.4589  0.3928 -0.0066
15969TIP3    H169398   5.120   4.134  14.116 -0.3010  0.4271 -0.2445
15969TIP3    H269399   5.166   4.210  13.993  0.9251  0.3680  0.1569
15970TIP3   OH269400   2.941   0.428   3.062 -0.2263  0.6448 -0.6176
15970TIP3    H169401   2.914   0.381   3.141  2.2107  0.8168  0.3993
15970TIP3    H269402   2.967   0.360   3.001  0.4233  0.5695 -0.2650
15971TIP3   OH269403   2.964   1.544   0.123  0.1832  0.0646 -0.1555
15971TIP3    H169404   3.009   1.558   0.206  0.3920 -0.0986 -0.2407
15971TIP3    H269405   2.880   1.505   0.147  0.9709 -1.6842 -0.1227
15972TIP3   OH269406   6.616   0.232   5.937 -0.0940  0.9208  0.7614
15972TIP3    H169407   6.535   0.283   5.937  0.5568  2.0029  0.3680
15972TIP3    H269408   6.606   0.170   6.009 -2.0620 -0.3045 -0.4943
15973TIP3   OH269409   3.648   2.133  12.443 -0.3396  0.3913 -0.0361
15973TIP3    H169410   3.578   2.183  12.401  1.4167  2.1874 -0.9951
15973TIP3    H269411   3.702   2.199  12.486  0.0656 -1.0708  1.8365
15974TIP3   OH269412   2.335   6.580  12.720  0.0280  0.1637  0.2239
15974TIP3    H169413   2.298   6.664  12.749  0.4435  0.2395  0.5454
15974TIP3    H269414   2.427   6.584  12.747  0.2213 -0.1118 -0.3768
15975TIP3   OH269415   5.615   2.104   1.217  0.3286  1.1803  0.1144
15975TIP3    H169416   5.613   2.034   1.281  0.5999  0.5122 -0.5927
15975TIP3    H269417   5.526   2.106   1.181  0.9068 -0.4376 -1.5637
15976TIP3   OH269418   2.933   3.626  15.866  0.1866 -0.2890 -0.6788
15976TIP3    H169419   2.930   3.614  15.772 -2.3901  1.3813 -0.9110
15976TIP3    H269420   2.990   3.702  15.879 -0.3176  0.1405 -0.9805
15977TIP3   OH269421   0.355   6.371  16.572 -0.3880 -0.2553 -0.1505
15977TIP3    H169422   0.334   6.303  16.508 -0.8430  2.0470 -2.5876
15977TIP3    H269423   0.440   6.405  16.544 -0.2939  0.3923  0.8662
15978TIP3   OH269424   6.163   5.959  12.059 -0.0205 -0.5377 -0.3012
15978TIP3    H169425   6.191   6.012  11.985  0.6345  0.0486  0.3594
15978TIP3    H269426   6.074   5.932  12.037 -0.2412  0.5535 -0.8029
15979TIP3   OH269427   1.844   1.212  15.296 -0.1908  0.9542 -0.0253
15979TIP3    H169428   1.833   1.230  15.203  0.6667  0.1540 -0.2989
15979TIP3    H269429   1.763   1.169  15.322 -0.9337  2.2691 -0.1022
15980TIP3   OH269430   6.237   2.826   2.315 -0.6605 -0.4432  0.2299
15980TIP3    H169431   6.152   2.862   2.288 -0.1455  0.5889 -0.0992
15980TIP3    H269432   6.259   2.874   2.395  1.0354  1.7104 -1.3532
15981TIP3   OH269433   4.651   2.626   1.047 -0.7722 -0.1040 -0.0839
15981TIP3    H169434   4.691   2.553   1.002 -0.5078  1.1228 -1.9311
15981TIP3    H269435   4.632   2.593   1.135  3.1096 -1.1398  0.5428
15982TIP3   OH269436   5.590   6.370   2.342 -0.5975 -0.6623 -0.1730
15982TIP3    H169437   5.587   6.386   2.437 -1.2435 -0.6613 -0.1878
15982TIP3    H269438   5.680   6.345   2.325  0.1200  1.5647  0.0735
15983TIP3   OH269439   2.075   0.133   4.273  0.2015  0.2865  0.8252
15983TIP3    H169440   2.030   0.125   4.357 -0.7065 -2.0361  0.1716
15983TIP3    H269441   2.168   0.123   4.294 -0.0521 -0.6687  1.5021
15984TIP3   OH269442   3.408   3.378  13.996 -0.1071  0.1947 -0.2649
15984TIP3    H169443   3.487   3.373  14.051 -0.2650  0.9407  0.0402
15984TIP3    H269444   3.335   3.374  14.058 -0.2916  0.6872 -0.4414
15985TIP3   OH269445   2.113   0.472   4.569 -0.3527  0.0552 -0.1950
15985TIP3    H169446   2.197   0.481   4.523 -0.0500 -0.6824  0.1943
15985TIP3    H269447   2.126   0.519   4.651 -0.8841  1.3477 -0.8202
15986TIP3   OH269448   3.012   5.266   0.054 -0.0919 -0.2709  0.2605
15986TIP3    H169449   3.072   5.255  -0.020  0.6372 -0.2347  0.8258
15986TIP3    H269450   2.999   5.360   0.061 -0.8003 -0.3236 -0.3110
15987TIP3   OH269451   0.105   4.347  14.438 -0.5706  0.2346  0.1959
15987TIP3    H169452   0.101   4.316  14.347  0.8307 -1.1991  0.5772
15987TIP3    H269453   0.153   4.430  14.433  1.6906 -1.0041 -0.1791
15988TIP3   OH269454   5.883   4.422  13.878  0.2719 -0.1132  0.0600
15988TIP3    H169455   5.828   4.478  13.822  0.4131  0.3859  0.4140
15988TIP3    H269456   5.930   4.365  13.817 -3.3787 -3.2432 -0.2110
15989TIP3   OH269457   6.392   2.126  12.384 -0.0566 -0.1107 -0.2194
15989TIP3    H169458   6.392   2.047  12.329 -1.2413  0.3108 -0.8584
15989TIP3    H269459   6.340   2.103  12.460  2.7976 -1.1895  1.5659
15990TIP3   OH269460   1.385   1.490   0.713  0.1822 -0.0253  0.1086
15990TIP3    H169461   1.354   1.559   0.771 -1.1772 -0.1434 -0.4353
15990TIP3    H269462   1.347   1.512   0.628 -0.6471 -1.6511  0.0123
15991TIP3   OH269463   2.635   1.818  14.643 -0.0672 -0.5204 -0.1212
15991TIP3    H169464   2.540   1.809  14.630 -0.1628  1.5137 -1.1430
15991TIP3    H269465   2.643   1.885  14.711  0.5925  1.6859 -2.2234
15992TIP3   OH269466   6.600   6.839   5.212 -0.4658  0.1129 -0.1739
15992TIP3    H169467   6.519   6.850   5.162  0.1647  1.8043 -0.9073
15992TIP3    H269468   6.574   6.847   5.303 -1.2275 -0.1155 -0.3695
15993TIP3   OH269469   6.665   5.537  14.306 -0.0597  0.0486 -0.3020
15993TIP3    H169470   6.743   5.585  14.280  0.1554  0.1715  0.5429
15993TIP3    H269471   6.667   5.537  14.402  0.0799 -1.8282 -0.2577
15994TIP3   OH269472   1.042   1.088   2.203 -0.0575  0.9473 -0.3988
15994TIP3    H169473   1.086   1.006   2.179 -2.0450 -0.8056  1.4283
15994TIP3    H269474   0.968   1.095   2.142  1.3509  2.7035 -2.0330
15995TIP3   OH269475   1.535   0.016   5.071 -0.3468 -0.4262 -0.0295
15995TIP3    H169476   1.575  -0.070   5.056 -0.9660 -0.3439 -2.5617
15995TIP3    H269477   1.526   0.054   4.984 -2.1097  1.3035  0.8335
15996TIP3   OH269478   1.845   5.606  16.458 -0.0091  0.6383  0.1286
15996TIP3    H169479   1.940   5.612  16.454  0.1099  0.7815  1.9704
15996TIP3    H269480   1.822   5.530  16.405  1.0918  0.8292 -0.6325
15997TIP3   OH269481   0.205   1.500   2.516  0.1275 -0.3426  0.8332
15997TIP3    H169482   0.243   1.459   2.437 -0.8700  0.3395 -0.0228
15997TIP3    H269483   0.281   1.534   2.564  0.9007 -2.1529  1.0060
15998TIP3   OH269484   0.409   3.174  16.670 -0.4314  0.3730 -0.4615
15998TIP3    H169485   0.469   3.101  16.656 -0.7012  0.3297 -1.5145
15998TIP3    H269486   0.422   3.231  16.593 -2.4245 -0.1361 -1.2596
15999TIP3   OH269487   6.156   2.498  16.878  0.7876 -0.3542  0.1238
15999TIP3    H169488   6.246   2.525  16.893  0.4255  0.7756  0.3437
15999TIP3    H269489   6.162   2.429  16.811  1.8091 -0.3901  0.2427
16000TIP3   OH269490   0.153   0.543   3.290  0.0851 -0.2140 -0.1528
16000TIP3    H169491   0.092   0.605   3.331 -0.0145  0.0104 -0.6246
16000TIP3    H269492   0.097   0.491   3.232  0.4686  0.6523 -1.3540
16001TIP3   OH269493   0.974   1.749  15.976 -0.0565  0.2203 -0.3859
16001TIP3    H169494   1.063   1.744  15.942 -0.7930  0.4917 -2.4904
16001TIP3    H269495   0.922   1.784  15.904 -2.2229 -1.7527  0.0844
16002TIP3   OH269496   5.065   6.780   0.714  0.5219 -0.5120 -0.0430
16002TIP3    H169497   5.118   6.744   0.643  0.1665  0.6667 -0.9422
16002TIP3    H269498   5.016   6.705   0.747  0.9884 -1.1629 -0.7849
16003TIP3   OH269499   5.627   5.176  11.045 -0.1570  0.2316 -0.7057
16003TIP3    H169500   5.602   5.089  11.077 -1.3293  0.5337 -0.7932
16003TIP3    H269501   5.716   5.163  11.010 -0.1260 -0.8194 -0.2828
16004TIP3   OH269502   0.529   4.606   2.856 -0.2970 -0.2399 -0.7505
16004TIP3    H169503   0.590   4.539   2.824  0.1643  0.5437 -1.5586
16004TIP3    H269504   0.583   4.683   2.870 -0.9047  0.1121 -0.2733
16005TIP3   OH269505   6.397   4.782  10.531  0.0533  0.4701 -0.2665
16005TIP3    H169506   6.416   4.697  10.570  2.2214  0.8781 -0.3059
16005TIP3    H269507   6.320   4.814  10.579  1.5502  0.1826  2.5153
16006TIP3   OH269508   1.524   1.077   4.176 -0.1370 -0.3234 -0.5201
16006TIP3    H169509   1.504   1.035   4.093 -1.9431  0.7430 -0.6823
16006TIP3    H269510   1.439   1.109   4.208  0.7135  0.4868  1.0587
16007TIP3   OH269511   0.271   1.812   1.832 -0.0177 -0.0769  0.0650
16007TIP3    H169512   0.317   1.744   1.782  0.6205  1.6023 -1.7808
16007TIP3    H269513   0.184   1.776   1.847 -0.0257 -0.9356 -1.7264
16008TIP3   OH269514   5.728   4.574   3.878 -0.0292 -0.2052  0.2731
16008TIP3    H169515   5.676   4.527   3.944 -1.0334 -0.4411 -0.6551
16008TIP3    H269516   5.764   4.649   3.926 -0.9252 -0.2372  1.0427
16009TIP3   OH269517   6.503   1.218   1.313  0.2044 -0.2914  0.6571
16009TIP3    H169518   6.428   1.275   1.328  0.2864 -0.6004  2.3732
16009TIP3    H269519   6.512   1.216   1.217 -0.6745  1.4058  0.4944
16010TIP3   OH269520   1.762   4.982   5.567  0.1302 -0.1402  0.0780
16010TIP3    H169521   1.736   5.041   5.497  0.9199  1.5587  1.1391
16010TIP3    H269522   1.858   4.985   5.567  0.1825 -1.2620  0.3127
16011TIP3   OH269523   2.589   4.323   6.136 -0.6208 -0.0280 -0.2325
16011TIP3    H169524   2.677   4.357   6.125  0.0156 -0.8243  1.8664
16011TIP3    H269525   2.536   4.399   6.162 -0.6925  0.5314 -1.9074
16012TIP3   OH269526   3.023   0.584  13.141  0.1191  0.3358 -0.5144
16012TIP3    H169527   3.098   0.641  13.120 -0.4525  0.9284 -1.0101
16012TIP3    H269528   2.973   0.634  13.205 -0.9294  0.8730 -1.7086
16013TIP3   OH269529   6.435   6.058   6.795  0.1256  0.2902 -0.4762
16013TIP3    H169530   6.451   5.964   6.786 -0.2005  0.2063 -0.2440
16013TIP3    H269531   6.384   6.082   6.718 -1.8342 -0.2250  0.5665
16014TIP3   OH269532   2.811   5.148  13.857 -0.1911  0.6524 -0.5334
16014TIP3    H169533   2.770   5.230  13.829  0.3094  1.0650 -0.0663
16014TIP3    H269534   2.882   5.135  13.794 -0.6564  0.2425 -0.9864
16015TIP3   OH269535   1.934   0.554  16.871  0.0412 -0.1412 -0.6754
16015TIP3    H169536   1.894   0.486  16.817  1.0235 -0.2975 -1.2189
16015TIP3    H269537   2.028   0.538  16.864  0.2324  0.6555  0.0088
16016TIP3   OH269538   6.714   4.654   6.136  0.2852 -0.4764  0.2022
16016TIP3    H169539   6.688   4.682   6.224 -1.9956 -2.2680  0.1828
16016TIP3    H269540   6.707   4.559   6.138  1.1119 -0.6263 -1.6770
16017TIP3   OH269541   1.706   0.947  16.846  0.4215 -0.2989  0.9306
16017TIP3    H169542   1.792   0.962  16.886 -0.1730  0.0858  2.1126
16017TIP3    H269543   1.653   0.909  16.916 -0.5725  0.1206  0.4262
16018TIP3   OH269544   2.802   6.556   1.546  0.0474  0.0458  0.0568
16018TIP3    H169545   2.776   6.640   1.508 -2.9678 -1.8060 -2.4366
16018TIP3    H269546   2.891   6.541   1.512 -0.4315  1.0088 -1.7462
16019TIP3   OH269547   0.879   4.898  12.803  0.0284 -0.0609 -0.4534
16019TIP3    H169548   0.862   4.960  12.733  0.5623  1.8663  1.0344
16019TIP3    H269549   0.795   4.889  12.848  0.5211  1.8537  1.0021
16020TIP3   OH269550   2.009   1.888  12.054  0.1528  0.0352  0.0170
16020TIP3    H169551   2.008   1.856  11.964 -0.1767  1.1302 -0.3816
16020TIP3    H269552   2.012   1.809  12.108  1.5369 -0.6214 -0.9659
16021TIP3   OH269553   5.702   2.582   2.859 -0.1485 -0.0592  0.1929
16021TIP3    H169554   5.738   2.608   2.774 -0.7320 -1.1940 -0.4379
16021TIP3    H269555   5.671   2.663   2.898 -1.7138  0.2722 -1.5742
16022TIP3   OH269556   0.821   2.863   4.764  0.1515 -0.2251  0.2840
16022TIP3    H169557   0.823   2.873   4.859 -2.5733 -0.3929  0.4365
16022TIP3    H269558   0.758   2.929   4.734  1.0028 -0.1292 -1.4319
16023TIP3   OH269559   3.069   2.872  13.724 -0.1599 -0.7407  0.2009
16023TIP3    H169560   3.068   2.923  13.643  0.3719 -0.1431  0.5556
16023TIP3    H269561   3.137   2.914  13.777 -0.6097 -1.0220  1.0162
16024TIP3   OH269562   4.485   3.762  11.365  0.1508  0.4255 -0.1260
16024TIP3    H169563   4.557   3.724  11.416  1.7168  1.7223 -1.2476
16024TIP3    H269564   4.411   3.763  11.425  1.6775  1.1197  1.8725
16025TIP3   OH269565   3.996   3.950   3.320 -0.1528  0.5965 -0.4460
16025TIP3    H169566   4.025   4.041   3.319  1.4707  0.1136 -1.2918
16025TIP3    H269567   3.946   3.940   3.239 -0.2916  0.7237 -0.3761
16026TIP3   OH269568   6.303   6.443  14.546  0.0015  0.1722 -0.3768
16026TIP3    H169569   6.349   6.415  14.625 -2.1677  1.8567  1.5920
16026TIP3    H269570   6.373   6.452  14.480  2.1981  0.5785  1.8530
16027TIP3   OH269571   2.943   2.905  15.322  0.2026  0.3658  0.2111
16027TIP3    H169572   2.931   2.918  15.228 -1.3307 -0.4965  0.2526
16027TIP3    H269573   2.910   2.986  15.361 -2.6408 -0.6457  0.1344
16028TIP3   OH269574   1.778   1.114   1.479  0.9432  0.1256  0.2623
16028TIP3    H169575   1.859   1.164   1.483  0.8145  0.2764  1.2920
16028TIP3    H269576   1.797   1.032   1.524  1.9063 -1.9534 -3.5491
16029TIP3   OH269577   6.253   0.286  11.129 -0.2556  0.2520 -0.0976
16029TIP3    H169578   6.174   0.250  11.169  0.3471 -1.1018 -0.0578
16029TIP3    H269579   6.266   0.234  11.049 -0.5050  1.7970 -1.1896
16030TIP3   OH269580   3.738   2.584  16.426 -0.5212 -0.0346  0.2306
16030TIP3    H169581   3.738   2.606  16.333  0.9132 -1.2862 -0.1008
16030TIP3    H269582   3.793   2.651  16.467 -1.1705  0.5289  0.2055
16031TIP3   OH269583   2.666   2.602  16.101 -0.3960 -0.0974  0.3587
16031TIP3    H169584   2.748   2.619  16.148 -1.1640  0.2275  1.6030
16031TIP3    H269585   2.631   2.689  16.082 -0.6012 -0.2435  0.0561
16032TIP3   OH269586   0.945   1.233  12.433  0.2841 -0.3015  0.3002
16032TIP3    H169587   1.031   1.261  12.465  1.3557 -1.7844 -1.1321
16032TIP3    H269588   0.943   1.261  12.342 -0.0742 -1.6756 -0.1363
16033TIP3   OH269589   3.187   3.860  17.026 -0.1153  0.1420  0.1720
16033TIP3    H169590   3.272   3.904  17.029 -0.0078 -0.0892  0.7615
16033TIP3    H269591   3.132   3.913  17.084  0.3310 -1.1173  1.8440
16034TIP3   OH269592   4.236   1.949  14.787 -0.4197 -0.1487 -0.1336
16034TIP3    H169593   4.194   2.033  14.769  1.0470  0.2663 -1.7704
16034TIP3    H269594   4.235   1.942  14.883 -1.1822  1.3799 -0.0048
16035TIP3   OH269595   2.455   3.565  15.547 -0.1834 -0.4203  0.0935
16035TIP3    H169596   2.420   3.522  15.625 -0.8728  1.7182  1.0519
16035TIP3    H269597   2.386   3.626  15.521  0.4303 -0.4230 -1.6324
16036TIP3   OH269598   0.105   4.345  17.147 -0.4482  0.2876 -0.3836
16036TIP3    H169599   0.076   4.328  17.057 -2.0996 -1.3970  0.3765
16036TIP3    H269600   0.031   4.389  17.189  0.7898  2.2410 -0.1406
16037TIP3   OH269601   0.323   6.758  13.745  0.0679  0.5786  0.0417
16037TIP3    H169602   0.375   6.711  13.679 -0.5281  0.5736 -0.4332
16037TIP3    H269603   0.360   6.730  13.829  0.2813 -0.0823 -0.2631
16038TIP3   OH269604   3.002   1.896  16.358 -0.6296 -0.0479  0.7721
16038TIP3    H169605   3.083   1.899  16.408  0.3872 -0.5889 -0.7616
16038TIP3    H269606   2.999   1.808  16.321 -0.7368  0.6372 -0.9975
16039TIP3   OH269607   4.456   3.761   5.988 -0.0798  0.1084  0.6983
16039TIP3    H169608   4.438   3.744   5.896  0.5921  2.6847  0.0121
16039TIP3    H269609   4.551   3.750   5.997 -0.4152 -2.9518  1.8460
16040TIP3   OH269610   5.520   5.092  11.898  0.1385 -0.0917  0.1973
16040TIP3    H169611   5.492   5.127  11.813  1.9884  0.5352 -0.1918
16040TIP3    H269612   5.556   5.006  11.878  0.4285 -0.0112  0.3746
16041TIP3   OH269613   4.721   2.867  16.161 -0.4035  0.2792  0.1686
16041TIP3    H169614   4.697   2.832  16.075 -0.3289  1.0382 -0.1650
16041TIP3    H269615   4.659   2.825  16.221 -0.0510 -0.7324 -0.1647
16042TIP3   OH269616   4.486   4.241  12.912  0.2447 -0.9472 -0.0323
16042TIP3    H169617   4.560   4.235  12.852  0.2607 -0.2302 -0.0896
16042TIP3    H269618   4.442   4.156  12.904  0.0441 -0.7430 -1.3312
16043TIP3   OH269619   6.817   3.515  15.996  0.1156 -0.3105 -0.0961
16043TIP3    H169620   6.887   3.564  15.952 -1.7878  0.6142 -2.2674
16043TIP3    H269621   6.760   3.485  15.926  0.7988 -5.3569  1.1246
16044TIP3   OH269622   3.753   5.409   2.056  0.4929 -0.2696 -0.0873
16044TIP3    H169623   3.674   5.462   2.065  0.6452 -0.2415  1.2410
16044TIP3    H269624   3.724   5.332   2.007 -1.5623 -2.4552  4.0068
16045TIP3   OH269625   3.758   4.344   2.283 -0.6192  0.5897  0.0242
16045TIP3    H169626   3.804   4.420   2.319  1.2337 -1.7511  3.0032
16045TIP3    H269627   3.819   4.307   2.220 -1.4878  1.4151 -1.3605
16046TIP3   OH269628   2.345   5.593  15.612 -0.2313  0.4130 -0.1703
16046TIP3    H169629   2.428   5.628  15.581 -0.5650  0.2947 -1.2562
16046TIP3    H269630   2.366   5.547  15.693  0.6462  0.9315 -0.0978
16047TIP3   OH269631   5.202   0.688   1.415  0.3832 -0.0655  0.6061
16047TIP3    H169632   5.226   0.779   1.396 -1.6142  0.8139  1.9129
16047TIP3    H269633   5.255   0.636   1.355  0.7822  2.0178 -0.9731
16048TIP3   OH269634   6.739   0.637   5.037 -0.0656  0.2508 -0.2139
16048TIP3    H169635   6.821   0.671   5.071 -0.5907  1.4750 -0.1334
16048TIP3    H269636   6.672   0.696   5.071 -0.7545  0.7225 -2.2155
16049TIP3   OH269637   0.991   1.108   0.259  0.7695 -0.4115  0.2018
16049TIP3    H169638   1.081   1.141   0.264  0.4011  0.4592  1.4371
16049TIP3    H269639   0.936   1.186   0.252  0.0135 -0.8614  0.9713
16050TIP3   OH269640   0.892   5.986   4.514  0.0518 -0.2276  0.0989
16050TIP3    H169641   0.856   5.899   4.495  0.0059 -0.1574 -0.1365
16050TIP3    H269642   0.894   6.030   4.429 -1.5977  0.6537  0.4838
16051TIP3   OH269643   5.327   5.187  14.416  0.4422 -0.0195  0.0288
16051TIP3    H169644   5.248   5.201  14.363 -0.0067 -1.1533  0.3638
16051TIP3    H269645   5.299   5.208  14.505  0.9792  1.1154 -0.0476
16052TIP3   OH269646   0.151   0.273   5.520  0.3988  0.5002 -0.1091
16052TIP3    H169647   0.111   0.359   5.534 -0.6403 -0.0762  0.6323
16052TIP3    H269648   0.100   0.233   5.450  1.0947  0.5987 -0.6910
16053TIP3   OH269649   2.802   6.578  16.304 -0.1346 -0.3413 -0.7856
16053TIP3    H169650   2.887   6.615  16.281  0.4308 -0.7323  0.5659
16053TIP3    H269651   2.818   6.485  16.316 -0.6607 -0.3626 -0.1487
16054TIP3   OH269652   0.122   1.180  16.255  0.5027 -0.1361  0.1130
16054TIP3    H169653   0.028   1.168  16.243  0.6475 -0.3065 -0.8877
16054TIP3    H269654   0.133   1.186  16.350 -0.9654  3.5616  0.2087
16055TIP3   OH269655   1.538   3.860   4.882 -0.5802  0.0129  0.0261
16055TIP3    H169656   1.513   3.811   4.960  0.0131 -0.1187  0.1422
16055TIP3    H269657   1.588   3.797   4.830  0.0797  0.4506  0.1159
16056TIP3   OH269658   1.230   1.984  13.229  0.1455 -0.1714 -0.4964
16056TIP3    H169659   1.273   2.050  13.175 -1.7944  0.8208 -0.9421
16056TIP3    H269660   1.300   1.946  13.282  1.8536 -0.0936 -2.6041
16057TIP3   OH269661   5.822   5.329  15.074  0.3879 -0.2706  0.0535
16057TIP3    H169662   5.805   5.422  15.062  0.2152 -0.1621  1.0661
16057TIP3    H269663   5.904   5.313  15.027  1.2964  0.7450  1.2315
16058TIP3   OH269664   0.868   3.815  14.848 -0.7674  0.2079 -0.5407
16058TIP3    H169665   0.791   3.863  14.877 -1.1910 -0.3674 -0.6975
16058TIP3    H269666   0.930   3.822  14.921 -0.7710  1.0850 -0.6068
16059TIP3   OH269667   1.868   4.821   4.301  0.1650 -0.3598 -0.5696
16059TIP3    H169668   1.952   4.788   4.331  0.5843 -0.8460 -2.1706
16059TIP3    H269669   1.871   4.811   4.206 -1.0430  1.1661 -0.8166
16060TIP3   OH269670   4.956   2.967  12.835 -0.1142 -0.3916 -0.2466
16060TIP3    H169671   4.956   2.898  12.901  0.2394 -0.0483  0.1212
16060TIP3    H269672   4.867   2.969  12.802  0.0481 -1.5619 -0.8330
16061TIP3   OH269673   1.169   2.198   0.252  1.1102  0.1793  0.6812
16061TIP3    H169674   1.142   2.109   0.231 -0.7245  0.9568 -0.5105
16061TIP3    H269675   1.234   2.188   0.321  0.7947 -2.0602  0.7131
16062TIP3   OH269676   4.297   2.074  16.372  0.7797 -0.0752  0.3752
16062TIP3    H169677   4.330   2.003  16.318  2.5088 -0.8177  2.2648
16062TIP3    H269678   4.206   2.084  16.346  1.0095 -1.6992 -1.2451
16063TIP3   OH269679   5.849   5.140  15.939  0.1803 -0.1656 -0.1771
16063TIP3    H169680   5.771   5.175  15.897 -0.4165  1.4841  2.1163
16063TIP3    H269681   5.921   5.165  15.881 -0.7766  0.2169 -1.2268
16064TIP3   OH269682   2.448   3.800   1.517 -0.3591  0.8547 -0.1958
16064TIP3    H169683   2.436   3.826   1.609  0.0615  1.4968 -0.3138
16064TIP3    H269684   2.407   3.870   1.467 -0.5572  0.5225 -0.5032
16065TIP3   OH269685   1.204   1.320  11.887 -0.2213  0.0567  0.9547
16065TIP3    H169686   1.120   1.362  11.867 -0.2140 -0.5510 -0.5303
16065TIP3    H269687   1.203   1.240  11.835  2.7046  1.6929 -1.9773
16066TIP3   OH269688   6.201   0.259   2.852 -0.7940  0.0686 -0.0272
16066TIP3    H169689   6.112   0.229   2.832 -0.7749  1.1134 -1.9868
16066TIP3    H269690   6.189   0.326   2.919 -1.3810 -0.3864  0.3410
16067TIP3   OH269691   2.762   6.399   0.597 -1.1063 -0.0241 -0.7680
16067TIP3    H169692   2.809   6.317   0.586 -1.2757 -0.3831  0.8561
16067TIP3    H269693   2.742   6.428   0.508  0.7510 -0.6763 -1.4407
16068TIP3   OH269694   6.506   5.548   1.683 -0.3110 -0.0332  0.2321
16068TIP3    H169695   6.570   5.611   1.715  0.1427 -0.2321 -0.2807
16068TIP3    H269696   6.433   5.555   1.745  1.1497 -1.4727  2.2300
16069TIP3   OH269697   6.685   5.367  10.489  0.5790  0.9142  0.1200
16069TIP3    H169698   6.605   5.353  10.540 -0.4028  0.6174 -1.4519
16069TIP3    H269699   6.724   5.280  10.482  0.5675  0.9099  0.1112
16070TIP3   OH269700   3.160   6.092   2.246  0.3234 -0.6972 -0.1521
16070TIP3    H169701   3.091   6.149   2.212 -0.7662 -0.3547  2.4072
16070TIP3    H269702   3.151   6.011   2.196  0.1697  0.4342 -2.0269
16071TIP3   OH269703   4.576   6.283  13.251 -0.0187 -0.5890 -0.2761
16071TIP3    H169704   4.655   6.314  13.294  0.5324 -1.5300 -0.5799
16071TIP3    H269705   4.591   6.300  13.158  0.7002 -2.5358 -0.5614
16072TIP3   OH269706   4.209   4.325   1.831 -0.7439  0.1943  0.9598
16072TIP3    H169707   4.284   4.356   1.780 -0.0171 -0.4348  1.6124
16072TIP3    H269708   4.202   4.388   1.903 -0.1536 -0.3368  1.4966
16073TIP3   OH269709   5.672   5.934   2.703 -0.5005  0.0348  0.3928
16073TIP3    H169710   5.756   5.932   2.749 -1.0201  0.5067  1.4015
16073TIP3    H269711   5.612   5.886   2.761 -1.5090  1.8814  0.9677
16074TIP3   OH269712   3.382   3.661   1.695  0.3559  0.3607  1.0124
16074TIP3    H169713   3.334   3.699   1.768  0.2988 -0.0163  1.1717
16074TIP3    H269714   3.380   3.729   1.627 -1.2137  0.0113  0.6743
16075TIP3   OH269715   5.312   0.470   3.158  0.5079 -0.2914 -0.0621
16075TIP3    H169716   5.331   0.515   3.075  1.1325 -0.2794  0.0846
16075TIP3    H269717   5.320   0.377   3.137  1.2837 -0.2696  0.1325
16076TIP3   OH269718   2.870   4.953   2.761 -0.6758 -0.0202 -0.4056
16076TIP3    H169719   2.849   4.888   2.694  0.3505 -0.5326 -0.2448
16076TIP3    H269720   2.796   4.950   2.821 -0.8182 -0.7637 -0.6118
16077TIP3   OH269721   4.713   4.307  10.661  0.1493 -0.4320  0.2382
16077TIP3    H169722   4.633   4.298  10.609 -0.4750  0.7944  0.9318
16077TIP3    H269723   4.700   4.249  10.736 -0.5065  0.4263  0.8091
16078TIP3   OH269724   6.818   2.050   4.387 -0.2852 -0.3280 -0.0828
16078TIP3    H169725   6.757   2.085   4.322  0.2329  2.9809  0.9776
16078TIP3    H269726   6.783   1.965   4.411 -2.6071  0.0236 -1.8945
16079TIP3   OH269727   3.573   3.569  10.884 -0.4647  0.1119 -0.3083
16079TIP3    H169728   3.549   3.542  10.795  0.3482  1.1191 -0.8571
16079TIP3    H269729   3.610   3.490  10.923 -2.1992 -0.7576 -0.3226
16080TIP3   OH269730   5.116   5.330  14.982  1.0465 -0.1605 -0.2947
16080TIP3    H169731   5.106   5.326  15.077  3.7392 -2.2236  0.0365
16080TIP3    H269732   5.120   5.238  14.955  1.6807  0.3844 -2.2035
16081TIP3   OH269733   6.284   0.414  12.406 -0.1985  0.0857  0.5213
16081TIP3    H169734   6.272   0.389  12.314 -0.3442 -1.6577  0.9937
16081TIP3    H269735   6.196   0.422  12.441 -0.2338  2.6250  0.1018
16082TIP3   OH269736   3.273   6.611   4.183  0.1202 -0.3906 -0.1565
16082TIP3    H169737   3.235   6.673   4.120 -0.8041 -0.0330  0.7127
16082TIP3    H269738   3.355   6.652   4.210 -1.2600  1.4027  1.6984
16083TIP3   OH269739   5.378   4.909  14.370  0.0166 -0.0908 -0.1773
16083TIP3    H169740   5.335   4.987  14.407 -0.9396  0.0589 -1.5285
16083TIP3    H269741   5.386   4.928  14.276 -0.9149 -1.9039 -0.6632
16084TIP3   OH269742   1.390   6.676  15.432 -0.8915  0.3458 -0.0698
16084TIP3    H169743   1.302   6.713  15.434 -0.6252  0.9781  0.2574
16084TIP3    H269744   1.394   6.622  15.511 -0.8263  0.7131  0.1841
16085TIP3   OH269745   0.453   5.539  12.389 -0.5931 -0.3193  0.1015
16085TIP3    H169746   0.360   5.520  12.395 -0.1805 -2.2452  1.8374
16085TIP3    H269747   0.494   5.454  12.373  0.8679  0.5328 -0.9356
16086TIP3   OH269748   1.824   0.693  16.605  0.5227  0.4796 -0.3025
16086TIP3    H169749   1.741   0.741  16.603 -0.4203 -1.0917 -2.3342
16086TIP3    H269750   1.819   0.640  16.685 -1.0200 -0.4899 -0.9954
16087TIP3   OH269751   5.548   2.744  16.435  0.7095  0.0340 -0.2302
16087TIP3    H169752   5.604   2.672  16.464  2.2043  1.1469 -0.2017
16087TIP3    H269753   5.484   2.755  16.505  1.2437 -0.4558  0.3444
16088TIP3   OH269754   0.646   5.355   4.938  0.0998  0.2099 -0.0047
16088TIP3    H169755   0.689   5.396   5.013  0.7085 -0.6044  0.0969
16088TIP3    H269756   0.717   5.316   4.887 -0.5273 -2.0365  0.6976
16089TIP3   OH269757   0.262   2.494   0.058  0.0424 -0.3923  0.1262
16089TIP3    H169758   0.193   2.471  -0.005 -0.8143  0.6346  0.6574
16089TIP3    H269759   0.216   2.507   0.140  0.8913  0.2650  0.5079
16090TIP3   OH269760   3.983   1.529  14.418  0.1207  0.2463  0.2549
16090TIP3    H169761   3.918   1.584  14.374 -0.1822 -0.6976 -0.5192
16090TIP3    H269762   4.065   1.551  14.375 -0.2212 -0.8916 -1.0490
16091TIP3   OH269763   3.587   5.391   3.996 -0.2989  0.0563 -0.1781
16091TIP3    H169764   3.520   5.323   3.986 -1.9079  1.4404  0.6757
16091TIP3    H269765   3.596   5.429   3.909  0.1488 -0.8138 -0.5231
16092TIP3   OH269766   5.049   2.459  14.863 -0.3689 -0.0454  0.0522
16092TIP3    H169767   5.048   2.554  14.860  0.3931 -0.0352 -0.1167
16092TIP3    H269768   5.106   2.433  14.790  0.5202 -0.5724  0.9047
16093TIP3   OH269769   0.588   6.032  14.781 -0.3669 -0.0700  0.3942
16093TIP3    H169770   0.538   6.080  14.716 -1.2103 -2.5594 -0.8909
16093TIP3    H269771   0.637   6.100  14.828 -0.6605  1.9128 -1.9913
16094TIP3   OH269772   6.156   4.987   6.576  0.4720  0.2639 -0.0217
16094TIP3    H169773   6.157   5.077   6.609 -0.3415  0.8120 -1.4239
16094TIP3    H269774   6.234   4.979   6.522  0.3466  0.2380 -0.1994
16095TIP3   OH269775   5.971   1.289  16.583 -0.0052  0.3223  0.2693
16095TIP3    H169776   6.049   1.265  16.534 -0.5599 -0.7851 -0.0981
16095TIP3    H269777   6.004   1.314  16.669  0.9760  2.2187 -0.5779
16096TIP3   OH269778   1.469   0.238  11.510  0.2519  0.0205 -0.4973
16096TIP3    H169779   1.440   0.162  11.561 -0.2526 -0.3999 -1.3791
16096TIP3    H269780   1.407   0.308  11.534  1.1884  0.4033  0.9024
16097TIP3   OH269781   4.459   2.733   5.105 -0.1554 -0.5753  0.1413
16097TIP3    H169782   4.491   2.755   5.192 -0.3840  0.9257 -0.1191
16097TIP3    H269783   4.524   2.770   5.045 -0.5875 -0.5816 -0.3380
16098TIP3   OH269784   2.905   6.287  17.187  1.0199 -0.2438 -0.3861
16098TIP3    H169785   2.909   6.271  17.282  2.2258  0.3982 -0.3072
16098TIP3    H269786   2.814   6.271  17.164  0.8725 -1.2016  0.7439
16099TIP3   OH269787   2.352   1.109  12.760  0.3881  0.1698 -0.6352
16099TIP3    H169788   2.299   1.179  12.798 -0.6418 -0.7087 -0.3691
16099TIP3    H269789   2.438   1.118  12.800  0.1757  1.0916 -0.3790
16100TIP3   OH269790   0.367   3.466   2.732 -0.0733 -0.4240  0.4773
16100TIP3    H169791   0.394   3.514   2.811 -0.4533  2.4822 -0.9938
16100TIP3    H269792   0.288   3.420   2.758  0.7984 -1.0307  2.2302
16101TIP3   OH269793   5.214   0.780  11.292 -0.0361  0.2209  0.2760
16101TIP3    H169794   5.130   0.822  11.274 -0.7770 -1.3247 -0.0313
16101TIP3    H269795   5.234   0.805  11.383 -1.5619 -0.5696  0.8500
16102TIP3   OH269796   5.511   3.954  15.308 -0.7685 -0.0886 -0.1421
16102TIP3    H169797   5.600   3.985  15.291 -1.5166  1.1602 -1.9853
16102TIP3    H269798   5.523   3.881  15.369  1.5907 -0.4931 -0.9879
16103TIP3   OH269799   3.583   3.266   4.741 -0.2236 -0.1228  0.0859
16103TIP3    H169800   3.623   3.347   4.774  0.0000  0.0256 -0.5293
16103TIP3    H269801   3.515   3.245   4.805  0.8685 -0.4093  1.1705
16104TIP3   OH269802   3.779   4.736   1.063 -0.3458 -0.5024 -1.1005
16104TIP3    H169803   3.833   4.762   0.989 -0.0547  0.5492 -0.5404
16104TIP3    H269804   3.702   4.792   1.058  0.0518  0.1581 -0.1622
16105TIP3   OH269805   4.741   6.465   6.165  0.3500  0.1361 -0.3156
16105TIP3    H169806   4.678   6.403   6.201 -1.6975  0.9997 -2.2097
16105TIP3    H269807   4.729   6.544   6.217  1.4425 -0.3286  0.6975
16106TIP3   OH269808   3.729   3.222  16.784  0.1471  0.4219 -0.1654
16106TIP3    H169809   3.671   3.231  16.709  2.1854  2.9912 -1.5988
16106TIP3    H269810   3.799   3.164  16.754  0.3999  0.5573  0.1487
16107TIP3   OH269811   6.661   0.990  11.103 -0.0444 -0.1720  0.0816
16107TIP3    H169812   6.584   1.015  11.052  1.2934  0.7272 -1.5595
16107TIP3    H269813   6.651   1.038  11.186 -1.8863 -1.1130  0.4565
16108TIP3   OH269814   5.899   6.451   4.154  0.1097 -0.6640 -0.3196
16108TIP3    H169815   5.871   6.389   4.087  1.2014 -1.1085 -0.3884
16108TIP3    H269816   5.867   6.536   4.123 -0.0914 -0.9778 -0.9985
16109TIP3   OH269817   0.063   5.226   1.030  0.2627  0.0610 -0.0103
16109TIP3    H169818   0.088   5.189   1.115 -3.5968 -4.2018 -0.3905
16109TIP3    H269819  -0.006   5.288   1.051  0.3645  0.1613  0.0336
16110TIP3   OH269820   2.403   1.596   2.383 -0.5498 -0.3140  0.0822
16110TIP3    H169821   2.492   1.629   2.369  0.0344 -2.2548 -1.3223
16110TIP3    H269822   2.365   1.591   2.296 -2.8967  2.4433  0.8037
16111TIP3   OH269823   5.973   3.053   4.442  0.7332  0.5691  0.3313
16111TIP3    H169824   5.992   2.960   4.426 -1.9183 -0.6934  3.2702
16111TIP3    H269825   6.056   3.090   4.471  1.8302 -0.8810 -0.7758
16112TIP3   OH269826   5.761   6.364  11.289 -0.1004 -0.1591 -0.0412
16112TIP3    H169827   5.669   6.361  11.317 -0.2369 -0.5087 -0.5163
16112TIP3    H269828   5.756   6.375  11.194  0.3416  2.4017  0.1543
16113TIP3   OH269829   3.817   6.783   0.873 -0.0216  0.5689  0.1187
16113TIP3    H169830   3.880   6.826   0.930  0.6185 -0.3219  0.1003
16113TIP3    H269831   3.867   6.761   0.795 -0.7021  1.0767 -0.4772
16114TIP3   OH269832   2.817   2.694   5.355 -0.2961 -0.5849  0.1466
16114TIP3    H169833   2.760   2.694   5.278 -0.6782 -0.1272  0.4214
16114TIP3    H269834   2.819   2.786   5.383  1.5006 -0.3929 -0.5272
16115TIP3   OH269835   5.357   2.387   1.374  0.4045 -0.3928 -0.1992
16115TIP3    H169836   5.337   2.455   1.438  2.7505  0.2142 -0.0274
16115TIP3    H269837   5.403   2.320   1.425 -0.2309 -1.2611 -0.7374
16116TIP3   OH269838   2.525   1.023   0.982 -0.3044  0.5258 -0.2815
16116TIP3    H169839   2.526   0.927   0.982  0.6303  0.5286  0.3379
16116TIP3    H269840   2.481   1.046   0.900  0.3906 -0.4322 -0.9417
16117TIP3   OH269841   2.912   2.957   2.727 -0.4665 -0.4825 -0.1161
16117TIP3    H169842   2.990   2.993   2.769 -1.0343 -0.7906  1.2561
16117TIP3    H269843   2.890   2.880   2.779 -1.1363 -0.9591 -1.0687
16118TIP3   OH269844   1.670   1.288   4.959 -0.4985  0.2476  0.0644
16118TIP3    H169845   1.654   1.194   4.970 -0.0410  0.2376  0.6768
16118TIP3    H269846   1.722   1.313   5.035  0.3085  0.7827 -0.6429
16119TIP3   OH269847   6.339   3.170   2.323 -0.1310  0.0823 -0.0069
16119TIP3    H169848   6.404   3.221   2.372  2.2816 -2.9008  0.2257
16119TIP3    H269849   6.265   3.161   2.384 -0.7534  3.1858 -0.1058
16120TIP3   OH269850   0.413   0.752  11.739  0.5361 -0.0869 -0.4517
16120TIP3    H169851   0.365   0.695  11.799 -0.7281  0.6994 -0.6879
16120TIP3    H269852   0.374   0.839  11.751  1.4003  0.4303 -1.2011
16121TIP3   OH269853   5.630   4.675   0.260  0.0125  0.5211 -0.3122
16121TIP3    H169854   5.724   4.689   0.248  0.2280  0.6842  1.3880
16121TIP3    H269855   5.624   4.610   0.330 -1.1477 -0.4154 -1.2161
16122TIP3   OH269856   6.205   3.418  10.997  0.3400  0.2979 -0.3828
16122TIP3    H169857   6.141   3.358  10.959  0.2564  0.7482 -0.9531
16122TIP3    H269858   6.184   3.418  11.091 -1.1994  1.2629 -0.6837
16123TIP3   OH269859   5.903   1.273   5.316 -0.4017 -0.4444 -0.3082
16123TIP3    H169860   5.967   1.293   5.247  1.4670 -0.4171  1.3583
16123TIP3    H269861   5.877   1.182   5.299 -0.9735 -0.0499 -1.7631
16124TIP3   OH269862   5.564   0.965   3.398 -0.0833  0.2369 -0.6504
16124TIP3    H169863   5.475   0.944   3.370 -1.0804  0.5339  1.9623
16124TIP3    H269864   5.564   1.059   3.411 -0.3579 -0.0639  2.0936
16125TIP3   OH269865   0.325   0.646  16.576  1.1610 -0.2609 -0.7925
16125TIP3    H169866   0.267   0.615  16.646  1.2677 -1.0380 -1.0434
16125TIP3    H269867   0.396   0.691  16.623 -1.1144  3.4859 -0.5372
16126TIP3   OH269868   4.769   2.529  16.071 -0.1911 -0.0643  0.3177
16126TIP3    H169869   4.836   2.579  16.026 -0.4949  0.0675  0.0042
16126TIP3    H269870   4.788   2.541  16.164 -0.3017  0.6898  0.2467
16127TIP3   OH269871   0.548   1.748  17.149 -0.0846 -0.1708 -0.0807
16127TIP3    H169872   0.513   1.709  17.229  2.1291 -0.2410  0.9269
16127TIP3    H269873   0.576   1.674  17.096 -1.9068 -0.1442 -1.1688
16128TIP3   OH269874   2.283   2.983   1.931 -0.5837 -0.0272 -0.2486
16128TIP3    H169875   2.238   2.921   1.873 -1.1479  1.1340 -1.0895
16128TIP3    H269876   2.281   2.941   2.017 -1.8057 -0.7437 -0.6032
16129TIP3   OH269877   2.500   5.236   2.478  0.0573 -0.0126  0.3499
16129TIP3    H169878   2.509   5.218   2.571  0.7040 -0.4681  0.2038
16129TIP3    H269879   2.466   5.154   2.440 -2.2281  0.7975  0.4699
16130TIP3   OH269880   6.490   3.267   3.014  0.0816 -0.2963 -0.1480
16130TIP3    H169881   6.407   3.300   3.046  0.5720 -0.2659  1.1580
16130TIP3    H269882   6.525   3.215   3.087  1.2352 -0.2338 -0.6340
16131TIP3   OH269883   1.258   0.884   2.849 -0.2332  0.4735  0.1782
16131TIP3    H169884   1.255   0.970   2.808  1.9172  0.0749 -0.9953
16131TIP3    H269885   1.349   0.855   2.836 -1.0765 -2.2877 -0.1468
16132TIP3   OH269886   2.535   2.679   3.554 -0.0561 -0.8114  0.4890
16132TIP3    H169887   2.487   2.599   3.532 -0.3521 -1.1520  2.2030
16132TIP3    H269888   2.529   2.684   3.650 -0.6568  1.6447  0.3811
16133TIP3   OH269889   1.423   3.822  12.199 -0.1752 -0.7923 -0.1889
16133TIP3    H169890   1.491   3.756  12.212 -0.1517 -0.9550 -1.0915
16133TIP3    H269891   1.370   3.788  12.127  0.7307  0.8770 -1.7073
16134TIP3   OH269892   1.844   1.036   3.908  0.2653 -0.2764 -0.5748
16134TIP3    H169893   1.871   0.981   3.982  0.0062  0.9351  0.4579
16134TIP3    H269894   1.820   1.120   3.948  0.1565  0.4268 -2.0487
16135TIP3   OH269895   4.647   6.166  14.547 -0.3813 -1.0062 -0.2328
16135TIP3    H169896   4.727   6.114  14.559 -0.5432 -1.1596  0.1916
16135TIP3    H269897   4.646   6.187  14.453  1.6089  1.4029  0.1980
16136TIP3   OH269898   0.876   4.282   4.660  0.6017  0.7973  0.4441
16136TIP3    H169899   0.810   4.220   4.629  1.0213  1.3476 -1.7759
16136TIP3    H269900   0.951   4.228   4.685  1.1455  0.3437 -1.9249
16137TIP3   OH269901   2.960   5.814   1.831  0.1269 -0.3265  0.2182
16137TIP3    H169902   2.957   5.903   1.866  1.0821 -0.1858 -0.0228
16137TIP3    H269903   2.869   5.784   1.832 -0.6324  1.5825 -2.0320
16138TIP3   OH269904   3.223   6.042  15.665  0.4207  0.0969  0.2003
16138TIP3    H169905   3.273   6.055  15.585  0.2031  0.1697  0.0740
16138TIP3    H269906   3.151   6.105  15.659  0.4628  0.1764  0.5030
16139TIP3   OH269907   1.775   5.101   4.783  0.1365 -0.0536  0.3491
16139TIP3    H169908   1.706   5.156   4.821  2.6193  1.6734  2.7420
16139TIP3    H269909   1.760   5.015   4.823 -0.4606  0.3671  1.0748
16140TIP3   OH269910   3.306   1.698   3.842  0.4140 -0.1453 -0.2364
16140TIP3    H169911   3.401   1.696   3.848  0.5142 -0.4078 -1.4784
16140TIP3    H269912   3.284   1.789   3.824  0.3211  0.1447  1.2852
16141TIP3   OH269913   2.599   0.320   1.747 -0.6966  0.0391 -0.3648
16141TIP3    H169914   2.514   0.362   1.758 -0.2074  0.8651  0.2888
16141TIP3    H269915   2.591   0.237   1.794 -0.6204  0.8389  1.1090
16142TIP3   OH269916   5.257   0.432   0.948  0.4679 -0.4630  0.5606
16142TIP3    H169917   5.180   0.415   0.894  0.1273  0.8248  0.6128
16142TIP3    H269918   5.315   0.357   0.932 -0.1409 -0.6946 -0.6475
16143TIP3   OH269919   0.265   6.669   0.780 -0.4129  0.2667 -0.3946
16143TIP3    H169920   0.182   6.630   0.807 -0.7371  0.4175 -1.1471
16143TIP3    H269921   0.283   6.737   0.846 -1.3166  0.8071 -0.6851
16144TIP3   OH269922   1.028   5.105   1.586 -0.2212 -0.6685  0.0509
16144TIP3    H169923   1.036   5.011   1.571  0.8988 -0.3569 -1.5384
16144TIP3    H269924   1.059   5.145   1.505 -0.2581  1.0821  0.8612
16145TIP3   OH269925   0.111   4.093  12.766  0.6686 -0.1824  0.1377
16145TIP3    H169926   0.193   4.111  12.720  0.3560  1.1884  0.0595
16145TIP3    H269927   0.120   4.138  12.850  1.1036 -2.3879  1.3269
16146TIP3   OH269928   2.680   3.102   2.941  0.4396 -0.3573 -0.1441
16146TIP3    H169929   2.671   3.121   2.848 -0.1241 -1.4872 -0.3344
16146TIP3    H269930   2.612   3.037   2.959  0.5833 -0.2008  1.0414
16147TIP3   OH269931   3.236   5.508  14.705  0.2539  0.5919 -0.3064
16147TIP3    H169932   3.221   5.415  14.690  1.3762  0.1585  1.0683
16147TIP3    H269933   3.152   5.549  14.686 -0.4708 -0.7836 -0.1932
16148TIP3   OH269934   5.266   0.093  12.797  0.5705 -0.6621 -0.0774
16148TIP3    H169935   5.176   0.118  12.774  0.4627 -1.4653 -0.5599
16148TIP3    H269936   5.321   0.141  12.734  0.3610 -1.6464 -1.0435
16149TIP3   OH269937   6.240   3.422   5.957  0.1494  0.3049 -0.2333
16149TIP3    H169938   6.216   3.403   5.867  0.6068 -1.6733  0.0223
16149TIP3    H269939   6.209   3.347   6.007 -0.8597  1.7366  1.4186
16150TIP3   OH269940   5.503   6.485  13.703 -0.1010  0.1554  0.3202
16150TIP3    H169941   5.456   6.568  13.700 -1.3254 -0.5104  0.2555
16150TIP3    H269942   5.486   6.451  13.792  2.4233  1.0736  1.2421
16151TIP3   OH269943   3.192   4.304  17.117  0.1794 -0.2845 -0.1507
16151TIP3    H169944   3.200   4.399  17.107  2.9767 -0.0366  2.5578
16151TIP3    H269945   3.241   4.268  17.043  0.7687  0.4687 -0.1412
16152TIP3   OH269946   2.726   0.026  12.113  0.1236  0.0043  0.0389
16152TIP3    H169947   2.694   0.108  12.153 -0.5857  0.3740 -1.2422
16152TIP3    H269948   2.695  -0.043  12.172 -0.7593  0.5478  0.2238
16153TIP3   OH269949   1.971   5.621   0.971 -0.1244 -0.6507 -0.1703
16153TIP3    H169950   2.009   5.706   0.950 -0.4402 -0.7887 -1.3977
16153TIP3    H269951   2.039   5.576   1.022 -1.0251  1.3619  3.1327
16154TIP3   OH269952   1.141   3.473   4.954 -0.1476 -0.0289  0.4039
16154TIP3    H169953   1.118   3.543   5.014 -0.4610 -0.0439  0.2998
16154TIP3    H269954   1.235   3.458   4.970 -0.5903 -1.2311  2.1545
16155TIP3   OH269955   3.361   0.374   1.894  0.2839  0.2485  0.5031
16155TIP3    H169956   3.266   0.361   1.891  0.1866  0.6583  1.3237
16155TIP3    H269957   3.393   0.302   1.947  0.5914 -0.5838 -0.7762
16156TIP3   OH269958   3.193   2.305  14.536 -0.0576 -0.1416  0.2088
16156TIP3    H169959   3.103   2.325  14.563 -0.7210 -1.2913 -1.0285
16156TIP3    H269960   3.230   2.258  14.611 -0.4815  0.3407  0.7331
16157TIP3   OH269961   5.898   1.506   3.296 -0.0555 -0.1502 -0.5382
16157TIP3    H169962   5.974   1.456   3.325  0.3645  1.3413  1.0771
16157TIP3    H269963   5.933   1.593   3.278 -1.4144  0.6597  0.5778
16158TIP3   OH269964   6.593   5.881   4.840  0.1403  0.6355 -0.1630
16158TIP3    H169965   6.666   5.877   4.901 -0.1180  0.6824  0.1531
16158TIP3    H269966   6.580   5.975   4.823  0.7931  0.5823 -1.0015
16159TIP3   OH269967   4.421   5.450   3.340  0.3644  0.6782  0.4249
16159TIP3    H169968   4.341   5.416   3.300  0.6058 -0.1552  0.6121
16159TIP3    H269969   4.456   5.513   3.277 -1.5513  2.7123  1.2627
16160TIP3   OH269970   3.735   4.589   0.397  0.7866  0.2722  0.4867
16160TIP3    H169971   3.702   4.519   0.341  1.9825  0.1929 -0.1669
16160TIP3    H269972   3.702   4.669   0.357 -0.7662  0.0955  1.3634
16161TIP3   OH269973   5.240   1.633  15.843  0.3835  0.1019 -0.2359
16161TIP3    H169974   5.322   1.649  15.891  0.7353  1.2272 -1.1588
16161TIP3    H269975   5.198   1.719  15.838 -1.4901 -0.6612  1.2770
16162TIP3   OH269976   0.539   4.443   5.259  0.0083  0.0569  0.0181
16162TIP3    H169977   0.485   4.515   5.293 -0.1011 -0.1917  0.3701
16162TIP3    H269978   0.514   4.368   5.312  1.4670  0.1759  0.9070
16163TIP3   OH269979   2.719   4.035   6.098 -0.4534  0.2287  0.0075
16163TIP3    H169980   2.708   4.129   6.108 -4.7675 -0.0045 -0.7317
16163TIP3    H269981   2.631   3.999   6.108  0.6200 -3.5034 -1.9658
16164TIP3   OH269982   1.755   0.711   5.917 -0.4814  0.2490 -0.3676
16164TIP3    H169983   1.689   0.730   5.984 -0.3102 -1.0529  0.1961
16164TIP3    H269984   1.710   0.656   5.854 -0.6664  1.5414 -1.4080
16165TIP3   OH269985   4.659   6.235  12.091 -0.1380 -0.5731 -0.2243
16165TIP3    H169986   4.651   6.151  12.047  0.1468 -0.4779 -0.4639
16165TIP3    H269987   4.732   6.224  12.153  2.1746  0.4406 -2.5510
16166TIP3   OH269988   3.803   2.979  15.734 -0.1167  0.0657 -0.5473
16166TIP3    H169989   3.741   2.973  15.662  0.0536  0.4170 -0.7258
16166TIP3    H269990   3.752   2.957  15.812 -0.0849 -1.2235 -0.8763
16167TIP3   OH269991   3.428   5.186  15.358 -0.0649  0.1617  0.0091
16167TIP3    H169992   3.492   5.249  15.325 -0.9614  0.0759 -2.0403
16167TIP3    H269993   3.343   5.231  15.349 -0.5313 -0.6362  0.3308
16168TIP3   OH269994   1.601   3.452   1.207  0.0510 -0.3269  0.5852
16168TIP3    H169995   1.566   3.492   1.127 -1.2657 -0.4518  1.0804
16168TIP3    H269996   1.526   3.443   1.264  0.8785 -0.7768  1.6339
16169TIP3   OH269997   1.412   0.282  16.035  0.2148 -0.7577  0.2074
16169TIP3    H169998   1.432   0.241  16.119 -3.6542 -0.7657  1.3153
16169TIP3    H269999   1.396   0.208  15.976  0.6092 -0.7704  0.1158
16170TIP3   OH270000   4.260   0.766  13.289  0.4566 -0.4630  0.3503
16170TIP3    H170001   4.336   0.796  13.338  0.5690 -0.2208  0.0287
16170TIP3    H270002   4.194   0.834  13.301  0.1946 -0.7989  0.8494
16171TIP3   OH270003   5.180   0.008   5.594 -0.3398 -0.6723  0.0573
16171TIP3    H170004   5.269  -0.025   5.582 -0.2930 -0.3858 -0.3782
16171TIP3    H270005   5.125  -0.070   5.594 -0.4984 -0.6804 -3.1656
16172TIP3   OH270006   0.502   3.566   1.200 -0.4611 -0.3615 -0.2159
16172TIP3    H170007   0.575   3.600   1.253 -1.0556  1.6186 -0.6116
16172TIP3    H270008   0.535   3.483   1.166  1.6102  0.4376 -0.3234
16173TIP3   OH270009   3.595   3.970  16.056 -0.1288  0.5513  0.1208
16173TIP3    H170010   3.642   3.906  16.003  0.2940 -0.5546  1.7714
16173TIP3    H270011   3.531   4.008  15.996 -0.1793 -1.1893 -0.9805
16174TIP3   OH270012   6.536   6.106  15.038  0.5375 -0.2229 -0.2207
16174TIP3    H170013   6.502   6.109  14.948  1.3206  2.0510 -0.5049
16174TIP3    H270014   6.588   6.186  15.047 -0.3296  0.1384  2.5843
16175TIP3   OH270015   0.948   6.800   5.799  0.4104  0.3412  0.0383
16175TIP3    H170016   1.031   6.845   5.812  0.9891 -0.8107  0.5009
16175TIP3    H270017   0.939   6.742   5.875 -1.3458  1.1960  0.5450
16176TIP3   OH270018   2.517   2.922  12.208 -0.1067  0.0972  0.1403
16176TIP3    H170019   2.606   2.947  12.183  0.1676 -1.1100 -0.2002
16176TIP3    H270020   2.476   2.897  12.125  0.3108 -2.4679  0.6217
16177TIP3   OH270021   1.103   0.934  11.860 -0.2669  0.6844  0.0552
16177TIP3    H170022   1.047   0.862  11.889  1.4107 -0.7114  0.0568
16177TIP3    H270023   1.082   0.946  11.768  0.7999 -1.2359 -0.4933
16178TIP3   OH270024   5.965   3.724  16.507 -0.0267  0.1833 -0.0481
16178TIP3    H170025   5.976   3.636  16.542  0.8237  0.0052 -0.7341
16178TIP3    H270026   5.871   3.731  16.489  0.0500 -0.9604 -0.9629
16179TIP3   OH270027   2.916   0.463  10.870  0.0898  0.7752  0.1915
16179TIP3    H170028   2.824   0.439  10.880  0.7328 -1.2217  1.9609
16179TIP3    H270029   2.923   0.551  10.909 -1.5787  2.4359 -2.8694
16180TIP3   OH270030   1.465   2.092   0.054  0.1431 -0.4890 -0.6801
16180TIP3    H170031   1.424   2.068  -0.030 -0.7215 -0.6899 -0.2150
16180TIP3    H270032   1.469   2.009   0.102 -1.3995 -0.0217  0.3252
16181TIP3   OH270033   2.328   5.891   4.075  0.3126  0.1135  0.0482
16181TIP3    H170034   2.236   5.904   4.096 -0.0977 -1.1482 -0.8112
16181TIP3    H270035   2.365   5.979   4.067 -0.7202  0.6211  0.7812
16182TIP3   OH270036   0.320   5.515  15.292  0.1451  0.0585  0.6009
16182TIP3    H170037   0.277   5.463  15.360 -0.1519  0.9772  1.1276
16182TIP3    H270038   0.413   5.511  15.312  0.0453  0.4432  1.1528
16183TIP3   OH270039   5.882   4.692  13.270  0.3339 -0.2734 -0.0475
16183TIP3    H170040   5.947   4.680  13.339  0.1480  1.0740  0.3891
16183TIP3    H270041   5.920   4.757  13.212 -0.6811  0.6774  0.3197
16184TIP3   OH270042   6.093   5.092   4.309  0.8293 -0.6924 -0.0263
16184TIP3    H170043   6.181   5.112   4.276  0.5856 -1.6106 -1.2890
16184TIP3    H270044   6.079   5.157   4.378  1.7312  0.7047 -1.0962
16185TIP3   OH270045   2.786   4.774  12.896 -0.5176  0.3031 -0.2225
16185TIP3    H170046   2.752   4.842  12.954 -1.0473  0.9103 -1.2123
16185TIP3    H270047   2.709   4.725  12.868 -0.1866 -0.4340  0.1244
16186TIP3   OH270048   5.466   2.848   5.791  0.2691 -0.2103  0.0857
16186TIP3    H170049   5.449   2.936   5.756  0.4253  0.9742  2.7806
16186TIP3    H270050   5.421   2.846   5.875  1.6271 -2.1174  0.8468
16187TIP3   OH270051   2.945   1.065  14.177  0.3152  0.1186 -0.2162
16187TIP3    H170052   2.853   1.086  14.161 -0.0988 -2.1919 -1.4329
16187TIP3    H270053   2.988   1.082  14.094  0.8661  0.6220  0.1709
16188TIP3   OH270054   3.938   4.167  16.875 -0.6881 -0.3266 -0.4156
16188TIP3    H170055   4.013   4.225  16.885  0.2210 -1.4726 -0.3918
16188TIP3    H270056   3.934   4.118  16.957 -1.0356 -0.7668 -0.6893
16189TIP3   OH270057   6.609   5.780   3.069 -0.2447 -0.4385 -0.2707
16189TIP3    H170058   6.647   5.833   2.999 -0.8261 -0.7797 -0.8472
16189TIP3    H270059   6.545   5.724   3.026 -1.4080  0.1125  0.6850
16190TIP3   OH270060   2.163   1.379  11.891  0.0015  0.4024 -0.2286
16190TIP3    H170061   2.180   1.468  11.858 -0.8041  1.6148  2.3963
16190TIP3    H270062   2.229   1.366  11.959  0.7435 -1.4712 -1.2461
16191TIP3   OH270063   5.704   5.935   6.449 -1.1288 -0.4193  0.1897
16191TIP3    H170064   5.682   6.020   6.413 -3.4495 -1.2054 -0.4259
16191TIP3    H270065   5.655   5.930   6.531 -0.9272 -1.1109  0.2779
16192TIP3   OH270066   0.507   4.049   3.310 -0.0910 -0.5324  0.1014
16192TIP3    H170067   0.471   4.049   3.221  1.0796  0.4505 -0.3967
16192TIP3    H270068   0.432   4.027   3.366 -1.2439  0.4611 -0.9804
16193TIP3   OH270069   5.436   2.812  11.089 -0.2526 -0.6930  0.0366
16193TIP3    H170070   5.410   2.843  11.003  0.6195  1.1531  0.3738
16193TIP3    H270071   5.431   2.717  11.084  0.6516 -0.6698 -2.3288
16194TIP3   OH270072   5.582   1.576   2.424  0.3076  0.2069  0.6422
16194TIP3    H170073   5.502   1.560   2.474 -1.8483  0.5973 -2.3517
16194TIP3    H270074   5.558   1.554   2.334  2.7086  2.9516 -0.8478
16195TIP3   OH270075   6.676   1.905  13.423  0.4817  0.2790 -0.3995
16195TIP3    H170076   6.645   1.877  13.509  1.2866 -1.2019 -0.5676
16195TIP3    H270077   6.761   1.946  13.441 -0.2353  1.7884 -0.2795
16196TIP3   OH270078   4.281   6.733   4.504 -0.0332 -0.1269  0.2112
16196TIP3    H170079   4.246   6.818   4.531  0.9348 -0.1846  1.7582
16196TIP3    H270080   4.372   6.734   4.534 -0.2557 -2.0354  1.0686
16197TIP3   OH270081   4.054   1.656  15.766 -0.0564  0.4600  0.2494
16197TIP3    H170082   4.042   1.616  15.680 -2.0642 -0.0412  0.7107
16197TIP3    H270083   4.066   1.749  15.748 -2.3570  0.6677 -0.5345
16198TIP3   OH270084   3.524   2.179   3.505  0.3702  0.4335  0.1577
16198TIP3    H170085   3.490   2.222   3.584  0.8077  0.6172  0.2525
16198TIP3    H270086   3.451   2.179   3.444 -0.0878 -0.0559  0.7037
16199TIP3   OH270087   5.293   5.071   2.039 -1.4251  0.1621  0.0504
16199TIP3    H170088   5.278   5.003   1.974  1.3341 -2.1875  1.6507
16199TIP3    H270089   5.270   5.030   2.122  0.9194  0.8649  1.1340
16200TIP3   OH270090   6.572   0.683  14.257  0.5948 -0.5186  0.0726
16200TIP3    H170091   6.556   0.749  14.324 -0.7840 -0.5684 -0.1796
16200TIP3    H270092   6.484   0.652  14.233  1.2171 -3.1329  0.8807
16201TIP3   OH270093   1.501   0.232   0.826  0.5415  0.3441  0.3268
16201TIP3    H170094   1.585   0.274   0.847  0.9047 -0.8289  1.3185
16201TIP3    H270095   1.474   0.191   0.908 -1.0283  0.7220  0.0224
16202TIP3   OH270096   2.613   3.164  13.540 -0.3501 -0.2637  0.1908
16202TIP3    H170097   2.534   3.174  13.486 -0.6420 -3.1449 -0.1080
16202TIP3    H270098   2.590   3.203  13.624 -1.9715 -0.6124 -0.0435
16203TIP3   OH270099   5.422   4.233  15.247 -0.0919 -0.4048  0.2007
16203TIP3    H170100   5.442   4.140  15.260  0.6494 -0.0538  1.8091
16203TIP3    H270101   5.508   4.275  15.241 -0.4122  0.3191  0.5798
16204TIP3   OH270102   0.595   5.732  16.578  0.4886 -0.1784 -0.4046
16204TIP3    H170103   0.578   5.742  16.672 -1.1569 -1.2189 -0.5493
16204TIP3    H270104   0.690   5.720  16.572  0.4119 -2.3154  1.3702
16205TIP3   OH270105   0.597   1.784   5.561 -0.2892  0.0668 -0.0985
16205TIP3    H170106   0.502   1.768   5.562 -0.0278 -2.2379 -2.3024
16205TIP3    H270107   0.617   1.802   5.470  1.4402  0.4683  0.3288
16206TIP3   OH270108   1.698   3.359   0.476  0.3122 -0.4839 -0.6477
16206TIP3    H170109   1.669   3.405   0.397  0.4144 -1.6816 -1.3998
16206TIP3    H270110   1.768   3.414   0.511 -0.1038  0.3347 -1.0786
16207TIP3   OH270111   0.125   0.746  15.525 -0.3027  0.0561 -0.1401
16207TIP3    H170112   0.131   0.832  15.482 -1.8865 -0.1927 -0.9367
16207TIP3    H270113   0.044   0.708  15.491 -0.2699 -1.2485  1.1490
16208TIP3   OH270114   3.613   2.559  13.505  0.0981 -0.5191 -0.3636
16208TIP3    H170115   3.652   2.624  13.563 -1.2544 -0.3699  0.4262
16208TIP3    H270116   3.534   2.601  13.471  0.0095 -1.2067 -1.0366
16209TIP3   OH270117   5.892   0.176  11.458  0.4880 -0.2230 -0.2880
16209TIP3    H170118   5.923   0.238  11.524  2.2220 -1.8361  0.4979
16209TIP3    H270119   5.816   0.219  11.419 -1.0767  0.5716  3.1886
16210TIP3   OH270120   3.403   5.113  16.896 -0.4478 -0.2782  0.4674
16210TIP3    H170121   3.492   5.148  16.908 -0.2925 -0.8657  1.1404
16210TIP3    H270122   3.401   5.035  16.953 -1.1130 -0.7673 -0.2179
16211TIP3   OH270123   0.638   6.824  11.966  0.4958  0.2074 -0.0875
16211TIP3    H170124   0.677   6.743  11.932 -0.8391  0.1576 -1.6008
16211TIP3    H270125   0.667   6.828  12.057  0.4205 -2.0725  0.0838
16212TIP3   OH270126   2.010   2.387  11.559 -0.0730 -0.8204 -1.1270
16212TIP3    H170127   2.083   2.407  11.617 -0.6553  0.6742 -0.8698
16212TIP3    H270128   1.967   2.471  11.544 -3.4653 -1.9869  1.0416
16213TIP3   OH270129   0.057   3.046   5.629  0.2629 -0.1114  0.0952
16213TIP3    H170130   0.079   3.012   5.716 -2.7944 -0.0145  1.0176
16213TIP3    H270131   0.094   3.134   5.628 -1.7141  0.8860  2.4090
16214TIP3   OH270132   3.778   2.571  15.494  0.0600  0.1778 -0.3205
16214TIP3    H170133   3.689   2.599  15.514 -0.9428 -3.1761  0.6107
16214TIP3    H270134   3.804   2.518  15.569  2.7935  0.8587 -0.6757
16215TIP3   OH270135   6.359   3.692  13.323  0.3390 -0.1209 -0.3766
16215TIP3    H170136   6.374   3.767  13.381 -0.0623 -0.9435  0.8353
16215TIP3    H270137   6.263   3.685  13.318  0.3685 -0.0271 -1.2042
16216TIP3   OH270138   3.848   2.283  12.926  0.1231 -0.1065  0.9030
16216TIP3    H170139   3.937   2.260  12.951 -0.0513 -0.5220  1.1530
16216TIP3    H270140   3.855   2.372  12.891  0.6136 -0.0924  1.0311
16217TIP3   OH270141   6.840   3.107  16.689  0.8289  0.0075  0.2574
16217TIP3    H170142   6.888   3.114  16.771  1.5913  0.5454 -0.2162
16217TIP3    H270143   6.789   3.188  16.684  1.9698  0.7335 -0.4932
16218TIP3   OH270144   3.190   5.176   3.521 -0.4493 -0.4654  0.1251
16218TIP3    H170145   3.206   5.152   3.612 -1.3522  0.9581  0.6908
16218TIP3    H270146   3.276   5.170   3.479  0.0160 -0.9076  1.1226
16219TIP3   OH270147   4.678   3.370  17.142  0.0018 -0.1747 -0.9925
16219TIP3    H170148   4.672   3.405  17.231 -3.2241 -1.9450 -0.3842
16219TIP3    H270149   4.748   3.306  17.147  0.3384  0.2446  0.0659
16220TIP3   OH270150   0.166   0.998   5.414  0.3838  0.5065  0.2020
16220TIP3    H170151   0.083   0.958   5.388  0.3477  0.0454  1.0127
16220TIP3    H270152   0.161   1.088   5.380  0.7402 -0.3223 -2.2338
16221TIP3   OH270153   2.203   6.702  11.969  0.2729 -0.2743 -0.0419
16221TIP3    H170154   2.269   6.646  11.930 -0.4060 -0.0128 -1.6529
16221TIP3    H270155   2.249   6.784  11.988  1.3863 -1.4430  2.7692
16222TIP3   OH270156   1.846   0.912   2.740  0.0853 -0.2716  0.8716
16222TIP3    H170157   1.818   0.833   2.693 -3.2258  0.7391  0.8876
16222TIP3    H270158   1.845   0.886   2.833  1.3876 -0.8101  0.7571
16223TIP3   OH270159   0.333   6.180   0.170 -0.1745  0.4149 -0.0855
16223TIP3    H170160   0.419   6.154   0.138 -0.1029  0.7828 -0.1963
16223TIP3    H270161   0.316   6.264   0.127 -1.0119 -0.1099 -0.8431
16224TIP3   OH270162   4.499   3.478  15.724 -0.4393  0.1817  0.0667
16224TIP3    H170163   4.411   3.515  15.717 -0.9080 -0.0362  3.2971
16224TIP3    H270164   4.484   3.383  15.728  0.0798  0.0700 -0.5195
16225TIP3   OH270165   5.530   5.847  13.065  0.4345 -0.4654  0.6524
16225TIP3    H170166   5.452   5.792  13.074 -0.0510 -0.0283 -0.5745
16225TIP3    H270167   5.578   5.835  13.147 -1.3071 -0.1467  1.7791
16226TIP3   OH270168   5.723   2.590  15.472 -0.1148  0.2266 -0.1369
16226TIP3    H170169   5.686   2.556  15.553 -0.4126  3.5980  1.3177
16226TIP3    H270170   5.815   2.562  15.474 -0.8901 -2.6216 -0.4735
16227TIP3   OH270171   1.150   1.640   3.830  0.4302 -0.0842  0.4576
16227TIP3    H170172   1.112   1.716   3.785  0.3951 -1.1580 -1.4680
16227TIP3    H270173   1.200   1.676   3.903  1.2428  1.8703 -0.9915
16228TIP3   OH270174   4.530   4.262  12.070 -0.3223  0.5962  0.2187
16228TIP3    H170175   4.488   4.321  12.132 -0.5671 -1.0474  1.6791
16228TIP3    H270176   4.622   4.291  12.067 -0.4920  1.1872  0.7118
16229TIP3   OH270177   0.574   2.130   4.002 -0.0808  0.5237 -0.0366
16229TIP3    H170178   0.615   2.195   3.945 -0.5923  1.0657  0.1911
16229TIP3    H270179   0.533   2.182   4.072 -3.6238  0.3310 -1.7258
16230TIP3   OH270180   3.429   5.542   1.323  0.7224  0.6395  0.8439
16230TIP3    H170181   3.337   5.520   1.333  0.3345  0.8426 -1.5711
16230TIP3    H270182   3.454   5.582   1.406 -1.3315  0.5408  1.5655
16231TIP3   OH270183   1.001   4.869  15.604 -0.0932 -0.1021 -0.0084
16231TIP3    H170184   1.030   4.958  15.626  0.2119 -0.3126  0.4617
16231TIP3    H270185   1.065   4.812  15.646 -1.3252 -0.5909  1.3113
16232TIP3   OH270186   3.149   4.363   4.176 -0.0019 -0.1218  0.5196
16232TIP3    H170187   3.083   4.427   4.151  1.3812  1.5708  0.9603
16232TIP3    H270188   3.100   4.293   4.220 -1.5719  0.5774 -0.0520
16233TIP3   OH270189   2.400   1.691  12.905  0.2664  0.7978 -0.4428
16233TIP3    H170190   2.494   1.711  12.913  0.3202  0.4703 -0.2573
16233TIP3    H270191   2.366   1.699  12.993  0.2797  0.1238 -0.3727
16234TIP3   OH270192   5.363   6.620  10.591  1.1333 -0.3455  0.5488
16234TIP3    H170193   5.433   6.676  10.625  0.6570  0.3735  0.3644
16234TIP3    H270194   5.283   6.671  10.603  0.7788 -0.6824 -0.2825
16235TIP3   OH270195   4.391   5.236   4.567 -0.1156 -0.0888 -0.0366
16235TIP3    H170196   4.385   5.179   4.643 -3.0826 -0.3260 -0.3254
16235TIP3    H270197   4.459   5.196   4.512  0.1885 -1.4369  1.2731
16236TIP3   OH270198   4.123   3.025   2.953  0.5034  0.0468  0.3968
16236TIP3    H170199   4.060   2.998   3.019  0.4722  0.4060  0.5199
16236TIP3    H270200   4.207   2.990   2.983  1.0270  2.4927  2.1274
16237TIP3   OH270201   2.480   6.558   3.419 -0.0616 -1.0829 -0.1645
16237TIP3    H170202   2.410   6.612   3.384  0.9928 -1.3652 -3.0138
16237TIP3    H270203   2.528   6.616   3.478 -0.6729  0.1843 -0.8704
16238TIP3   OH270204   3.227   3.727   1.917 -0.0375  0.4572  0.8451
16238TIP3    H170205   3.251   3.727   2.009  1.4046  0.0218  0.4894
16238TIP3    H270206   3.134   3.702   1.916  0.3048 -1.0022  2.0746
16239TIP3   OH270207   3.958   2.778  15.998  0.9866 -0.4018  0.1538
16239TIP3    H170208   4.001   2.733  16.071  0.5542  0.5965  1.0484
16239TIP3    H270209   3.988   2.869  16.005  2.3045 -0.5804 -1.9589
16240TIP3   OH270210   6.231   6.682  13.416  0.0980 -0.0748 -0.0672
16240TIP3    H170211   6.147   6.651  13.450 -0.1973  0.3812 -0.3612
16240TIP3    H270212   6.283   6.701  13.494 -0.0644 -0.3765  0.1174
16241TIP3   OH270213   4.057   5.445  14.964  0.3302  0.0137 -0.3896
16241TIP3    H170214   3.985   5.507  14.973 -0.0762 -0.5507  0.3648
16241TIP3    H270215   4.125   5.478  15.021  0.1543 -0.1719 -0.0701
16242TIP3   OH270216   0.657   5.455   0.951  0.0137 -0.6624 -0.2818
16242TIP3    H170217   0.612   5.411   0.879  1.5005 -0.7558 -1.2005
16242TIP3    H270218   0.749   5.456   0.925  0.7622 -1.4753  2.0092
16243TIP3   OH270219   2.855   4.246   2.014 -0.0874 -0.2733  0.5638
16243TIP3    H170220   2.819   4.334   2.000  0.8764  0.2044  1.0178
16243TIP3    H270221   2.823   4.196   1.939  0.8606  0.9543 -0.7245
16244TIP3   OH270222   3.449   3.970  14.175 -0.0908  0.0252 -0.1909
16244TIP3    H170223   3.368   3.956  14.126  0.3271 -0.0603 -0.8740
16244TIP3    H270224   3.450   4.064  14.194 -1.0993 -0.2205  1.1798
16245TIP3   OH270225   5.557   4.435   5.808 -0.1972  0.4397 -0.0041
16245TIP3    H170226   5.506   4.497   5.755 -0.2844  0.0335 -0.4000
16245TIP3    H270227   5.608   4.386   5.744 -2.9005 -2.5147 -0.1257
16246TIP3   OH270228   0.601   3.177   1.683 -0.1214  0.0758 -0.3192
16246TIP3    H170229   0.579   3.243   1.750 -1.1758 -0.5327 -0.0467
16246TIP3    H270230   0.692   3.155   1.701  0.1251  1.1598 -0.1566
16247TIP3   OH270231   1.780   0.583   4.228 -0.3730  0.1314 -0.3047
16247TIP3    H170232   1.831   0.525   4.284 -0.7200 -1.3399 -1.4740
16247TIP3    H270233   1.845   0.630   4.175 -0.1072  0.6961  0.4940
16248TIP3   OH270234   0.323   2.657   4.355 -0.0254 -0.2005  0.0668
16248TIP3    H170235   0.245   2.709   4.376 -0.3445 -0.5193 -0.2959
16248TIP3    H270236   0.292   2.595   4.289  0.5703 -0.2588 -0.1578
16249TIP3   OH270237   1.075   4.659   4.723 -0.2275  0.3667  0.4255
16249TIP3    H170238   1.083   4.747   4.684  0.2869  0.4878  0.7946
16249TIP3    H270239   1.046   4.675   4.812 -1.6666  0.0738  0.0383
16250TIP3   OH270240   3.525   1.270   4.404  0.0886 -0.2023 -0.0152
16250TIP3    H170241   3.509   1.179   4.378  0.5787 -0.9476  2.1037
16250TIP3    H270242   3.444   1.298   4.446  0.8614 -0.6736  1.8985
16251TIP3   OH270243   6.499   5.704  13.380 -0.4680 -0.5034 -0.6395
16251TIP3    H170244   6.590   5.732  13.373 -1.1214  2.6203  1.3772
16251TIP3    H270245   6.463   5.719  13.293  0.7394 -1.0945 -1.2708
16252TIP3   OH270246   6.764   6.248  15.903  1.2504  0.2160  0.1995
16252TIP3    H170247   6.728   6.190  15.969  1.0049 -2.3744 -2.0046
16252TIP3    H270248   6.703   6.321  15.898  1.3569  0.5495  2.8359
16253TIP3   OH270249   3.848   4.518  11.638  0.0003 -0.3043  0.5516
16253TIP3    H170250   3.876   4.569  11.714 -0.1140 -0.8309  0.9477
16253TIP3    H270251   3.762   4.554  11.616  1.2128  1.8457 -1.1408
16254TIP3   OH270252   3.239   5.231   1.263  0.1237 -0.0549 -0.5096
16254TIP3    H170253   3.325   5.232   1.222 -1.2036 -0.1645 -3.5250
16254TIP3    H270254   3.201   5.147   1.237 -1.3593  0.5180 -0.2954
16255TIP3   OH270255   5.570   2.805   2.971 -0.1409 -0.4234  0.0235
16255TIP3    H170256   5.547   2.894   2.942 -1.0607 -0.7764 -0.3476
16255TIP3    H270257   5.563   2.809   3.066  0.8246  0.1703  0.0854
16256TIP3   OH270258   0.537   4.521  13.973  0.3034 -0.3690 -0.1829
16256TIP3    H170259   0.586   4.600  13.994 -0.4872  0.0521  0.0952
16256TIP3    H270260   0.509   4.532  13.882  1.2130 -0.8780 -0.5412
16257TIP3   OH270261   2.382   0.544  11.412 -0.2431  0.1298  0.1651
16257TIP3    H170262   2.338   0.536  11.327 -0.8694  2.7193  0.1604
16257TIP3    H270263   2.345   0.473  11.464 -1.8191  0.0888 -0.9281
16258TIP3   OH270264   6.780   3.465   1.612  0.1498  0.1490 -0.2999
16258TIP3    H170265   6.728   3.538   1.646 -1.6683 -1.4547  0.5216
16258TIP3    H270266   6.805   3.494   1.524  2.0969  2.9675  1.0203
16259TIP3   OH270267   3.841   0.457  14.085  0.5505 -0.4754 -0.0627
16259TIP3    H170268   3.895   0.378  14.083  1.9948  0.4271 -3.1512
16259TIP3    H270269   3.903   0.529  14.071 -0.9589  1.0377  0.6746
16260TIP3   OH270270   5.976   6.651   2.258  0.3762 -0.0758  0.2580
16260TIP3    H170271   5.984   6.706   2.335  0.0795  0.9243 -0.4105
16260TIP3    H270272   6.065   6.623   2.239  1.5039  4.3349 -2.3444
16261TIP3   OH270273   1.325   2.359  12.045  0.4148 -0.0974 -0.0554
16261TIP3    H170274   1.295   2.381  11.956  0.4343 -1.3764 -0.3947
16261TIP3    H270275   1.307   2.438  12.096  0.4824  0.7011 -1.2098
16262TIP3   OH270276   2.716   3.537  10.294 -0.1639 -0.0204 -0.0596
16262TIP3    H170277   2.751   3.607  10.239  0.4279 -1.9905 -2.3334
16262TIP3    H270278   2.630   3.570  10.322 -0.0657  1.4673 -1.3495
16263TIP3   OH270279   0.540   0.773   5.136 -0.6426  0.3639  0.5355
16263TIP3    H170280   0.528   0.864   5.163  0.8353  1.2806 -1.6272
16263TIP3    H270281   0.468   0.757   5.074 -0.3717  0.3736  0.2153
16264TIP3   OH270282   4.793   6.538  14.657 -0.0018 -0.0807  0.1128
16264TIP3    H170283   4.749   6.602  14.600  1.5307  0.2049 -0.8092
16264TIP3    H270284   4.725   6.474  14.678 -0.4182 -0.7896 -2.9371
16265TIP3   OH270285   0.148   1.594  13.013  0.2887 -0.2691 -0.7295
16265TIP3    H170286   0.159   1.499  13.005 -1.3572 -0.3803 -2.3588
16265TIP3    H270287   0.065   1.605  13.061 -0.4677  0.2977 -2.1216
16266TIP3   OH270288   2.093   4.772   6.426 -0.0157 -0.0653  0.2738
16266TIP3    H170289   2.069   4.833   6.355 -1.8359  0.3244  1.1688
16266TIP3    H270290   2.175   4.732   6.396 -0.1993  0.8295 -1.5799
16267TIP3   OH270291   6.646   2.310  10.505  0.0975 -0.0971  0.1995
16267TIP3    H170292   6.710   2.268  10.563  0.5773 -2.1328 -1.6562
16267TIP3    H270293   6.562   2.272  10.532 -0.4008  2.3151  2.4037
16268TIP3   OH270294   3.210   4.255  14.676 -0.2042  0.1370  0.5816
16268TIP3    H170295   3.156   4.179  14.657  1.3555 -0.6485 -1.0828
16268TIP3    H270296   3.280   4.222  14.732  0.7891  0.1696 -0.5919
16269TIP3   OH270297   1.714   0.872  14.438  0.5702 -0.1008 -0.7811
16269TIP3    H170298   1.793   0.837  14.398 -0.2056 -1.3933 -1.2445
16269TIP3    H270299   1.674   0.926  14.370  0.5666 -0.2131 -0.8677
16270TIP3   OH270300   4.946   1.699  15.029  0.6931 -0.4710 -0.1771
16270TIP3    H170301   4.892   1.637  15.077 -1.1131  1.6105  0.5941
16270TIP3    H270302   4.927   1.680  14.937 -1.9064  0.5741  0.0645
16271TIP3   OH270303   6.182   4.744   0.921  0.5361 -0.2943 -0.1175
16271TIP3    H170304   6.143   4.721   1.005  1.5742 -0.4811  0.3202
16271TIP3    H270305   6.106   4.758   0.863 -0.3181  2.3446  1.4448
16272TIP3   OH270306   6.023   1.219   3.973 -0.1580 -0.6312 -0.2286
16272TIP3    H170307   6.021   1.189   4.064  0.7982 -0.0767 -0.0123
16272TIP3    H270308   5.942   1.184   3.935  0.3375 -2.4825  0.3085
16273TIP3   OH270309   0.530   1.795   4.954  0.3006  0.5273 -0.4650
16273TIP3    H170310   0.437   1.781   4.938  0.1722  0.7082  0.1317
16273TIP3    H270311   0.535   1.875   5.006  0.7986  0.5782 -0.5784
16274TIP3   OH270312   5.265   1.210   3.509 -0.4442  0.5021  0.1058
16274TIP3    H170313   5.355   1.180   3.526 -0.8762 -0.0511  1.5641
16274TIP3    H270314   5.242   1.170   3.425  0.7360  0.8287 -0.3939
16275TIP3   OH270315   6.661   6.150   4.147 -0.5726  0.3034  0.0464
16275TIP3    H170316   6.648   6.059   4.175  0.0162 -0.1275 -1.0077
16275TIP3    H270317   6.754   6.155   4.126 -0.6152  1.1352  0.0376
16276TIP3   OH270318   2.858   5.959  12.181 -0.1100  0.8154  0.0959
16276TIP3    H170319   2.932   5.956  12.121  1.3137  1.9440  1.7132
16276TIP3    H270320   2.894   5.931  12.266 -1.9068 -0.1245  0.6098
16277TIP3   OH270321   2.658   3.164   3.285  0.2290 -0.0294  0.6075
16277TIP3    H170322   2.697   3.089   3.330  2.7042  1.4140  1.0580
16277TIP3    H270323   2.718   3.184   3.213 -1.5230  0.2278 -0.8542
16278TIP3   OH270324   2.307   3.871   2.018 -0.2837  0.3029  0.1437
16278TIP3    H170325   2.220   3.843   1.991 -0.1545  0.1526 -0.1097
16278TIP3    H270326   2.332   3.809   2.087 -1.8678  2.4276  2.8322
16279TIP3   OH270327   2.361   3.333   4.870 -0.1621 -0.5507  0.1040
16279TIP3    H170328   2.379   3.315   4.962  0.0865 -0.1835  0.1316
16279TIP3    H270329   2.322   3.421   4.870  0.6625 -0.1758 -0.2152
16280TIP3   OH270330   0.628   5.999   3.904  0.0801 -0.9647  0.3733
16280TIP3    H170331   0.627   5.999   4.000  1.2906 -0.3623  0.4092
16280TIP3    H270332   0.718   5.977   3.881 -0.1619 -0.9559 -0.6308
16281TIP3   OH270333   4.953   4.889  10.404  0.3477  0.0423  0.4680
16281TIP3    H170334   4.913   4.902  10.490 -0.4421  0.9206 -0.0153
16281TIP3    H270335   4.948   4.795  10.389  0.0048 -0.0534  1.1546
16282TIP3   OH270336   0.689   4.835   1.921  0.0465 -0.0094  0.3546
16282TIP3    H170337   0.712   4.912   1.870 -2.5968  0.7631  0.1712
16282TIP3    H270338   0.766   4.778   1.914  0.7807  1.1393 -2.3666
16283TIP3   OH270339   6.324   5.192   6.275 -0.3177 -0.0548  0.1772
16283TIP3    H170340   6.237   5.222   6.300  0.7163  2.7668  0.7207
16283TIP3    H270341   6.382   5.227   6.343  1.5527  0.5761 -1.6476
16284TIP3   OH270342   1.982   2.934  13.739 -0.4785  0.0418  0.2679
16284TIP3    H170343   1.975   2.865  13.805 -0.5930 -0.5088 -0.3122
16284TIP3    H270344   2.054   2.989  13.769 -0.2621 -0.4410  0.6376
16285TIP3   OH270345   5.472   1.468  13.172 -0.4088  0.2075 -0.2108
16285TIP3    H170346   5.381   1.489  13.189 -0.1436  0.5688  0.8390
16285TIP3    H270347   5.495   1.404  13.240 -0.3517 -1.2052 -1.5055
16286TIP3   OH270348   2.208   4.288  12.665  0.3543  0.5305 -0.1925
16286TIP3    H170349   2.169   4.355  12.609  0.5287 -0.0580 -1.0237
16286TIP3    H270350   2.146   4.279  12.738 -0.2762  0.7272 -0.6962
16287TIP3   OH270351   3.812   5.687   1.039  0.5319  0.0766  0.2231
16287TIP3    H170352   3.766   5.771   1.034  1.1323  0.5429  1.8644
16287TIP3    H270353   3.833   5.677   1.132  1.2112 -1.5037 -0.0686
16288TIP3   OH270354   0.740   4.532   1.412  0.2265 -0.1967  0.4325
16288TIP3    H170355   0.738   4.554   1.505 -2.1548  1.4276  0.0853
16288TIP3    H270356   0.809   4.587   1.375  0.9291 -0.5781  1.1592
16289TIP3   OH270357   5.802   4.628   1.251 -0.3413  0.2795  0.5391
16289TIP3    H170358   5.768   4.563   1.312 -3.5125  0.2170 -1.0811
16289TIP3    H270359   5.749   4.706   1.266 -1.1370  0.3125 -1.8925
16290TIP3   OH270360   5.402   1.080   0.768 -0.0273  0.1350 -0.4677
16290TIP3    H170361   5.388   0.993   0.729 -0.7799  0.1292 -0.2072
16290TIP3    H270362   5.370   1.141   0.701  1.1189  0.2537 -0.9264
16291TIP3   OH270363   4.217   3.528  16.782  0.1077 -0.2828 -0.5740
16291TIP3    H170364   4.257   3.615  16.784 -1.0832  0.2846  0.3026
16291TIP3    H270365   4.187   3.517  16.692  2.5010 -0.8975 -1.3704
16292TIP3   OH270366   0.031   5.811  17.010 -0.4754 -0.4790  0.3196
16292TIP3    H170367   0.007   5.894  17.052  0.0831 -0.1661  0.0261
16292TIP3    H270368   0.109   5.783  17.057 -1.0739 -1.2149  0.9018
16293TIP3   OH270369   1.008   3.392  13.777  0.4701  0.0219 -0.0423
16293TIP3    H170370   1.098   3.381  13.747  0.7226 -3.9660  1.6798
16293TIP3    H270371   1.015   3.439  13.860  0.8894  0.0715 -0.1059
16294TIP3   OH270372   0.790   0.290  13.889  0.1298 -0.3714 -0.4970
16294TIP3    H170373   0.740   0.363  13.925 -0.8334 -1.1600 -0.1887
16294TIP3    H270374   0.770   0.291  13.795  0.7009  0.1929 -0.6208
16295TIP3   OH270375   1.938   1.389  12.298  0.5806 -0.0505  0.4743
16295TIP3    H170376   1.861   1.344  12.333 -1.0530  2.7134  0.7887
16295TIP3    H270377   1.996   1.319  12.268 -0.3494 -2.3795  3.6616
16296TIP3   OH270378   1.577   3.931  16.965  0.2899  0.3012  0.0427
16296TIP3    H170379   1.494   3.979  16.961 -0.8016 -1.4379  0.7328
16296TIP3    H270380   1.553   3.840  16.947  2.2320 -0.0931 -0.8422
16297TIP3   OH270381   2.389   0.273   3.421  0.0544 -0.1231  0.9326
16297TIP3    H170382   2.433   0.239   3.343  1.4677  0.8321  1.2646
16297TIP3    H270383   2.311   0.317   3.387  1.3100  1.4155 -0.1450
16298TIP3   OH270384   2.669   2.104   3.793  0.4005 -0.1759 -0.8979
16298TIP3    H170385   2.745   2.059   3.756 -0.1726 -2.0903  0.1597
16298TIP3    H270386   2.599   2.039   3.793 -0.8934  1.1516 -0.6253
16299TIP3   OH270387   6.162   0.241   4.739  0.2662  0.5923 -0.8770
16299TIP3    H170388   6.153   0.151   4.709  1.1133  0.5298 -0.9651
16299TIP3    H270389   6.202   0.233   4.826 -1.1738  0.8205 -0.1460
16300TIP3   OH270390   6.294   1.787   3.941  0.0456  0.2853 -0.4458
16300TIP3    H170391   6.292   1.723   3.870 -1.0783 -0.0901 -0.0988
16300TIP3    H270392   6.230   1.755   4.005 -0.5018  1.6964 -0.2293
16301TIP3   OH270393   2.420   2.217  12.690 -0.4369 -0.0623 -0.7695
16301TIP3    H170394   2.492   2.246  12.745 -2.0691 -0.1736  1.5860
16301TIP3    H270395   2.460   2.198  12.605  2.1876  0.2792  0.3060
16302TIP3   OH270396   6.107   1.160   1.851 -0.0255 -0.3974  0.2441
16302TIP3    H170397   6.082   1.187   1.763  0.6727  1.0357  0.4604
16302TIP3    H270398   6.182   1.102   1.838 -0.3816 -0.7791 -0.1349
16303TIP3   OH270399   5.252   2.542  11.815 -0.0130  0.0991  0.3783
16303TIP3    H170400   5.263   2.603  11.888 -0.1521 -1.4024  1.7028
16303TIP3    H270401   5.340   2.526  11.783 -0.0191  1.4457 -0.4159
16304TIP3   OH270402   6.057   0.553   5.252 -0.0859 -0.1676  0.1816
16304TIP3    H170403   6.138   0.601   5.236 -0.9931  1.6586  0.8577
16304TIP3    H270404   6.012   0.554   5.167  0.4574 -0.9915 -0.1366
16305TIP3   OH270405   2.189   6.014  11.896  0.5999  0.5582 -0.0734
16305TIP3    H170406   2.157   5.925  11.881 -1.3145  1.4563 -1.8048
16305TIP3    H270407   2.282   6.002  11.916 -0.0248 -1.9415  1.9094
16306TIP3   OH270408   2.796   3.491   2.294  0.0460 -0.2686  0.3541
16306TIP3    H170409   2.809   3.586   2.302 -0.4434 -0.0283 -1.2743
16306TIP3    H270410   2.701   3.480   2.295 -0.0406 -0.4000 -2.0489
16307TIP3   OH270411   1.214   2.387  15.174 -0.5888  0.6971  0.3760
16307TIP3    H170412   1.192   2.304  15.217  0.0323  0.8638  1.0240
16307TIP3    H270413   1.150   2.394  15.103  0.1036 -0.9504 -0.4822
16308TIP3   OH270414   3.988   3.474   5.287 -0.2208 -0.3187 -0.0054
16308TIP3    H170415   4.065   3.525   5.310 -0.0611  0.0831 -1.3362
16308TIP3    H270416   3.927   3.487   5.360 -0.2059  1.8259 -0.3288
16309TIP3   OH270417   3.168   1.513  14.043  0.0062 -0.5918 -0.1752
16309TIP3    H170418   3.132   1.503  14.132  1.7530  1.6549  0.8820
16309TIP3    H270419   3.227   1.439  14.033  1.8556  0.4926  1.7180
16310TIP3   OH270420   5.751   1.910   5.119  0.4826  0.3818  0.0953
16310TIP3    H170421   5.702   1.854   5.179  1.0705 -0.7844 -0.4813
16310TIP3    H270422   5.687   1.932   5.051  0.1576  0.6918  0.4954
16311TIP3   OH270423   1.290   6.102   2.199  0.0488 -0.0760 -0.0521
16311TIP3    H170424   1.363   6.159   2.177 -0.0852  0.9060  1.8109
16311TIP3    H270425   1.321   6.050   2.273 -0.3500 -1.3496 -0.7552
16312TIP3   OH270426   0.681   6.457  15.022  0.3846  0.2969 -0.3014
16312TIP3    H170427   0.718   6.545  15.017 -2.3506  1.5251 -0.6443
16312TIP3    H270428   0.673   6.441  15.116 -1.4398  1.5417 -0.1987
16313TIP3   OH270429   4.162   4.441   2.228  0.0220  0.1961  0.5166
16313TIP3    H170430   4.205   4.499   2.165 -0.3721 -0.9766 -0.8776
16313TIP3    H270431   4.205   4.357   2.217 -3.0510 -1.2742 -1.5756
16314TIP3   OH270432   5.064   6.271  11.381  0.0247 -0.1284  0.0129
16314TIP3    H170433   5.000   6.339  11.362 -1.1982 -1.0647  0.6481
16314TIP3    H270434   5.105   6.299  11.463 -1.4328 -0.7881  1.0051
16315TIP3   OH270435   3.970   4.190  12.401  0.4125  0.1110 -0.0725
16315TIP3    H170436   3.962   4.117  12.340  0.7496 -0.3189  0.3977
16315TIP3    H270437   3.895   4.246  12.380  0.9161  0.3361 -1.3682
16316TIP3   OH270438   1.780   3.633   1.713 -0.1437 -0.1868  0.0453
16316TIP3    H170439   1.718   3.606   1.781  0.0373  2.5727  1.4391
16316TIP3    H270440   1.767   3.569   1.642 -1.9293 -1.8457  1.7502
16317TIP3   OH270441   1.583   1.994  15.507 -0.9901  0.4582 -0.4476
16317TIP3    H170442   1.677   1.995  15.490 -1.1059 -0.4913 -1.2551
16317TIP3    H270443   1.570   1.923  15.570 -0.9525  1.9077  1.2712
16318TIP3   OH270444   3.541   1.631   5.108  0.4657 -0.6016 -0.4023
16318TIP3    H170445   3.602   1.597   5.043  0.6721 -0.7953 -0.1101
16318TIP3    H270446   3.557   1.726   5.108  0.3567 -0.5806 -0.7384
16319TIP3   OH270447   2.782   1.369   5.259  0.0950  0.1803  0.2275
16319TIP3    H170448   2.691   1.374   5.287 -0.6173 -0.4432 -1.8347
16319TIP3    H270449   2.791   1.281   5.222  2.0104 -0.3933  1.8084
16320TIP3   OH270450   4.614   1.190  15.075 -0.2563 -0.1895  0.2239
16320TIP3    H170451   4.578   1.102  15.065 -0.2802 -0.0660 -0.9228
16320TIP3    H270452   4.709   1.178  15.076 -0.1470 -0.0608 -2.3887
16321TIP3   OH270453   5.700   4.085  14.123  0.1485  0.1566  0.4741
16321TIP3    H170454   5.639   4.134  14.179  0.3635  0.3667  0.5245
16321TIP3    H270455   5.783   4.132  14.131  0.0504  0.5047 -0.4325
16322TIP3   OH270456   0.342   3.170  12.454  0.1004  0.3397  0.2362
16322TIP3    H170457   0.393   3.089  12.451 -0.1844  0.1939 -1.1672
16322TIP3    H270458   0.290   3.169  12.374 -0.1773  1.7471  0.3720
16323TIP3   OH270459   6.621   4.972   6.330  0.5126  0.4163 -0.4608
16323TIP3    H170460   6.596   5.016   6.412  2.5592  1.6412 -0.4391
16323TIP3    H270461   6.666   4.893   6.359 -0.8872 -0.4333 -0.4823
16324TIP3   OH270462   0.290   2.988  15.465 -0.3445 -0.2802 -0.3798
16324TIP3    H170463   0.293   3.078  15.430 -0.4742 -0.1209  0.0119
16324TIP3    H270464   0.202   2.957  15.444 -0.3956 -0.2134 -0.2635
16325TIP3   OH270465   5.424   3.627   4.058  0.1410 -0.2027 -0.3785
16325TIP3    H170466   5.419   3.533   4.077 -1.4984 -0.3287 -1.2681
16325TIP3    H270467   5.518   3.647   4.061  0.4137 -1.5632  1.1814
16326TIP3   OH270468   5.436   2.242  14.538 -0.8915 -0.2367 -0.4229
16326TIP3    H170469   5.362   2.222  14.595 -0.9994 -0.2622 -0.5725
16326TIP3    H270470   5.399   2.293  14.466 -1.0846 -1.7433 -1.4358
16327TIP3   OH270471   0.688   0.912   0.333  0.4261  0.4319 -0.0502
16327TIP3    H170472   0.758   0.961   0.377  0.6668  0.4827 -0.4907
16327TIP3    H270473   0.607   0.953   0.364  0.6374  1.6163 -0.9891
16328TIP3   OH270474   4.203   0.210   2.215 -0.0087  0.3924 -0.8637
16328TIP3    H170475   4.131   0.160   2.177  2.6435 -4.5918 -0.1682
16328TIP3    H270476   4.191   0.201   2.310  0.2997  1.6245 -0.6874
16329TIP3   OH270477   0.583   0.982   6.611 -0.4862  0.0517  0.0326
16329TIP3    H170478   0.661   0.993   6.557 -0.2705 -3.7707 -0.7140
16329TIP3    H270479   0.516   1.034   6.567  0.6595  0.1442 -1.7032
16330TIP3   OH270480   6.726   2.394  10.883 -0.0730  0.3835  0.0440
16330TIP3    H170481   6.805   2.407  10.934  0.7056  0.2191 -1.0790
16330TIP3    H270482   6.746   2.318  10.828 -1.8352 -1.0976  1.3157
16331TIP3   OH270483   6.007   3.398  12.811  0.3846  0.1124 -0.1162
16331TIP3    H170484   5.916   3.375  12.828 -0.3015  2.3251 -0.4434
16331TIP3    H270485   6.003   3.474  12.753  2.4369  0.3700 -0.0160
16332TIP3   OH270486   3.614   1.092  15.227 -0.4376  0.0830  0.0145
16332TIP3    H170487   3.591   1.185  15.231 -0.8441 -0.0495  2.7884
16332TIP3    H270488   3.564   1.052  15.298 -0.5457 -2.3601 -1.3335
16333TIP3   OH270489   1.042   4.750   0.447  0.5383 -0.2945  0.3540
16333TIP3    H170490   1.059   4.744   0.354  0.2383  1.8984  0.0920
16333TIP3    H270491   0.946   4.753   0.454  0.5742  1.2551  0.5382
16334TIP3   OH270492   2.397   6.496   0.755  0.3585  0.4414  0.0571
16334TIP3    H170493   2.490   6.515   0.766  0.6472 -0.5759 -0.5104
16334TIP3    H270494   2.370   6.461   0.840  0.3489  1.2500  0.3972
16335TIP3   OH270495   5.053   3.585   2.245  0.0653 -0.2463 -0.1383
16335TIP3    H170496   5.102   3.531   2.183  0.6790 -0.0018  0.1198
16335TIP3    H270497   4.962   3.574   2.220  0.0853 -2.1456  0.4714
16336TIP3   OH270498   2.317   3.320   2.636  0.8727  0.6302  0.4531
16336TIP3    H170499   2.403   3.304   2.597  0.5232 -0.9094  0.2416
16336TIP3    H270500   2.261   3.251   2.600  0.4370 -0.6728  3.3316
16337TIP3   OH270501   0.767   0.157  14.406  0.4845  0.4277  0.6001
16337TIP3    H170502   0.760   0.230  14.345 -1.2398 -0.6692 -0.6208
16337TIP3    H270503   0.768   0.079  14.350  2.1215 -0.5231  1.8682
16338TIP3   OH270504   0.216   4.074  14.112  0.3432  0.6126  0.3398
16338TIP3    H170505   0.256   4.149  14.068 -0.2844 -0.1180 -1.5525
16338TIP3    H270506   0.142   4.111  14.160 -1.1937  1.0183 -2.1782
16339TIP3   OH270507   0.774   6.289   5.936 -0.5401 -0.1859 -0.2205
16339TIP3    H170508   0.792   6.229   5.863  1.4844  0.3572 -0.2067
16339TIP3    H270509   0.791   6.237   6.015  0.6656  0.2050 -0.2033
16340TIP3   OH270510   3.876   0.921   0.088  0.5125  0.6616  0.1758
16340TIP3    H170511   3.942   0.887   0.148  0.0307 -1.6554 -0.5249
16340TIP3    H270512   3.795   0.877   0.114  0.4109 -0.9118 -2.5097
16341TIP3   OH270513   4.152   2.429  16.412 -0.4630  0.1386  0.0942
16341TIP3    H170514   4.231   2.412  16.362 -1.1761  0.3148 -1.1279
16341TIP3    H270515   4.090   2.362  16.384  0.1734 -2.0301  3.3556
16342TIP3   OH270516   2.784   4.476  13.142 -0.5852 -0.1861 -0.1602
16342TIP3    H170517   2.837   4.508  13.069 -2.0183  1.0507 -0.7237
16342TIP3    H270518   2.757   4.388  13.116  0.2052 -0.3574 -0.4079
16343TIP3   OH270519   0.073   4.279  16.768 -0.3560  0.5026  0.0325
16343TIP3    H170520   0.076   4.209  16.834  0.5565  1.0781  0.6303
16343TIP3    H270521   0.131   4.347  16.803  1.1303  0.3218 -1.9386
16344TIP3   OH270522   3.117   4.745  14.931  0.1271  0.0295 -0.2545
16344TIP3    H170523   3.194   4.777  14.884  0.1885 -0.0428 -0.2016
16344TIP3    H270524   3.056   4.720  14.861  0.3608 -0.4262 -0.2996
16345TIP3   OH270525   4.054   6.808   6.370 -0.1721 -0.1123 -0.1781
16345TIP3    H170526   4.048   6.903   6.369  0.7286 -0.0235  0.6747
16345TIP3    H270527   3.977   6.779   6.419  0.3281  0.2882  0.8853
16346TIP3   OH270528   0.220   1.402  11.633 -0.1237 -0.3479  0.0101
16346TIP3    H170529   0.195   1.350  11.557 -3.5041 -2.8902  2.5231
16346TIP3    H270530   0.304   1.367  11.661 -0.6867 -2.1243 -0.4106
16347TIP3   OH270531   0.730   5.687   5.252  0.5020 -0.1375 -0.3128
16347TIP3    H170532   0.723   5.680   5.157  0.3119  1.4867 -0.4554
16347TIP3    H270533   0.644   5.718   5.281  0.9756  0.7447  0.2075
16348TIP3   OH270534   3.647   0.682  11.582  0.7953 -0.0035 -0.0946
16348TIP3    H170535   3.638   0.645  11.670 -1.7840  1.2386  0.2558
16348TIP3    H270536   3.673   0.773  11.598  2.6047 -0.3728 -0.7566
16349TIP3   OH270537   0.244   2.939   6.221 -0.5531  0.3945  0.2161
16349TIP3    H170538   0.194   3.019   6.204 -1.7732 -0.2553  0.6353
16349TIP3    H270539   0.180   2.878   6.259  0.1408 -1.0621 -0.8452
16350TIP3   OH270540   6.785   1.078  17.149 -0.0402  0.2146  0.2996
16350TIP3    H170541   6.824   0.997  17.184 -0.9074 -0.1613  0.4178
16350TIP3    H270542   6.757   1.126  17.227 -0.0015  0.3868  0.2086
16351TIP3   OH270543   3.873   5.456   3.219  0.1322 -0.2782  0.1207
16351TIP3    H170544   3.919   5.460   3.303  1.0272 -1.8074 -0.2584
16351TIP3    H270545   3.783   5.431   3.243  0.5551 -1.4211  0.5970
16352TIP3   OH270546   1.970   0.595  14.825  0.1438  0.6736  0.6962
16352TIP3    H170547   1.911   0.570  14.755  1.1641  0.1668 -0.0013
16352TIP3    H270548   1.927   0.565  14.905  0.4204 -1.6595  0.0471
16353TIP3   OH270549   3.550   2.901  16.334  0.4288  0.4226 -0.4849
16353TIP3    H170550   3.472   2.850  16.311  0.3963  0.9716 -1.6590
16353TIP3    H270551   3.615   2.835  16.358 -0.1204 -0.0815 -0.3529
16354TIP3   OH270552   6.774   4.425   3.113 -0.4128  0.1963  0.9108
16354TIP3    H170553   6.744   4.439   3.023  2.4439 -2.3104 -0.6313
16354TIP3    H270554   6.733   4.343   3.139  0.7953 -0.4554  0.8229
16355TIP3   OH270555   3.344   2.065   4.605 -0.0175 -0.0248 -0.1673
16355TIP3    H170556   3.251   2.064   4.582 -0.1238 -0.4660  0.2540
16355TIP3    H270557   3.382   1.991   4.558  0.6870  1.6932 -2.4804
16356TIP3   OH270558   0.928   4.653  13.684 -0.3829 -0.0073  0.2682
16356TIP3    H170559   0.975   4.570  13.693 -0.7350 -0.5077 -2.1227
16356TIP3    H270560   0.969   4.696  13.609 -0.0684  2.1233  1.5773
16357TIP3   OH270561   4.903   4.314  13.579 -0.3299  0.0139 -0.1493
16357TIP3    H170562   4.927   4.238  13.632  0.3376  0.7987  0.7337
16357TIP3    H270563   4.817   4.341  13.612 -0.0343  0.3409  0.3686
16358TIP3   OH270564   0.537   1.209   1.252  0.3516  0.0452  0.4287
16358TIP3    H170565   0.590   1.269   1.304 -0.7910  0.4645  1.1660
16358TIP3    H270566   0.517   1.258   1.172  1.4159 -0.2786 -0.0412
16359TIP3   OH270567   1.387   0.851  11.815  0.7911 -0.5171 -0.0868
16359TIP3    H170568   1.404   0.807  11.898 -0.3648  0.0777  0.4898
16359TIP3    H270569   1.309   0.904  11.831  1.3792  0.7355 -1.1399
16360TIP3   OH270570   4.927   6.324   0.528 -0.4826 -0.1697 -0.4938
16360TIP3    H170571   4.953   6.346   0.439 -1.1537 -1.1917 -0.9643
16360TIP3    H270572   4.955   6.233   0.539 -1.1336 -0.3088  0.0480
16361TIP3   OH270573   6.638   2.397  11.198 -0.1939  0.0195  0.6459
16361TIP3    H170574   6.670   2.473  11.150  2.7715 -0.8496  1.0068
16361TIP3    H270575   6.576   2.355  11.138  2.3097 -0.2647 -2.0152
16362TIP3   OH270576   3.957   0.113  12.397 -0.1659  0.4168 -0.0928
16362TIP3    H170577   3.865   0.124  12.374  0.0078  4.3806  0.5064
16362TIP3    H270578   4.003   0.112  12.313 -0.6165  0.0126 -0.3398
16363TIP3   OH270579   2.187   1.606  12.802  0.0584 -0.4389  0.4130
16363TIP3    H170580   2.267   1.635  12.846 -0.4954 -1.8068  2.4623
16363TIP3    H270581   2.146   1.687  12.772  0.6522  0.5625  2.1455
16364TIP3   OH270582   3.727   5.880  12.962 -0.0806  0.4396 -0.4751
16364TIP3    H170583   3.746   5.932  12.884  0.1546  0.9090 -0.1077
16364TIP3    H270584   3.784   5.803  12.953  1.6783  1.5784  0.3602
16365TIP3   OH270585   5.542   2.526  14.763  0.3150 -0.2269 -0.2639
16365TIP3    H170586   5.617   2.468  14.751  1.4797  1.1656  0.0577
16365TIP3    H270587   5.535   2.536  14.857  1.6264  1.9739 -0.3398
16366TIP3   OH270588   0.422   1.666   6.022 -0.6099 -0.1131  0.5514
16366TIP3    H170589   0.475   1.730   6.069 -1.8868  0.1907  1.6312
16366TIP3    H270590   0.383   1.612   6.091 -0.6716 -1.1551 -0.2775
16367TIP3   OH270591   2.925   5.965   2.616  0.0927  0.7199  0.6432
16367TIP3    H170592   2.993   6.032   2.617 -0.1297  0.9810 -0.2823
16367TIP3    H270593   2.851   6.005   2.662 -0.5524  1.7143 -1.1484
16368TIP3   OH270594   1.083   1.780  13.963 -0.1039 -0.2748 -0.6981
16368TIP3    H170595   1.106   1.871  13.944  0.8007 -0.1117  1.0214
16368TIP3    H270596   1.120   1.731  13.890 -0.9755  0.7451 -1.8721
16369TIP3   OH270597   6.555   4.474   5.518 -0.2200 -0.2332  0.4657
16369TIP3    H170598   6.498   4.442   5.588 -0.3374 -0.5451  0.2284
16369TIP3    H270599   6.496   4.487   5.444 -0.1805  0.5659  0.5690
16370TIP3   OH270600   0.571   4.504   4.411 -0.3815  0.3551  0.4185
16370TIP3    H170601   0.539   4.550   4.334 -0.1712  0.3485  0.3280
16370TIP3    H270602   0.511   4.531   4.481 -0.7733  0.0954  0.1828
16371TIP3   OH270603   6.672   4.002   0.217  0.1289 -0.2149 -0.4432
16371TIP3    H170604   6.616   3.993   0.140 -0.2055 -1.3529 -0.0903
16371TIP3    H270605   6.669   3.916   0.259 -1.0209  0.8023  1.7457
16372TIP3   OH270606   4.149   5.198  15.362 -0.0042  0.9042 -0.0615
16372TIP3    H170607   4.194   5.141  15.425  1.3418  1.6507 -0.3072
16372TIP3    H270608   4.116   5.138  15.295 -1.1941  0.1355  1.1683
16373TIP3   OH270609   2.904   5.560  14.976  0.6030 -0.3577 -0.2599
16373TIP3    H170610   2.936   5.646  14.949  0.0926 -0.1081 -0.0845
16373TIP3    H270611   2.835   5.539  14.913 -0.3850  0.0910  0.6365
16374TIP3   OH270612   2.289   0.919   2.972  0.0363  0.3011  0.1273
16374TIP3    H170613   2.262   0.840   2.925 -0.2189  1.3615 -1.5641
16374TIP3    H270614   2.381   0.903   2.995 -0.2878 -0.8835  0.7187
16375TIP3   OH270615   0.244   3.190  15.867 -0.5491  0.2183  0.0593
16375TIP3    H170616   0.241   3.249  15.942 -1.2368  0.4738 -0.1589
16375TIP3    H270617   0.178   3.123  15.886 -0.6013  0.1861 -0.2303
16376TIP3   OH270618   5.686   3.320  10.375  0.0528  0.2280 -0.0255
16376TIP3    H170619   5.628   3.249  10.347 -0.1111  0.4682 -0.2931
16376TIP3    H270620   5.735   3.283  10.449 -0.6943  0.1415  0.4292
16377TIP3   OH270621   6.649   6.610  14.898 -0.4510  0.1425 -0.1876
16377TIP3    H170622   6.655   6.622  14.803 -1.9954  0.1173 -0.3131
16377TIP3    H270623   6.608   6.690  14.930 -0.4551 -0.0863  0.3968
16378TIP3   OH270624   6.733   3.972   4.462 -0.1963  0.0681 -0.4675
16378TIP3    H170625   6.773   3.885   4.458  1.5496  0.8612 -0.8601
16378TIP3    H270626   6.696   3.976   4.551  1.2302 -0.4435  0.1865
16379TIP3   OH270627   2.232   6.670   1.807 -0.6329  0.3533  0.0112
16379TIP3    H170628   2.238   6.602   1.874  0.1977 -0.6034 -0.9963
16379TIP3    H270629   2.323   6.695   1.790 -0.5833 -1.1955 -2.4981
16380TIP3   OH270630   3.764   4.826   4.705 -1.0569  0.4994 -0.0821
16380TIP3    H170631   3.742   4.772   4.781  1.0100 -1.0003 -0.4762
16380TIP3    H270632   3.695   4.893   4.704 -3.1797 -1.4888  1.0115
16381TIP3   OH270633   1.720   4.267  16.794 -0.2381  0.4032  0.5443
16381TIP3    H170634   1.807   4.276  16.755  0.4492 -1.7938  1.4147
16381TIP3    H270635   1.735   4.219  16.876 -2.1815  0.6469  1.1015
16382TIP3   OH270636   4.130   5.213   6.661 -0.0989 -0.1991  0.1684
16382TIP3    H170637   4.083   5.155   6.720  0.6501  1.5054  2.6048
16382TIP3    H270638   4.221   5.209   6.690  0.1865  1.1612 -0.4476
16383TIP3   OH270639   1.720   4.535  13.912 -0.3193 -0.6089  0.1665
16383TIP3    H170640   1.757   4.584  13.986  2.0869 -2.3417  0.2215
16383TIP3    H270641   1.699   4.603  13.847 -0.6324  0.7786  1.6585
16384TIP3   OH270642   5.430   5.114  12.982  0.0687  0.1006  0.5046
16384TIP3    H170643   5.409   5.057  12.908  0.7995 -0.9981  1.1217
16384TIP3    H270644   5.446   5.200  12.942 -0.5091 -0.2399 -0.4990
16385TIP3   OH270645   2.563   5.627  11.556  0.7104  0.3835  0.4146
16385TIP3    H170646   2.634   5.565  11.540 -0.3627 -1.0295  0.9352
16385TIP3    H270647   2.560   5.682  11.478  1.2149 -0.6917 -0.3728
16386TIP3   OH270648   2.753   5.514  14.748 -0.4377  0.3501 -0.1865
16386TIP3    H170649   2.717   5.602  14.735  1.2463  0.8857 -1.6900
16386TIP3    H270650   2.799   5.495  14.666  0.2586 -1.4376  0.5692
16387TIP3   OH270651   2.554   3.708   0.983 -0.1124 -0.3303  0.3830
16387TIP3    H170652   2.638   3.743   1.013 -1.1044  0.4475  2.4477
16387TIP3    H270653   2.554   3.618   1.014  0.2727 -0.5794 -0.3223
16388TIP3   OH270654   5.193   2.669   0.915  0.0277  0.1114 -0.3616
16388TIP3    H170655   5.245   2.622   0.980 -1.0561 -0.4767  0.1007
16388TIP3    H270656   5.253   2.683   0.842  1.9716  2.6948  1.5371
16389TIP3   OH270657   0.354   4.123  12.495 -0.5033 -0.0395  0.0877
16389TIP3    H170658   0.380   4.057  12.559 -0.6327 -0.4617 -0.2912
16389TIP3    H270659   0.385   4.088  12.411  0.5190  0.9515  0.0251
16390TIP3   OH270660   6.729   6.664  11.252  0.3540 -0.5876  0.5807
16390TIP3    H170661   6.738   6.754  11.286  1.7611  0.3360 -1.9882
16390TIP3    H270662   6.818   6.630  11.252 -0.0855 -1.7771  0.8866
16391TIP3   OH270663   3.006   4.725  16.286 -0.1436 -0.0707  0.5931
16391TIP3    H170664   3.063   4.799  16.264 -1.0521  0.4990  0.1009
16391TIP3    H270665   3.013   4.667  16.210  0.4436 -0.4222  0.9093
16392TIP3   OH270666   0.928   0.671   4.596 -0.1933  0.5947 -0.2990
16392TIP3    H170667   0.883   0.607   4.541  0.8758 -2.4693  2.0996
16392TIP3    H270668   0.859   0.710   4.649 -0.5622 -1.5935  0.9671
16393TIP3   OH270669   0.750   3.745  11.723 -0.0030  0.3964 -0.1856
16393TIP3    H170670   0.673   3.748  11.666  0.7458  0.5827 -1.2051
16393TIP3    H270671   0.789   3.832  11.716 -0.4564  0.7581  1.4244
16394TIP3   OH270672   1.563   6.258  13.485 -0.0374 -0.0719  0.0828
16394TIP3    H170673   1.630   6.326  13.485 -0.1175  0.0301 -0.9435
16394TIP3    H270674   1.608   6.180  13.519 -0.0590  0.5685  1.6626
16395TIP3   OH270675   3.700   3.551  13.284  0.0389 -0.7185  0.2028
16395TIP3    H170676   3.719   3.458  13.298  0.5894 -0.5688  0.4952
16395TIP3    H270677   3.721   3.592  13.368 -1.4100 -0.5002  0.4844
16396TIP3   OH270678   0.887   2.880  16.297  0.7164 -0.6894 -0.2064
16396TIP3    H170679   0.894   2.829  16.216  2.4702  0.1906 -0.6535
16396TIP3    H270680   0.973   2.920  16.308 -0.1649  1.0443  0.8809
16397TIP3   OH270681   2.036   3.763  12.127 -0.1510  0.2469  0.3078
16397TIP3    H170682   2.118   3.800  12.160 -1.7565  1.1179  3.7369
16397TIP3    H270683   2.017   3.691  12.186 -0.2236 -2.2872 -2.5803
16398TIP3   OH270684   4.175   1.099  11.086  0.3230 -0.3114 -0.7642
16398TIP3    H170685   4.242   1.126  11.149 -1.1729  2.5887 -0.2278
16398TIP3    H270686   4.215   1.115  11.001  0.1165  2.2594 -0.4542
16399TIP3   OH270687   3.714   0.498  15.061  0.2875 -0.2780  0.3911
16399TIP3    H170688   3.738   0.467  15.148  1.0002 -1.7280 -0.2696
16399TIP3    H270689   3.763   0.441  15.002 -0.7512  0.1846 -0.9653
16400TIP3   OH270690   1.080   5.370  13.512  0.3542 -0.3829 -0.5018
16400TIP3    H170691   1.032   5.445  13.477 -0.5867 -0.4019  0.7078
16400TIP3    H270692   1.097   5.393  13.603  2.5552 -0.4360 -0.8509
16401TIP3   OH270693   0.108   0.661  16.393 -0.4418 -0.5890 -0.5475
16401TIP3    H170694   0.197   0.687  16.418  0.3272 -0.8606 -2.7901
16401TIP3    H270695   0.097   0.573  16.431  0.3020 -0.6122 -0.3746
16402TIP3   OH270696   5.389   2.949  11.822 -0.0296  0.3984  0.3123
16402TIP3    H170697   5.402   2.855  11.831 -0.5977  0.3186  0.3596
16402TIP3    H270698   5.442   2.973  11.746  0.4212  0.1091  0.5329
16403TIP3   OH270699   0.808   6.687  16.581 -0.7114  0.7304  0.0633
16403TIP3    H170700   0.728   6.668  16.533  0.2692 -0.3649 -1.2191
16403TIP3    H270701   0.782   6.750  16.648 -2.9577 -0.8169  0.7480
16404TIP3   OH270702   6.444   3.729   3.550 -0.2293 -0.2843 -0.2173
16404TIP3    H170703   6.394   3.787   3.608  0.3221 -1.3843  1.4442
16404TIP3    H270704   6.391   3.723   3.471 -0.7859  1.6705 -0.0502
16405TIP3   OH270705   0.486   3.428  16.842 -0.2866  0.3223 -0.3947
16405TIP3    H170706   0.468   3.359  16.779  2.0626 -0.6808 -0.0854
16405TIP3    H270707   0.509   3.504  16.788  2.1144 -0.6413 -0.8544
16406TIP3   OH270708   3.135   1.481   3.910  0.0359 -0.0233  0.0103
16406TIP3    H170709   3.193   1.536   3.857 -0.2004 -0.0845 -0.3144
16406TIP3    H270710   3.107   1.538   3.982 -3.0332  1.5247 -2.1783
16407TIP3   OH270711   2.055   6.043   3.784 -0.5132 -0.1190  0.3574
16407TIP3    H170712   2.102   5.997   3.854  0.3264  0.3383  0.1052
16407TIP3    H270713   2.105   6.123   3.770 -0.1648 -0.6073 -1.3748
16408TIP3   OH270714   3.762   5.380  15.983 -0.1704 -0.4012 -0.0279
16408TIP3    H170715   3.675   5.395  15.947 -0.6356 -0.0462  1.2170
16408TIP3    H270716   3.786   5.463  16.024  0.4730 -0.7072  0.2228
16409TIP3   OH270717   1.796   4.458  12.200 -0.2521  0.1357  0.5220
16409TIP3    H170718   1.749   4.427  12.123  0.6029 -0.6635  0.2967
16409TIP3    H270719   1.740   4.526  12.238 -1.7985 -1.0888  0.5277
16410TIP3   OH270720   5.198   5.818  12.677 -0.3126  0.2770 -0.3605
16410TIP3    H170721   5.211   5.891  12.616 -2.1804  0.3356 -0.7320
16410TIP3    H270722   5.144   5.855  12.747 -0.9293 -0.6424 -0.3453
16411TIP3   OH270723   1.546   2.835  15.972 -0.4432  0.0204  0.0549
16411TIP3    H170724   1.626   2.807  15.926  0.1456  0.4757  0.7749
16411TIP3    H270725   1.491   2.756  15.975 -0.0470 -0.2862 -0.4963
16412TIP3   OH270726   2.804   4.488   3.928  0.6258 -0.1514  0.4391
16412TIP3    H170727   2.785   4.564   3.872  1.2502 -0.2232  0.1196
16412TIP3    H270728   2.805   4.414   3.868  1.1528 -0.2504  0.5640
16413TIP3   OH270729   2.135   5.087  13.801 -0.3460  0.1718 -0.1188
16413TIP3    H170730   2.086   5.028  13.858 -1.6517  2.1853  0.9712
16413TIP3    H270731   2.074   5.158  13.783  0.7703  0.6635 -2.3343
16414TIP3   OH270732   3.543   5.826  16.626 -0.1240 -0.4345  1.0251
16414TIP3    H170733   3.459   5.822  16.581  0.6232 -0.7986 -0.4006
16414TIP3    H270734   3.528   5.884  16.700 -1.0298  1.4302 -0.5501
16415TIP3   OH270735   0.666   2.777  11.942  0.3332 -0.4143  0.1344
16415TIP3    H170736   0.575   2.752  11.954  0.5799 -1.0391  0.7961
16415TIP3    H270737   0.667   2.872  11.959 -0.1727 -0.4224  0.2359
16416TIP3   OH270738   4.606   3.196  12.787 -0.5574 -0.2502 -0.2453
16416TIP3    H170739   4.643   3.229  12.705 -0.2886 -0.6040 -0.2696
16416TIP3    H270740   4.672   3.135  12.821 -0.3246  0.4762  0.6279
16417TIP3   OH270741   3.037   2.754   1.208 -1.0449  0.3147  0.2402
16417TIP3    H170742   3.059   2.840   1.174 -0.7568 -0.0159 -0.4198
16417TIP3    H270743   2.960   2.769   1.264 -1.9589  0.7726 -1.0887
16418TIP3   OH270744   1.624   5.956   2.288  0.3528 -0.0300 -0.3011
16418TIP3    H170745   1.712   5.963   2.323  0.1873  1.0120 -0.0665
16418TIP3    H270746   1.570   5.932   2.363  0.4101 -0.6013 -0.4317
16419TIP3   OH270747   3.545   4.314  10.441 -0.1078  0.1099 -0.3334
16419TIP3    H170748   3.632   4.299  10.404  0.4520  0.8053  0.6662
16419TIP3    H270749   3.496   4.234  10.422  1.1304 -0.7829  0.1596
16420TIP3   OH270750   3.943   4.673  16.288  0.5986 -0.3530  0.1935
16420TIP3    H170751   3.907   4.653  16.202 -0.4184 -0.3304  0.5983
16420TIP3    H270752   3.960   4.767  16.285 -1.3962  0.0744  0.6827
16421TIP3   OH270753   1.351   3.034   0.400  0.4621 -0.8477 -0.1087
16421TIP3    H170754   1.281   3.060   0.341  0.9373 -2.5372 -1.4648
16421TIP3    H270755   1.325   2.948   0.433  1.1413 -0.7886  0.6175
16422TIP3   OH270756   2.308   0.512  12.135  0.1620  0.0954  0.2758
16422TIP3    H170757   2.225   0.560  12.129 -0.0103 -0.2119  0.1880
16422TIP3    H270758   2.370   0.577  12.167 -0.1499  0.2862  0.5041
16423TIP3   OH270759   5.747   2.824  16.034 -0.2187  0.4013 -0.1321
16423TIP3    H170760   5.656   2.812  16.061 -0.3548 -1.0153 -1.1043
16423TIP3    H270761   5.748   2.908  15.988 -1.0825  0.3337 -0.2932
16424TIP3   OH270762   6.176   3.961  16.737  0.1070  0.1401 -0.8296
16424TIP3    H170763   6.249   4.010  16.698  0.0823 -0.1583 -1.2495
16424TIP3    H270764   6.218   3.893  16.790  0.1698  1.3380  0.7435
16425TIP3   OH270765   4.021   5.391   1.581 -0.6421 -0.0355 -0.4732
16425TIP3    H170766   4.071   5.473   1.583  0.5279 -0.7362  0.2741
16425TIP3    H270767   4.021   5.365   1.489 -0.0421  0.2395 -0.5557
16426TIP3   OH270768   0.056   6.690   5.489  0.0621  0.1083 -0.3362
16426TIP3    H170769   0.144   6.703   5.525  0.6626 -1.9319 -0.9553
16426TIP3    H270770   0.065   6.714   5.396  0.0562 -0.4335 -0.4768
16427TIP3   OH270771   5.589   2.593   1.588 -0.5683 -0.2172 -0.4465
16427TIP3    H170772   5.534   2.559   1.658 -0.1349 -0.0365 -0.0084
16427TIP3    H270773   5.677   2.560   1.607 -0.2694  0.5648 -0.3948
16428TIP3   OH270774   0.918   5.425   4.466 -0.7463  0.0275 -0.1084
16428TIP3    H170775   0.957   5.351   4.420 -0.0144 -0.3480  1.0604
16428TIP3    H270776   0.833   5.393   4.496  0.8166 -1.5858  3.1968
16429TIP3   OH270777   3.944   4.371  15.883 -0.2344  0.3129  0.7527
16429TIP3    H170778   4.038   4.373  15.865 -0.1846  1.5604  1.0535
16429TIP3    H270779   3.923   4.460  15.908 -1.5165  0.0506  0.6679
16430TIP3   OH270780   1.227   2.052  17.060  0.2912 -0.1501  0.1474
16430TIP3    H170781   1.173   2.034  17.137 -0.7390 -1.5359 -0.8361
16430TIP3    H270782   1.201   2.140  17.032 -1.1927 -0.6260 -0.0587
16431TIP3   OH270783   2.892   6.487  12.055 -0.0987 -0.0308 -0.1698
16431TIP3    H170784   2.877   6.420  11.987 -2.1690  0.1059  0.0899
16431TIP3    H270785   2.912   6.437  12.134  0.9792 -0.2294 -0.5490
16432TIP3   OH270786   3.614   4.577   2.965  0.1922  0.1892 -0.5342
16432TIP3    H170787   3.569   4.537   3.039  1.2199  1.0123  0.5674
16432TIP3    H270788   3.641   4.663   2.996  0.6735  0.5497 -1.8613
16433TIP3   OH270789   0.869   2.857  12.769 -0.1619  0.6957 -0.4669
16433TIP3    H170790   0.898   2.768  12.789  2.1335  1.7411  1.2944
16433TIP3    H270791   0.851   2.896  12.854 -1.2878  1.9261 -1.2225
16434TIP3   OH270792   3.850   1.286  13.511 -0.3624 -0.0910 -0.0621
16434TIP3    H170793   3.834   1.234  13.590 -0.7504  0.6102  0.3430
16434TIP3    H270794   3.945   1.289  13.502 -0.2956  0.1877  0.6462
16435TIP3   OH270795   2.981   2.348  11.364  0.0677  0.0185  0.5162
16435TIP3    H170796   3.049   2.316  11.303 -2.1049 -1.5480 -1.2588
16435TIP3    H270797   2.991   2.292  11.441 -0.3322 -1.4755 -0.4703
16436TIP3   OH270798   4.121   4.859   2.470  0.1259  1.1068 -0.4448
16436TIP3    H170799   4.187   4.834   2.406  0.3705  1.2180 -0.2400
16436TIP3    H270800   4.074   4.778   2.490 -1.0096  1.3567 -1.9424
16437TIP3   OH270801   0.776   6.793   1.120  0.3012 -0.2249  0.6276
16437TIP3    H170802   0.772   6.755   1.032  0.9769 -0.1591  0.5680
16437TIP3    H270803   0.687   6.781   1.155  0.1169 -0.5423  0.0624
16438TIP3   OH270804   1.612   1.773   3.431  0.1381  0.1846 -0.1180
16438TIP3    H170805   1.609   1.867   3.449 -2.0465  0.1137  0.1498
16438TIP3    H270806   1.676   1.739   3.494 -1.4072  1.0866  2.1064
16439TIP3   OH270807   4.508   2.458  11.340 -0.4922 -1.0632  0.3936
16439TIP3    H170808   4.564   2.397  11.387 -0.1722 -1.8036 -0.9219
16439TIP3    H270809   4.474   2.516  11.409  2.3282 -0.1744  1.1813
16440TIP3   OH270810   5.273   0.497   2.651 -0.6434  0.4410 -0.1462
16440TIP3    H170811   5.186   0.498   2.612 -1.1694 -0.0834  0.9585
16440TIP3    H270812   5.299   0.405   2.651 -1.2064  0.2498  1.8650
16441TIP3   OH270813   1.074   0.420  11.882 -0.4444  0.2724  0.5436
16441TIP3    H170814   0.987   0.385  11.899  0.8494 -2.0697  3.0865
16441TIP3    H270815   1.082   0.495  11.942 -0.5729  0.2667  0.5674
16442TIP3   OH270816   6.762   6.039  17.135  0.3040 -0.4344 -0.4077
16442TIP3    H170817   6.716   6.066  17.056 -1.5210 -0.6828  0.5126
16442TIP3    H270818   6.763   6.116  17.192  0.9083 -0.4783 -0.3412
16443TIP3   OH270819   6.609   1.200  12.936 -0.1458  0.0379 -0.7352
16443TIP3    H170820   6.547   1.180  12.866 -0.4198 -1.0187 -0.2215
16443TIP3    H270821   6.605   1.123  12.994 -0.8243  1.3638  1.0783
16444TIP3   OH270822   4.690   1.787   1.613  0.3694 -0.6919 -0.0487
16444TIP3    H170823   4.641   1.819   1.689  1.5300  0.9616  0.0571
16444TIP3    H270824   4.779   1.775   1.645  0.8371 -0.1518 -1.0864
16445TIP3   OH270825   3.570   1.179   3.214  0.1085 -0.2462  0.4989
16445TIP3    H170826   3.663   1.163   3.196  0.4453  1.5206  0.5314
16445TIP3    H270827   3.532   1.196   3.127  0.4978  2.1807  0.7367
16446TIP3   OH270828   5.585   0.357  14.918  0.1511  0.0924  0.0243
16446TIP3    H170829   5.504   0.315  14.946 -0.4370  1.0627 -0.1969
16446TIP3    H270830   5.649   0.285  14.913 -0.9659 -0.8709 -0.8609
16447TIP3   OH270831   5.292   4.590  12.413  0.5419  0.4657 -0.1151
16447TIP3    H170832   5.370   4.537  12.393  0.9863  1.2853 -0.6239
16447TIP3    H270833   5.288   4.591  12.509 -1.1104 -2.8026 -0.0109
16448TIP3   OH270834   1.841   1.608   3.134  0.2772 -0.6631 -0.7250
16448TIP3    H170835   1.903   1.547   3.095  1.3121 -1.2619  1.6369
16448TIP3    H270836   1.893   1.656   3.199 -0.8865  1.6006 -1.3760
16449TIP3   OH270837   6.348   0.013   1.993  0.4568  0.0429  0.3412
16449TIP3    H170838   6.263   0.046   2.021  0.8262  0.5167  0.9388
16449TIP3    H270839   6.355  -0.074   2.033 -1.0305 -1.3734 -2.2047
16450TIP3   OH270840   0.862   4.713  16.579  0.2931  0.3747 -0.3232
16450TIP3    H170841   0.893   4.665  16.502 -1.6591  0.1192 -0.9991
16450TIP3    H270842   0.776   4.746  16.553 -0.9826 -0.7600  2.1427
16451TIP3   OH270843   4.057   5.686   3.600  0.6144 -0.5196  0.0640
16451TIP3    H170844   4.090   5.698   3.511  2.1050  2.1997  0.8587
16451TIP3    H270845   3.966   5.717   3.595  0.6557 -0.4698 -0.5145
16452TIP3   OH270846   4.685   1.195   4.458  0.1876  0.2136  1.0790
16452TIP3    H170847   4.618   1.199   4.526 -0.5118 -3.1265  0.7331
16452TIP3    H270848   4.763   1.162   4.502 -0.3030 -2.0885  0.3400
16453TIP3   OH270849   2.150   1.974   1.673 -0.6351  0.1718 -0.7869
16453TIP3    H170850   2.110   1.919   1.606 -0.9339  0.0481 -0.5107
16453TIP3    H270851   2.139   1.925   1.755  0.3133  0.0148 -0.7377
16454TIP3   OH270852   5.375   2.851  12.261  0.1752 -0.5736 -0.5785
16454TIP3    H170853   5.337   2.864  12.348  1.6431 -0.0486  0.0139
16454TIP3    H270854   5.393   2.939  12.229 -1.3074 -0.6969 -1.9087
16455TIP3   OH270855   0.607   5.609  13.532  0.1558 -0.2092  0.3878
16455TIP3    H170856   0.530   5.591  13.587 -0.8952 -0.2704 -1.0298
16455TIP3    H270857   0.607   5.537  13.468  0.8284  0.3208 -0.2238
16456TIP3   OH270858   5.642   5.634   5.163  0.4777  1.0203  0.2948
16456TIP3    H170859   5.621   5.613   5.072  2.4276 -1.8652  0.3924
16456TIP3    H270860   5.726   5.592   5.179  0.7972  2.4626  3.1169
16457TIP3   OH270861   2.317   3.278  16.633 -0.3049 -0.1864  0.5301
16457TIP3    H170862   2.371   3.348  16.669  0.9044 -0.0545 -1.4120
16457TIP3    H270863   2.267   3.320  16.563  0.5718 -1.2726 -0.7834
16458TIP3   OH270864   3.880   1.713   1.201 -0.0633 -0.2321  0.0620
16458TIP3    H170865   3.973   1.692   1.211 -0.2415 -1.3732 -0.5528
16458TIP3    H270866   3.865   1.784   1.264  0.7768 -1.3748  1.6444
16459TIP3   OH270867   1.944   3.220  12.712 -0.4363 -0.1904  0.0750
16459TIP3    H170868   1.956   3.128  12.687 -1.4390 -0.5820  0.9416
16459TIP3    H270869   2.010   3.235  12.780  0.1911 -0.0552 -0.5565
16460TIP3   OH270870   5.158   2.219  16.285  0.0218  0.2579 -0.3695
16460TIP3    H170871   5.172   2.177  16.369  3.3150  0.5172 -0.6396
16460TIP3    H270872   5.191   2.156  16.221  1.3226  1.5860 -1.0829
16461TIP3   OH270873   4.692   3.273   2.844  0.0657 -0.0411 -0.3768
16461TIP3    H170874   4.750   3.347   2.863  0.9847 -0.7490 -0.3779
16461TIP3    H270875   4.731   3.231   2.767  0.0927 -1.0805  0.1917
16462TIP3   OH270876   4.791   5.495  15.684 -0.3201  0.0298 -0.1948
16462TIP3    H170877   4.823   5.530  15.600 -0.5075  0.1470 -0.2200
16462TIP3    H270878   4.834   5.549  15.750  0.5473 -0.6613 -0.1775
16463TIP3   OH270879   6.039   4.839  12.675 -0.0777  0.6885 -0.3395
16463TIP3    H170880   5.971   4.780  12.708 -1.8917  2.0755 -1.4208
16463TIP3    H270881   6.084   4.869  12.754  0.5686 -1.6792  0.2747
16464TIP3   OH270882   2.687   1.859  11.449  0.3595 -0.2449  0.2418
16464TIP3    H170883   2.669   1.843  11.542  1.0594 -1.0287  0.2578
16464TIP3    H270884   2.775   1.824  11.436  0.0887 -0.5576 -0.8267
16465TIP3   OH270885   4.408   0.689  11.847  0.6222 -0.1178 -0.1854
16465TIP3    H170886   4.464   0.754  11.806 -0.3405  0.9937  0.2202
16465TIP3    H270887   4.466   0.644  11.909  1.4223 -0.0128 -0.8414
16466TIP3   OH270888   0.726   3.645  14.526 -0.4357 -0.1704  0.2801
16466TIP3    H170889   0.816   3.623  14.548 -0.8707 -2.1473  0.2473
16466TIP3    H270890   0.734   3.713  14.459  0.9771  0.6817  1.2549
16467TIP3   OH270891   2.056   6.574  13.288  0.7368  0.8140  0.1550
16467TIP3    H170892   1.966   6.606  13.295  0.6855  0.9963 -1.0872
16467TIP3    H270893   2.110   6.649  13.314  0.5449  0.0808  2.9861
16468TIP3   OH270894   6.372   6.042   3.162  0.4071  0.4570 -0.3024
16468TIP3    H170895   6.420   6.035   3.079  0.5215 -0.5554 -0.1628
16468TIP3    H270896   6.283   6.016   3.140  0.4624  0.0876 -0.0856
16469TIP3   OH270897   5.044   0.527   0.525  0.0110  0.2547  0.0322
16469TIP3    H170898   5.008   0.504   0.439  2.9495 -0.7832 -1.0236
16469TIP3    H270899   4.995   0.606   0.550 -2.0482 -0.3320 -1.7965
16470TIP3   OH270900   3.234   3.707   9.961  0.6056  0.6404  0.2319
16470TIP3    H170901   3.226   3.770   9.889  0.5900  2.0813  1.4490
16470TIP3    H270902   3.327   3.707   9.982  0.6578 -0.0137  0.0211
16471TIP3   OH270903   0.164   6.096  14.154 -0.5148 -0.1177  0.0360
16471TIP3    H170904   0.095   6.095  14.088 -0.3243 -3.0638 -0.2429
16471TIP3    H270905   0.171   6.188  14.180 -0.9540  1.1107 -3.6273
16472TIP3   OH270906   2.422   4.214  15.529  0.2659 -0.3582  0.6082
16472TIP3    H170907   2.516   4.223  15.510  0.5399 -2.1968  0.8542
16472TIP3    H270908   2.391   4.303  15.538  2.1733  0.2946  1.3589
16473TIP3   OH270909   2.875   2.354  12.253 -0.1257 -0.9735 -0.5338
16473TIP3    H170910   2.819   2.278  12.238 -1.0635 -0.4010  0.0016
16473TIP3    H270911   2.823   2.428  12.223  2.0577 -0.7360 -4.4585
16474TIP3   OH270912   2.435   1.589  16.524  0.0590  0.4871 -0.0906
16474TIP3    H170913   2.444   1.608  16.430  1.6182 -0.2299 -0.1194
16474TIP3    H270914   2.469   1.667  16.568  3.5235 -0.7665 -0.2022
16475TIP3   OH270915   0.891   1.891  15.187  0.0894 -0.2106 -0.1215
16475TIP3    H170916   0.973   1.869  15.143  0.8300  0.4411  0.8935
16475TIP3    H270917   0.911   1.886  15.280 -0.9772  0.1492  0.1451
16476TIP3   OH270918   1.367   6.584  12.260 -0.6278 -0.1984 -0.5141
16476TIP3    H170919   1.344   6.569  12.168 -0.4813 -0.9458 -0.4363
16476TIP3    H270920   1.403   6.673  12.262  0.2059 -0.5005 -1.3375
16477TIP3   OH270921   3.845   0.138   5.149  0.0261  0.1219  0.2684
16477TIP3    H170922   3.817   0.052   5.181  1.2316 -0.6389 -0.6167
16477TIP3    H270923   3.907   0.169   5.215 -1.1512  0.8153  1.1055
16478TIP3   OH270924   4.633   4.198  13.495  0.4870 -0.2080 -0.1567
16478TIP3    H170925   4.683   4.132  13.445  1.2946  0.7652 -0.6690
16478TIP3    H270926   4.551   4.154  13.517  0.7855 -1.2047 -0.9501
16479TIP3   OH270927   6.109   4.537  15.851  0.1699 -0.8417  0.3812
16479TIP3    H170928   6.183   4.565  15.797 -0.2170 -0.3768  0.0921
16479TIP3    H270929   6.036   4.592  15.824 -0.8541 -2.6423 -0.7894
16480TIP3   OH270930   3.406   1.274  15.527  0.1407  0.6518 -0.3228
16480TIP3    H170931   3.478   1.274  15.464 -0.0112  0.8792 -0.5028
16480TIP3    H270932   3.418   1.355  15.577  1.2990 -0.4019  1.1725
16481TIP3   OH270933   3.095   5.501   4.250  0.2753  0.7158 -1.0523
16481TIP3    H170934   3.011   5.507   4.205  0.1237  1.7443 -0.6727
16481TIP3    H270935   3.075   5.457   4.332  0.4665 -0.7343 -1.7615
16482TIP3   OH270936   6.421   4.845   5.195  0.1082 -0.3601  0.8993
16482TIP3    H170937   6.431   4.890   5.111 -0.9542  0.1719  1.0346
16482TIP3    H270938   6.405   4.916   5.258  1.2141 -0.7219  1.6159
16483TIP3   OH270939   5.141   1.044   0.199 -0.4196  0.3345 -0.0513
16483TIP3    H170940   5.215   0.988   0.224 -0.7932 -0.8985 -1.5839
16483TIP3    H270941   5.069   1.013   0.254 -0.2170  0.4163  0.2634
16484TIP3   OH270942   0.031   5.162   1.323  0.3545  0.2688 -0.5362
16484TIP3    H170943  -0.015   5.140   1.404  2.8138 -0.5962  0.7164
16484TIP3    H270944   0.016   5.256   1.312  0.8503  0.6425  1.5589
16485TIP3   OH270945   6.710   1.051  16.596 -0.1501 -0.2449 -0.0569
16485TIP3    H170946   6.791   1.096  16.621  0.1608 -0.4471 -0.6867
16485TIP3    H270947   6.658   1.118  16.552  0.0341 -0.3301 -0.4068
16486TIP3   OH270948   4.635   1.577  15.691  0.2009 -0.1133 -0.0940
16486TIP3    H170949   4.552   1.531  15.707  0.2115 -0.8477 -1.9264
16486TIP3    H270950   4.614   1.669  15.707 -0.2238 -0.5420  2.1201
16487TIP3   OH270951   2.364   1.012   2.203  0.0922  0.5056 -0.4205
16487TIP3    H170952   2.405   1.070   2.139  1.6158 -0.2044 -0.1401
16487TIP3    H270953   2.381   1.055   2.288  1.4463 -0.4387 -0.1905
16488TIP3   OH270954   6.248   0.070  12.691  0.6188 -0.8123  0.7746
16488TIP3    H170955   6.314   0.061  12.622  0.2507 -0.5054  0.3778
16488TIP3    H270956   6.250   0.163  12.715 -1.0427 -0.3451 -0.6517
16489TIP3   OH270957   4.475   2.988  14.448 -0.2666  0.5233  0.2772
16489TIP3    H170958   4.543   3.002  14.514 -0.8032  1.2392  0.6986
16489TIP3    H270959   4.474   3.070  14.397 -0.4362  0.3021 -0.0806
16490TIP3   OH270960   4.826   1.850  15.854  0.3393  0.0362 -0.7674
16490TIP3    H170961   4.832   1.816  15.943  0.9343 -0.4897 -1.0006
16490TIP3    H270962   4.734   1.837  15.829  0.9380 -3.6134 -1.6591
16491TIP3   OH270963   0.330   3.382   0.438 -0.4655  0.3111 -0.1327
16491TIP3    H170964   0.423   3.369   0.460 -0.4141 -1.0511 -1.0035
16491TIP3    H270965   0.321   3.476   0.427  0.7648  0.4914  0.1910
16492TIP3   OH270966   2.558   1.342   2.924 -0.5769  0.0058 -0.5061
16492TIP3    H170967   2.627   1.281   2.949  0.1734  1.7751  2.3120
16492TIP3    H270968   2.476   1.295   2.943 -0.0743 -0.9226 -0.5963
16493TIP3   OH270969   3.781   1.359   4.784 -0.5054  0.2772 -0.5508
16493TIP3    H170970   3.718   1.390   4.718 -0.3913 -1.4324 -1.4951
16493TIP3    H270971   3.859   1.413   4.769 -0.5585  0.0758 -1.6717
16494TIP3   OH270972   5.404   3.356  11.344 -0.5724 -0.4797 -0.4585
16494TIP3    H170973   5.395   3.283  11.283 -1.4410 -2.2046  1.6056
16494TIP3    H270974   5.465   3.325  11.411  0.2540  1.2945 -0.3128
16495TIP3   OH270975   6.664   1.408  11.649  0.5514 -0.1904  0.0643
16495TIP3    H170976   6.728   1.473  11.679  0.5954 -0.5269  0.6979
16495TIP3    H270977   6.624   1.449  11.571  2.1412 -0.3408 -0.8714
16496TIP3   OH270978   6.013   0.324   3.279 -0.2345 -0.7819 -0.0193
16496TIP3    H170979   5.986   0.403   3.326 -1.5400 -1.0442 -0.2950
16496TIP3    H270980   5.936   0.268   3.280  0.4137 -1.7120 -0.5713
16497TIP3   OH270981   1.736   2.312   0.058  0.2432 -0.6598  0.8549
16497TIP3    H170982   1.642   2.323   0.067  0.2007 -0.5387  0.2897
16497TIP3    H270983   1.752   2.219   0.069 -0.2250 -1.0582 -1.4014
16498TIP3   OH270984   2.285   1.933  12.166 -0.3995  0.6783  0.7010
16498TIP3    H170985   2.204   1.950  12.118  0.9040  1.8588 -1.2305
16498TIP3    H270986   2.263   1.952  12.257 -2.7848 -0.9438  0.5763
16499TIP3   OH270987   3.408   1.741   5.712  0.2407  0.3269  0.2006
16499TIP3    H170988   3.376   1.813   5.766  0.1210  2.1710 -2.1565
16499TIP3    H270989   3.485   1.776   5.667 -1.3199  0.0301 -3.0326
16500TIP3   OH270990   3.904   4.920   0.080 -0.0702 -0.1131  0.2840
16500TIP3    H170991   3.943   4.853   0.136  0.6842  0.0662 -0.0247
16500TIP3    H270992   3.957   4.998   0.095 -1.1907  0.5364  0.9465
16501TIP3   OH270993   2.739   6.151  14.769  0.0355 -0.4026 -0.5545
16501TIP3    H170994   2.746   6.091  14.695  0.4835 -0.5380 -0.4020
16501TIP3    H270995   2.785   6.230  14.741  1.0303 -0.7979 -0.0676
16502TIP3   OH270996   3.735   0.402   3.958 -0.1090  0.2255 -0.1405
16502TIP3    H170997   3.821   0.360   3.955  0.1493  0.4978  1.8175
16502TIP3    H270998   3.699   0.390   3.871  1.6127 -0.5424 -0.7907
16503TIP3   OH270999   6.020   2.334   5.059 -0.4994  0.4096  0.2341
16503TIP3    H171000   5.961   2.267   5.094  1.0237 -0.4651  1.2181
16503TIP3    H271001   6.032   2.396   5.131  3.5588 -2.0020  1.9149
16504TIP3   OH271002   4.194   4.749  13.067  0.2907 -0.0953  0.2362
16504TIP3    H171003   4.145   4.712  12.994 -1.4535  1.3268  0.6424
16504TIP3    H271004   4.226   4.833  13.035 -1.5646  1.1317  1.4507
16505TIP3   OH271005   5.428   0.231   0.882  0.5296  0.1477  0.0433
16505TIP3    H171006   5.492   0.204   0.816  0.5608 -1.0908  0.5671
16505TIP3    H271007   5.346   0.188   0.856  0.6040 -0.5594  0.9392
16506TIP3   OH271008   5.185   1.978  16.856  0.1750  0.2185 -0.1322
16506TIP3    H171009   5.263   1.954  16.805 -0.7104 -2.2298 -0.4775
16506TIP3    H271010   5.118   1.915  16.829 -1.6859  1.6441  0.8448
16507TIP3   OH271011   5.011   2.208   5.612  0.1995  0.1854  0.3431
16507TIP3    H171012   5.022   2.139   5.677 -0.0746 -0.8181 -0.6450
16507TIP3    H271013   5.011   2.162   5.528  0.1777  1.4096 -0.3494
16508TIP3   OH271014   6.469   4.186  14.568  0.1129  0.7490 -0.3403
16508TIP3    H171015   6.472   4.181  14.472  0.0733 -0.0684 -0.3059
16508TIP3    H271016   6.561   4.184  14.595  0.2407  2.9179 -0.4220
16509TIP3   OH271017   2.870   3.923  16.086  0.0545 -0.2646 -0.2167
16509TIP3    H171018   2.783   3.956  16.110  0.6015  2.1458 -1.2074
16509TIP3    H271019   2.877   3.839  16.132 -2.8962 -0.7156 -0.3800
16510TIP3   OH271020   5.730   4.286   0.037  0.7337 -0.4567 -0.5204
16510TIP3    H171021   5.659   4.266   0.098  0.4259 -0.7137 -0.9522
16510TIP3    H271022   5.740   4.206  -0.015  0.8932 -0.2001 -0.8954
16511TIP3   OH271023   5.406   6.115  15.170  0.5079 -0.1573 -0.2488
16511TIP3    H171024   5.321   6.095  15.208  1.2703 -4.4460 -0.3317
16511TIP3    H271025   5.386   6.159  15.088 -1.3280  3.3837  1.8858
16512TIP3   OH271026   0.379   2.225  11.531 -0.3764  0.8641 -0.5477
16512TIP3    H171027   0.301   2.279  11.542 -1.8824 -0.9975 -1.5004
16512TIP3    H271028   0.440   2.256  11.597 -2.9758  0.5624  2.1752
16513TIP3   OH271029   6.261   5.519  16.283 -0.1258 -0.0587  0.2033
16513TIP3    H171030   6.207   5.441  16.291  1.2606 -1.2010 -0.9811
16513TIP3    H271031   6.340   5.489  16.238  0.8387  1.8493  0.5145
16514TIP3   OH271032   0.782   2.075  16.626 -0.4970  0.1306 -0.2373
16514TIP3    H171033   0.850   2.047  16.686 -1.7724  0.6688  1.5300
16514TIP3    H271034   0.822   2.145  16.574  0.3406  0.3292  0.6554
16515TIP3   OH271035   2.946   2.029  15.891 -0.1324 -0.3818 -0.1100
16515TIP3    H171036   2.915   2.119  15.878 -1.2113 -0.4917  1.4339
16515TIP3    H271037   2.899   1.978  15.825  0.7133  0.2031 -1.1940
16516TIP3   OH271038   0.547   4.699   6.305  0.1813  0.1994  0.1848
16516TIP3    H171039   0.509   4.622   6.349 -1.9380  0.8338 -0.4071
16516TIP3    H271040   0.584   4.664   6.224 -1.2252 -0.1860 -0.3335
16517TIP3   OH271041   3.672   4.423  13.957  0.0509 -0.3938  0.2104
16517TIP3    H171042   3.703   4.405  13.869 -0.7277 -0.7287 -0.0042
16517TIP3    H271043   3.585   4.384  13.960  0.5486 -1.4767  1.5283
16518TIP3   OH271044   0.768   1.034   1.737  0.3428 -0.0990 -0.0383
16518TIP3    H171045   0.690   1.027   1.792  0.1035 -1.3667 -0.4961
16518TIP3    H271046   0.807   0.946   1.739  2.9099  0.9365  1.7818
16519TIP3   OH271047   5.705   6.085   3.020 -0.4110 -0.0024  0.6044
16519TIP3    H171048   5.677   6.009   3.071 -0.0704  0.0207  0.8281
16519TIP3    H271049   5.720   6.153   3.085  0.7867 -0.2002  0.5592
16520TIP3   OH271050   1.676   5.496  16.746  0.6932  0.4659  0.2612
16520TIP3    H171051   1.667   5.494  16.841 -1.5939 -2.1760  0.1058
16520TIP3    H271052   1.733   5.422  16.725  0.9322  0.8422 -0.4606
16521TIP3   OH271053   6.262   5.878  13.440 -0.3038  0.2356  0.1776
16521TIP3    H171054   6.187   5.825  13.469  0.4388 -1.2166 -0.4043
16521TIP3    H271055   6.331   5.813  13.424  0.1255  1.1910 -2.2692
16522TIP3   OH271056   4.249   3.657   4.985  0.0078  0.4031 -0.3867
16522TIP3    H171057   4.247   3.707   4.903  0.3703  1.2179  0.0915
16522TIP3    H271058   4.243   3.723   5.054 -1.0556 -0.3174  0.2501
16523TIP3   OH271059   1.718   3.495   1.483  0.6806 -0.2056 -0.3576
16523TIP3    H171060   1.646   3.557   1.497 -0.4682 -1.7312  0.9201
16523TIP3    H271061   1.745   3.510   1.392 -0.6095  1.0598 -0.5771
16524TIP3   OH271062   0.249   5.751  12.147  0.3815 -0.0281 -0.0093
16524TIP3    H171063   0.313   5.795  12.093 -0.8177  0.1344 -1.3562
16524TIP3    H271064   0.251   5.660  12.118  1.7034 -0.5950  1.6536
16525TIP3   OH271065   3.703   1.854   2.765  0.2281  0.1370  0.4972
16525TIP3    H171066   3.765   1.788   2.794  1.3949  0.9741  0.0155
16525TIP3    H271067   3.732   1.935   2.807  1.2979  1.1500 -1.9612
16526TIP3   OH271068   5.083   2.974  11.893  0.3091  0.5077 -0.3434
16526TIP3    H171069   5.161   2.984  11.838  2.3388 -1.2028  1.9977
16526TIP3    H271070   5.024   2.919  11.842  2.3865 -1.5840 -0.6749
16527TIP3   OH271071   5.530   0.963  15.492  0.1122  0.3205  0.3106
16527TIP3    H171072   5.458   0.900  15.491 -0.7021  1.1918  1.4697
16527TIP3    H271073   5.606   0.912  15.522 -0.8718  0.1479  2.7912
16528TIP3   OH271074   2.881   3.534  15.601 -0.2013  0.0712  0.7040
16528TIP3    H171075   2.815   3.588  15.558  0.4530  1.0121  0.8486
16528TIP3    H271076   2.927   3.489  15.530  0.5897  1.2820  0.4232
16529TIP3   OH271077   3.972   1.940   3.004  0.1868  0.5845  0.9153
16529TIP3    H171078   4.034   2.006   3.034 -0.1637  0.2695  2.4073
16529TIP3    H271079   3.907   1.934   3.074 -0.3778 -0.5809  0.3271
16530TIP3   OH271080   3.051   1.998   4.609  0.0267  0.4637  0.1231
16530TIP3    H171081   2.962   2.028   4.626 -0.2774  0.6953 -1.6925
16530TIP3    H271082   3.041   1.905   4.588  0.1917  0.5285 -0.2452
16531TIP3   OH271083   2.406   0.280   4.264  0.9079 -0.1249 -0.4584
16531TIP3    H171084   2.429   0.251   4.176  0.0843 -0.1250 -0.6774
16531TIP3    H271085   2.407   0.201   4.317  1.9445 -0.0487 -0.3362
16532TIP3   OH271086   2.225   3.928   3.461 -0.0848 -0.3051 -0.2682
16532TIP3    H171087   2.223   3.833   3.470  0.0625 -0.2404  0.4959
16532TIP3    H271088   2.199   3.961   3.547  2.4970  0.3412  0.3513
16533TIP3   OH271089   0.279   4.904   2.072  0.4216  0.4087 -0.3313
16533TIP3    H171090   0.207   4.940   2.021  0.3587  1.1965  0.2886
16533TIP3    H271091   0.260   4.810   2.077 -0.7729  0.6522  0.1288
16534TIP3   OH271092   3.690   5.012   1.204 -0.0366 -0.3034  0.1575
16534TIP3    H171093   3.618   4.997   1.265 -0.3347 -0.7351 -0.2849
16534TIP3    H271094   3.647   5.039   1.123  0.4025  1.1070  0.3748
16535TIP3   OH271095   3.968   3.848   0.263 -0.2274 -0.2245  0.3377
16535TIP3    H171096   3.907   3.775   0.266  1.2577 -1.5904 -0.8929
16535TIP3    H271097   3.984   3.870   0.354 -1.1679 -1.0277  0.7157
16536TIP3   OH271098   3.860   4.623   1.297 -0.0521 -0.3803 -0.5368
16536TIP3    H171099   3.824   4.664   1.218 -1.7327  1.4941  1.0633
16536TIP3    H271100   3.860   4.694   1.362  1.5583 -1.7690  1.0873
16537TIP3   OH271101   5.213   4.772   0.794  0.4083 -0.5048  0.3068
16537TIP3    H171102   5.267   4.814   0.862  1.1117  0.0198 -0.5532
16537TIP3    H271103   5.219   4.679   0.814  0.1835 -0.3239  1.2702
16538TIP3   OH271104   3.203   4.748  13.656  0.8108  0.0481  0.2790
16538TIP3    H171105   3.276   4.788  13.703  0.0062  0.7251  0.9683
16538TIP3    H271106   3.240   4.669  13.617  2.3936  1.3086 -0.9384
16539TIP3   OH271107   2.090   4.133   1.402  0.6148  0.0899  0.1752
16539TIP3    H171108   1.995   4.144   1.407  0.8532  2.2722  1.3729
16539TIP3    H271109   2.122   4.211   1.356  1.9431  0.3967  1.5117
16540TIP3   OH271110   0.268   4.311   3.819 -0.1747  0.7999 -0.3852
16540TIP3    H171111   0.248   4.229   3.864 -1.9906  1.6605  0.4725
16540TIP3    H271112   0.293   4.372   3.889  0.1869  1.2644 -0.9073
16541TIP3   OH271113   1.513   1.098   3.882 -0.2979 -0.4607 -0.0371
16541TIP3    H171114   1.572   1.101   3.807  0.5059 -0.5429  0.5820
16541TIP3    H271115   1.552   1.156   3.947 -0.4989 -1.0785  0.6583
16542TIP3   OH271116   0.909   1.868  12.810 -0.4044 -0.1921  0.1330
16542TIP3    H171117   1.003   1.851  12.802 -0.3404  0.1845  0.0945
16542TIP3    H271118   0.894   1.874  12.904 -0.1774  0.9293  0.1094
16543TIP3   OH271119   1.329   1.741   0.857 -0.0908  0.4337 -0.5368
16543TIP3    H171120   1.272   1.788   0.796 -1.3368 -1.7074 -1.1141
16543TIP3    H271121   1.284   1.748   0.941  0.9866  2.2950 -0.0529
16544TIP3   OH271122   5.847   5.838   0.484  0.0408 -0.2648 -0.3822
16544TIP3    H171123   5.913   5.900   0.516  0.6117 -1.0347 -0.0113
16544TIP3    H271124   5.895   5.755   0.474 -0.2908 -0.2762 -2.4724
16545TIP3   OH271125   0.333   4.607  13.265 -0.1696  0.0108 -0.0459
16545TIP3    H171126   0.427   4.622  13.260  0.3238 -1.1542  3.2015
16545TIP3    H271127   0.299   4.684  13.311 -0.6743 -0.0447 -0.3190
16546TIP3   OH271128   4.900   2.042  14.838 -0.0266  0.5545  0.0650
16546TIP3    H171129   4.826   2.059  14.897  1.1585  0.1001  1.7778
16546TIP3    H271130   4.869   2.070  14.752 -1.8965  1.1224  0.8594
16547TIP3   OH271131   2.171   0.241  12.971 -0.0890  0.0848  0.5250
16547TIP3    H171132   2.149   0.207  12.884 -0.6406  0.9450  0.3154
16547TIP3    H271133   2.128   0.326  12.974 -1.2721 -0.5227  2.1779
16548TIP3   OH271134   0.967   1.060   1.060 -0.1053  0.2962 -0.1447
16548TIP3    H171135   0.952   1.005   0.983  0.3077 -2.1384  1.4047
16548TIP3    H271136   1.060   1.053   1.077  0.3615  3.1160 -0.9568
16549TIP3   OH271137   3.669   3.358  11.956 -0.6095  0.0779 -0.4308
16549TIP3    H171138   3.620   3.421  12.009 -0.2482 -0.9242  1.1438
16549TIP3    H271139   3.739   3.328  12.012 -0.7012 -1.6523 -1.1793
16550TIP3   OH271140   3.903   6.484   1.667  0.0212  0.2916 -0.6031
16550TIP3    H171141   3.928   6.427   1.594 -1.7120  3.9152 -4.4236
16550TIP3    H271142   3.962   6.559   1.661 -0.1455  0.7165  1.8824
16551TIP3   OH271143   5.259   4.501  13.468 -0.5732  0.3857  0.2175
16551TIP3    H171144   5.353   4.517  13.475 -0.1257 -1.6674 -0.2699
16551TIP3    H271145   5.250   4.446  13.389 -2.0028 -0.5860  1.0056
16552TIP3   OH271146   6.300   2.641  15.703  0.4710 -0.4499 -0.0161
16552TIP3    H171147   6.382   2.602  15.732  0.3012  0.0124  1.1586
16552TIP3    H271148   6.282   2.600  15.619  2.5211  0.3562 -0.9096
16553TIP3   OH271149   6.118   0.383   5.607  0.2445  0.4594  0.3956
16553TIP3    H171150   6.149   0.310   5.555  0.8922 -0.2691  1.7544
16553TIP3    H271151   6.026   0.392   5.583  0.7162  0.7238 -1.4838
16554TIP3   OH271152   3.609   4.138  12.543  0.6660 -0.1122  0.3734
16554TIP3    H171153   3.645   4.169  12.460 -1.4531  0.9349 -0.2342
16554TIP3    H271154   3.520   4.110  12.522  0.1618 -0.0610  2.2257
16555TIP3   OH271155   5.294   1.999   5.022 -0.2525 -0.0951 -0.3007
16555TIP3    H171156   5.377   1.999   4.974  0.5645 -0.7956  1.0510
16555TIP3    H271157   5.281   2.091   5.046  0.0155  0.0556 -0.7159
16556TIP3   OH271158   0.189   3.739   3.398 -0.4614 -0.6932 -0.1373
16556TIP3    H171159   0.096   3.747   3.421 -0.6085 -1.5014 -0.3959
16556TIP3    H271160   0.191   3.667   3.335  0.3462 -0.6829 -0.1285
16557TIP3   OH271161   5.449   4.852  15.108  0.0465  0.1085  0.2376
16557TIP3    H171162   5.384   4.825  15.172  0.2582  0.6714  0.6998
16557TIP3    H271163   5.406   4.839  15.023 -0.8346  0.8951  0.5513
16558TIP3   OH271164   4.332   2.729   3.504  0.0493  0.1060 -0.8245
16558TIP3    H171165   4.298   2.714   3.415  1.1830 -2.2708 -0.9387
16558TIP3    H271166   4.418   2.768   3.490  0.3762 -0.5901 -0.8161
16559TIP3   OH271167   0.224   0.110   2.355  0.4296 -0.6125  0.1210
16559TIP3    H171168   0.155   0.045   2.365  0.8238 -1.1068 -0.3136
16559TIP3    H271169   0.178   0.192   2.335  0.0255 -1.2390 -1.6325
16560TIP3   OH271170   6.455   5.355  14.288 -0.1479 -0.3557 -0.4127
16560TIP3    H171171   6.527   5.418  14.290 -0.2802 -0.0643 -2.4236
16560TIP3    H271172   6.487   5.284  14.233 -1.1174 -0.5655 -0.7292
16561TIP3   OH271173   3.070   6.586   3.420  0.3206 -0.1852 -0.6696
16561TIP3    H171174   2.988   6.537   3.413 -0.3042  0.9986 -2.4267
16561TIP3    H271175   3.124   6.553   3.347  1.3281 -0.7596  0.3040
16562TIP3   OH271176   2.557   5.581   3.857 -0.7368  0.3276 -1.1852
16562TIP3    H171177   2.509   5.580   3.940  1.7851  0.4479  0.4002
16562TIP3    H271178   2.625   5.514   3.869  1.0837  1.8810 -2.2194
16563TIP3   OH271179   3.041   3.059  13.541  0.0009 -0.5493 -0.7256
16563TIP3    H171180   3.118   3.113  13.523 -0.5271  0.4179 -0.1669
16563TIP3    H271181   2.971   3.098  13.488  0.1137 -2.0811 -2.0838
16564TIP3   OH271182   2.265   0.212   1.108 -0.1309 -0.0508  0.6131
16564TIP3    H171183   2.260   0.281   1.174  0.9059 -0.3445  1.0228
16564TIP3    H271184   2.183   0.163   1.118 -1.0125  1.2589  0.1309
16565TIP3   OH271185   4.796   2.409   5.595 -0.4547 -0.4198 -0.3773
16565TIP3    H171186   4.870   2.349   5.598 -0.1566 -0.0269  0.7317
16565TIP3    H271187   4.731   2.370   5.653 -0.6760 -0.2198 -0.4923
16566TIP3   OH271188   6.737   5.810  16.781  0.2004  0.1107 -0.2171
16566TIP3    H171189   6.776   5.846  16.702 -2.7610  2.0009 -1.0068
16566TIP3    H271190   6.799   5.831  16.851  1.7042  0.6826 -1.6649
16567TIP3   OH271191   5.510   4.694  12.778 -0.4548  0.0240 -0.6204
16567TIP3    H171192   5.591   4.738  12.805  0.2958 -0.9075 -1.2704
16567TIP3    H271193   5.461   4.761  12.731 -1.3535  1.4113  2.0811
16568TIP3   OH271194   5.500   1.421   1.837  0.6078 -0.2914 -0.0341
16568TIP3    H171195   5.425   1.362   1.848  1.2123 -1.3645 -1.3560
16568TIP3    H271196   5.549   1.384   1.763  0.3993  2.5048 -1.7201
16569TIP3   OH271197   5.101   3.281  16.181  0.8339 -0.7142 -0.4091
16569TIP3    H171198   5.177   3.241  16.223  1.8744 -0.6801 -2.1616
16569TIP3    H271199   5.138   3.352  16.128 -0.8317  1.8557  1.6599
16570TIP3   OH271200   5.182   3.012   0.654 -0.7009  0.1425  0.2387
16570TIP3    H171201   5.141   3.091   0.687 -0.8613  0.8445 -1.5716
16570TIP3    H271202   5.123   2.980   0.586  0.0991 -0.7044 -0.0804
16571TIP3   OH271203   2.792   6.406  12.430 -0.0888  0.3309 -0.3068
16571TIP3    H171204   2.734   6.391  12.505 -2.4695  3.2246 -1.3865
16571TIP3    H271205   2.771   6.334  12.370  0.5304 -0.9760  0.9681
16572TIP3   OH271206   3.089   6.273  16.115 -0.6471  0.0174  0.0228
16572TIP3    H171207   3.035   6.314  16.047 -1.7632 -0.0872  0.8258
16572TIP3    H271208   3.096   6.181  16.088 -0.8940  0.0236 -0.0604
16573TIP3   OH271209   4.384   0.895   0.522  0.0498  0.3901  0.1855
16573TIP3    H171210   4.328   0.895   0.600 -0.6975 -0.1943 -0.3239
16573TIP3    H271211   4.388   0.803   0.496 -0.5135  0.6688 -1.0008
16574TIP3   OH271212   1.189   1.411  16.742  0.0614 -0.0341 -0.0252
16574TIP3    H171213   1.218   1.359  16.817 -2.3056  0.6931  1.5342
16574TIP3    H271214   1.209   1.501  16.766 -2.2955  0.3912  0.6677
16575TIP3   OH271215   1.545   3.983  10.107  0.2774  0.1167  0.2087
16575TIP3    H171216   1.615   3.920  10.088  0.2451  0.4162 -0.9459
16575TIP3    H271217   1.489   3.937  10.169  1.6014 -0.0544  1.3299
16576TIP3   OH271218   3.249   1.724   1.482  0.0225 -0.4879 -0.0026
16576TIP3    H171219   3.246   1.754   1.573  0.2959 -0.3937 -0.0229
16576TIP3    H271220   3.295   1.641   1.486  4.1736  1.5132 -0.5343
16577TIP3   OH271221   5.861   3.608   0.710 -0.6029 -0.2793 -0.2890
16577TIP3    H171222   5.956   3.597   0.717 -0.8552 -2.0190  0.9538
16577TIP3    H271223   5.847   3.630   0.618  0.8101 -2.4518 -1.1138
16578TIP3   OH271224   0.762   3.129   0.552 -0.5997 -0.2478  0.4404
16578TIP3    H171225   0.704   3.058   0.526 -2.3058  0.7027  1.4791
16578TIP3    H271226   0.824   3.089   0.613 -2.0999 -0.7263  1.7214
16579TIP3   OH271227   2.903   6.040   4.123 -0.1685  0.1648  0.6703
16579TIP3    H171228   2.819   6.030   4.167  0.3225 -1.8833  1.2433
16579TIP3    H271229   2.918   5.956   4.079  1.5642  0.4699  0.5953
16580TIP3   OH271230   6.764   4.084   0.650 -0.1431  0.2806  0.0850
16580TIP3    H171231   6.844   4.099   0.701 -1.3027  0.1745  2.0056
16580TIP3    H271232   6.792   4.097   0.559  2.0227  0.3785  0.6950
16581TIP3   OH271233   5.925   5.703   2.729  0.1052  0.9395  0.2016
16581TIP3    H171234   5.863   5.636   2.758  1.3417 -0.0368  0.6413
16581TIP3    H271235   5.913   5.775   2.791  1.0775 -0.2036  1.7899
16582TIP3   OH271236   2.546   0.400   2.677  0.0035  0.1092 -0.1911
16582TIP3    H171237   2.610   0.331   2.695  1.0808  1.2357  0.4402
16582TIP3    H271238   2.577   0.439   2.595 -0.6138 -0.1524 -0.5557
16583TIP3   OH271239   3.485   6.345  13.284 -0.4814 -0.5319  0.3185
16583TIP3    H171240   3.463   6.438  13.287 -0.6348 -0.5711  0.3842
16583TIP3    H271241   3.483   6.323  13.191 -0.4838 -0.4793  0.3059
16584TIP3   OH271242   0.672   3.357  12.241  0.0218  0.1118 -0.6531
16584TIP3    H171243   0.603   3.416  12.210  0.4146  0.7100 -0.4258
16584TIP3    H271244   0.626   3.291  12.293 -0.3666  0.5995 -0.3657
16585TIP3   OH271245   5.456   1.636   0.238  0.0434  0.6071 -0.0114
16585TIP3    H171246   5.376   1.686   0.223 -0.8802 -0.2686  1.6973
16585TIP3    H271247   5.471   1.643   0.332 -0.0016 -2.0487  0.2792
16586TIP3   OH271248   2.973   1.861  12.714  0.4892 -0.4222  0.1772
16586TIP3    H171249   2.936   1.793  12.771  0.4384  0.7143  1.5601
16586TIP3    H271250   3.022   1.812  12.648  1.8819 -1.8045  2.1069
16587TIP3   OH271251   1.071   4.377   5.272  0.1350  0.3038 -0.0166
16587TIP3    H171252   1.134   4.318   5.314 -0.3998 -0.0744  0.2737
16587TIP3    H271253   1.082   4.460   5.318  0.1330  0.1229  0.3186
16588TIP3   OH271254   3.182   6.770   4.900  0.0814  0.2070  0.0409
16588TIP3    H171255   3.103   6.723   4.925 -0.0696  0.4505  0.0148
16588TIP3    H271256   3.235   6.772   4.980 -0.7191  1.6446  0.5567
16589TIP3   OH271257   3.000   0.701  11.714  0.0688  0.5605  0.0129
16589TIP3    H171258   3.092   0.684  11.734  0.5298  1.8879 -0.8784
16589TIP3    H271259   2.998   0.720  11.621 -1.4690 -1.6697 -0.5079
16590TIP3   OH271260   6.697   4.846   0.765 -0.8236 -0.6791  0.8134
16590TIP3    H171261   6.766   4.787   0.796 -1.4038 -1.2636  1.0272
16590TIP3    H271262   6.724   4.933   0.793 -0.7794 -1.0539  1.9977
16591TIP3   OH271263   1.067   1.904  16.540 -0.9576  0.3284  0.2317
16591TIP3    H171264   1.152   1.891  16.496 -0.8385  1.8783 -0.0387
16591TIP3    H271265   1.002   1.885  16.473 -0.7758  2.7393 -0.7371
16592TIP3   OH271266   5.636   5.365   6.468  0.1263  0.0290  0.5808
16592TIP3    H171267   5.593   5.450   6.462 -1.0605 -0.3920  2.2970
16592TIP3    H271268   5.566   5.302   6.449  0.7425 -0.6000  0.3536
16593TIP3   OH271269   5.920   4.782   3.955 -0.1323  0.3417 -0.6654
16593TIP3    H171270   5.960   4.831   4.026  0.2141 -1.4211  0.4199
16593TIP3    H271271   5.943   4.690   3.973 -1.0338 -0.2707 -2.3986
16594TIP3   OH271272   0.754   2.462  14.128 -0.0822 -0.3460  0.1155
16594TIP3    H171273   0.681   2.518  14.102  0.3469 -0.1385 -0.6867
16594TIP3    H271274   0.716   2.397  14.186 -0.6343  0.6671  0.9225
16595TIP3   OH271275   0.326   6.096   5.602 -0.4391 -0.5333  0.1801
16595TIP3    H171276   0.250   6.152   5.616  1.3232  1.7850  0.9639
16595TIP3    H271277   0.357   6.118   5.514  0.7897  0.4669  0.8292
16596TIP3   OH271278   6.069   1.364   0.622 -0.0835 -0.4204 -0.0917
16596TIP3    H171279   5.989   1.395   0.580 -0.6915 -2.0277 -0.1894
16596TIP3    H271280   6.100   1.293   0.566  1.5998  0.3661 -0.2166
16597TIP3   OH271281   1.320   3.763  12.723 -0.0501 -0.3608 -0.7286
16597TIP3    H171282   1.229   3.741  12.741 -0.6593  2.6877  0.5551
16597TIP3    H271283   1.371   3.702  12.776 -1.5728  0.9956  2.5847
16598TIP3   OH271284   3.163   3.743   4.264 -0.3670 -0.0534 -0.4162
16598TIP3    H171285   3.150   3.838   4.260 -0.7161 -0.1370 -2.5035
16598TIP3    H271286   3.240   3.731   4.319 -0.3880  1.4356 -0.0317
16599TIP3   OH271287   2.589   6.265   2.628 -0.2053  0.0919 -0.2187
16599TIP3    H171288   2.500   6.240   2.653  0.0640  0.6073  1.3743
16599TIP3    H271289   2.642   6.188   2.646 -0.5005 -0.7755 -2.6471
16600TIP3   OH271290   6.268   3.608  11.772 -0.1218 -0.4157  0.0981
16600TIP3    H171291   6.209   3.682  11.788 -1.3722 -1.6017  1.2994
16600TIP3    H271292   6.255   3.587  11.680 -2.2561 -1.1205  0.4885
16601TIP3   OH271293   1.191   2.176  16.691  0.0765 -0.5493 -0.5920
16601TIP3    H171294   1.221   2.236  16.760 -1.6229  0.0729 -0.3330
16601TIP3    H271295   1.110   2.139  16.726 -0.9056 -0.1240 -2.2934
16602TIP3   OH271296   4.834   4.977   0.071  0.1438  0.0256  0.2941
16602TIP3    H171297   4.745   5.011   0.084  0.4825  0.6991  0.9195
16602TIP3    H271298   4.886   5.054   0.048  0.5214 -0.4117 -0.3640
16603TIP3   OH271299   1.875   4.824   1.245 -0.6008 -0.2798 -0.2524
16603TIP3    H171300   1.813   4.772   1.297  1.7134 -2.5088  0.4782
16603TIP3    H271301   1.886   4.774   1.164  0.8121 -0.3373 -0.0380
16604TIP3   OH271302   3.023   1.735  15.185 -0.3706 -0.0035  0.3479
16604TIP3    H171303   3.001   1.764  15.097 -1.8580  0.4298  0.8248
16604TIP3    H271304   2.984   1.648  15.193  1.2605 -0.7974  0.0212
16605TIP3   OH271305   5.737   0.421   2.983  0.5166  0.5391 -0.5678
16605TIP3    H171306   5.767   0.375   3.061 -0.4168  0.5702 -0.1837
16605TIP3    H271307   5.721   0.511   3.011 -1.0628  0.2580 -0.4531
16606TIP3   OH271308   4.650   0.050  14.159  0.4104  0.2695  1.1293
16606TIP3    H171309   4.564   0.043  14.117  0.5915  1.5025  0.4990
16606TIP3    H271310   4.650  -0.019  14.225 -2.1218  1.8554  2.9596
16607TIP3   OH271311   3.040   3.377  15.891  0.2399  0.5498  0.1865
16607TIP3    H171312   3.044   3.329  15.808  4.2436  0.1138  0.4231
16607TIP3    H271313   2.993   3.458  15.870  0.8256  0.2990 -2.4216
16608TIP3   OH271314   1.720   6.079   0.525 -0.3258  0.2122 -0.2869
16608TIP3    H171315   1.689   6.043   0.442  2.2229 -2.8633 -0.1116
16608TIP3    H271316   1.650   6.061   0.587 -0.9741 -0.3485 -1.1584
16609TIP3   OH271317   3.646   5.153   4.964 -0.0288  0.2369  0.1460
16609TIP3    H171318   3.599   5.100   4.900 -0.5870 -2.1693  2.3800
16609TIP3    H271319   3.735   5.159   4.930 -0.4711 -0.3325 -1.1812
16610TIP3   OH271320   0.304   2.745   2.115 -0.0062  0.5074  0.4824
16610TIP3    H171321   0.339   2.692   2.186 -0.7807 -1.5537 -0.5794
16610TIP3    H271322   0.238   2.801   2.156  0.6581  0.4875  1.6072
16611TIP3   OH271323   3.708   5.459   3.742 -0.1757 -0.4216  0.4278
16611TIP3    H171324   3.751   5.495   3.665 -0.5323 -1.1442 -0.1143
16611TIP3    H271325   3.647   5.393   3.708 -1.1439  0.0255  1.2354
16612TIP3   OH271326   6.278   1.061  12.911  0.1145  0.1507 -1.0504
16612TIP3    H171327   6.263   0.969  12.932 -0.2928  0.3753 -0.3699
16612TIP3    H271328   6.287   1.104  12.995 -0.7924  0.9258 -1.3357
16613TIP3   OH271329   4.714   4.758  16.772 -0.5655  0.1132 -0.3918
16613TIP3    H171330   4.796   4.708  16.776 -0.1826  0.7658  0.0821
16613TIP3    H271331   4.652   4.705  16.823 -0.4981 -0.4792 -0.9115
16614TIP3   OH271332   3.825   4.734  12.080  0.6935  0.1739 -0.3939
16614TIP3    H171333   3.765   4.786  12.027  0.5829 -1.0018 -1.4790
16614TIP3    H271334   3.911   4.773  12.064  0.6638 -0.1706 -1.4846
16615TIP3   OH271335   5.532   2.425  10.301  0.1842 -0.0726  0.1391
16615TIP3    H171336   5.441   2.405  10.277  0.0042 -2.5419  2.4137
16615TIP3    H271337   5.525   2.489  10.372  0.2790  0.4268 -0.2985
16616TIP3   OH271338   3.249   5.454  12.532  0.7179  0.0374 -1.0093
16616TIP3    H171339   3.250   5.429  12.624  1.8010  1.6040 -0.5463
16616TIP3    H271340   3.203   5.383  12.488 -0.6102 -0.3246  0.8550
16617TIP3   OH271341   2.609   0.637   1.479 -0.0469 -0.0474 -0.5735
16617TIP3    H171342   2.645   0.721   1.451 -2.0902  0.4695 -1.8454
16617TIP3    H271343   2.522   0.633   1.439 -1.5484 -1.1165  2.4248
16618TIP3   OH271344   4.863   0.690  13.385 -0.0680  0.2315  0.3108
16618TIP3    H171345   4.777   0.709  13.347  0.5472 -0.2120 -1.4313
16618TIP3    H271346   4.846   0.625  13.453 -1.3669  1.9021  1.6803
16619TIP3   OH271347   5.141   0.536   3.731  0.0426 -0.3875 -0.0741
16619TIP3    H171348   5.116   0.531   3.823 -0.5623 -2.4970 -0.2993
16619TIP3    H271349   5.107   0.456   3.692 -3.5318  2.2661 -3.1585
16620TIP3   OH271350   3.178   2.843  11.850 -0.1044  0.2181 -0.6382
16620TIP3    H171351   3.242   2.804  11.909  0.0796  0.6716 -0.5315
16620TIP3    H271352   3.192   2.798  11.767 -0.0826 -0.1300 -0.4494
16621TIP3   OH271353   3.614   3.288   5.775  0.4728 -0.3762 -0.0139
16621TIP3    H171354   3.667   3.287   5.854  0.5109 -0.0767 -0.0335
16621TIP3    H271355   3.636   3.207   5.729 -0.1465 -0.9503  0.6773
16622TIP3   OH271356   6.284   4.516   1.924  0.4688  0.3905 -0.2349
16622TIP3    H171357   6.270   4.441   1.866 -1.2310  0.6741 -0.2217
16622TIP3    H271358   6.377   4.537   1.913  0.7687 -1.1603 -0.8972
16623TIP3   OH271359   1.369   0.303  15.715 -0.1937  0.4083 -0.2458
16623TIP3    H171360   1.307   0.375  15.730 -0.5188  0.1064 -0.1422
16623TIP3    H271361   1.339   0.233  15.773 -1.4973 -0.8056 -2.2505
16624TIP3   OH271362   4.560   1.472  16.532  0.1267 -0.3863  0.3563
16624TIP3    H171363   4.649   1.438  16.534  0.6452  0.8254 -0.5464
16624TIP3    H271364   4.563   1.549  16.590 -0.2037 -0.0642 -0.0476
16625TIP3   OH271365   2.843   1.130  15.797 -0.4621 -0.0352  0.2813
16625TIP3    H171366   2.759   1.117  15.753 -0.9289  0.0862  1.1327
16625TIP3    H271367   2.891   1.049  15.780 -0.8145 -0.1791 -0.0531
16626TIP3   OH271368   6.585   4.160  12.924 -0.0666 -0.5098  0.0825
16626TIP3    H171369   6.621   4.226  12.865 -0.6323  1.4200  1.8057
16626TIP3    H271370   6.503   4.197  12.955 -0.3805 -2.0000  1.1642
16627TIP3   OH271371   0.994   1.598   2.649 -0.2890  0.0016 -0.3423
16627TIP3    H171372   1.073   1.652   2.655  0.5408 -1.1431 -0.4699
16627TIP3    H271373   0.988   1.575   2.556 -0.5934 -0.1597 -0.2851
16628TIP3   OH271374   4.359   6.455  12.411  0.1888 -0.5092 -0.0007
16628TIP3    H171375   4.426   6.522  12.424  0.9571 -1.3602  0.5913
16628TIP3    H271376   4.277   6.498  12.434  0.6198  0.3436 -0.0318
16629TIP3   OH271377   4.354   6.838   0.834  0.7051  0.2543  0.0252
16629TIP3    H171378   4.341   6.858   0.927 -0.5979  0.7188 -0.2277
16629TIP3    H271379   4.270   6.802   0.806  1.5781 -1.3495 -0.6239
16630TIP3   OH271380   6.712   5.281   5.111 -0.2697  0.1687 -0.2927
16630TIP3    H171381   6.668   5.305   5.192  1.5905  0.6625  0.6200
16630TIP3    H271382   6.757   5.199   5.131  0.0707  0.1988 -0.8942
16631TIP3   OH271383   2.343   5.432  12.485  0.0450 -0.4184  0.1918
16631TIP3    H171384   2.432   5.432  12.521 -0.3946  0.4057  1.3557
16631TIP3    H271385   2.356   5.434  12.390  1.3096  1.1842  0.3363
16632TIP3   OH271386   2.289   6.240   4.034 -0.3408  0.3491 -0.8592
16632TIP3    H171387   2.350   6.166   4.027 -1.3656 -0.6469  0.1637
16632TIP3    H271388   2.275   6.269   3.944  1.6040  0.5993 -1.1198
16633TIP3   OH271389   4.212   1.793   1.619 -0.9293 -0.1505  0.3980
16633TIP3    H171390   4.269   1.799   1.695  0.5989 -1.7808 -0.5535
16633TIP3    H271391   4.261   1.836   1.549 -0.9326 -1.3664 -0.3781
16634TIP3   OH271392   0.070   5.273  12.777  0.0974  0.1808  0.2058
16634TIP3    H171393   0.022   5.279  12.859  0.2147 -0.8636  0.3711
16634TIP3    H271394   0.075   5.363  12.745 -0.1942  0.5651  1.1989
16635TIP3   OH271395   5.962   0.172  10.987 -0.3761 -0.0393  0.3737
16635TIP3    H171396   5.872   0.206  10.987 -0.5876 -0.5886  0.3410
16635TIP3    H271397   6.002   0.210  10.909 -0.2895  0.9481  0.8899
16636TIP3   OH271398   2.774   3.061  12.139  0.0905 -0.1938  0.0991
16636TIP3    H171399   2.848   3.004  12.118  0.8981  2.0577 -3.9681
16636TIP3    H271400   2.813   3.147  12.155 -1.5178  1.1093 -2.4050
16637TIP3   OH271401   2.431   2.212  16.742  0.1486  0.5445 -0.6331
16637TIP3    H171402   2.491   2.195  16.815  2.3732  1.8683 -2.0049
16637TIP3    H271403   2.428   2.129  16.694 -0.6237 -0.0707  0.4448
16638TIP3   OH271404   2.212   2.571  14.244  0.8642 -0.5156 -0.2134
16638TIP3    H171405   2.126   2.565  14.285  1.2682 -0.9775  0.5862
16638TIP3    H271406   2.194   2.605  14.156 -0.1704 -0.9650 -0.1958
16639TIP3   OH271407   4.544   2.628   4.689  0.4099 -0.4099 -0.1958
16639TIP3    H171408   4.555   2.619   4.595 -0.6335  1.2145 -0.5138
16639TIP3    H271409   4.507   2.544   4.717 -1.7385 -0.0120 -1.6673
16640TIP3   OH271410   1.713   2.507  15.586  0.3399  0.2055  0.0871
16640TIP3    H171411   1.622   2.528  15.606  0.7081 -0.5761  3.1256
16640TIP3    H271412   1.764   2.557  15.650  2.0348  0.1733 -1.1684
16641TIP3   OH271413   5.395   1.293  17.078 -0.2000 -0.2512  0.2076
16641TIP3    H171414   5.480   1.251  17.087  0.1086  0.2536 -0.3232
16641TIP3    H271415   5.408   1.382  17.112 -0.5609 -0.2341  0.3038
16642TIP3   OH271416   0.248   1.504   3.130 -0.7710  0.6102  0.3202
16642TIP3    H171417   0.210   1.425   3.092 -0.9983  0.1241  1.5289
16642TIP3    H271418   0.337   1.478   3.156 -2.1418 -0.5708  4.5300
16643TIP3   OH271419   5.699   6.433  12.691 -0.1483  0.4345  0.1893
16643TIP3    H171420   5.610   6.423  12.725 -0.3894 -0.6377 -0.6856
16643TIP3    H271421   5.687   6.448  12.597  0.5938  0.4085  0.0825
16644TIP3   OH271422   3.324   1.783  17.153  0.7485  0.7030 -0.0232
16644TIP3    H171423   3.367   1.776  17.068  2.2682 -0.9258  0.7942
16644TIP3    H271424   3.279   1.699  17.164  0.1450  1.0939  0.5570
16645TIP3   OH271425   4.891   6.243  16.569 -0.0937 -0.3014 -0.0607
16645TIP3    H171426   4.842   6.171  16.610  0.1986 -0.5874 -0.2068
16645TIP3    H271427   4.830   6.280  16.506  0.0608 -1.0349 -0.6642
16646TIP3   OH271428   0.778   5.279  15.795  0.0705  0.1504 -0.6784
16646TIP3    H171429   0.706   5.342  15.792  0.6131  0.8222  0.0060
16646TIP3    H271430   0.809   5.274  15.705  0.4648  1.4054 -0.6268
16647TIP3   OH271431   1.687   6.748  16.793  0.4179 -0.2072 -0.3535
16647TIP3    H171432   1.667   6.831  16.836  1.2019 -0.0664 -0.2577
16647TIP3    H271433   1.779   6.732  16.811  0.2372 -1.1919 -0.2205
16648TIP3   OH271434   1.577   3.812   4.268  0.0506  0.5818  0.0106
16648TIP3    H171435   1.658   3.840   4.310  0.5810 -0.5858 -0.1949
16648TIP3    H271436   1.583   3.843   4.178 -0.0782  1.1424  0.1915
16649TIP3   OH271437   6.462   3.458  13.539  0.4907  0.2802 -0.0369
16649TIP3    H171438   6.456   3.407  13.619 -0.6944 -1.6693 -1.3070
16649TIP3    H271439   6.390   3.428  13.484  0.1268  2.8746 -1.1492
16650TIP3   OH271440   5.227   1.385  15.669  0.0371 -0.1121  0.1919
16650TIP3    H171441   5.219   1.449  15.598  0.9811 -0.2921 -0.0931
16650TIP3    H271442   5.237   1.438  15.748  0.5758  0.0986 -0.0133
16651TIP3   OH271443   2.145   4.625   3.245  0.2585  0.1113 -0.4339
16651TIP3    H171444   2.078   4.558   3.253  0.1754  0.1300 -0.9945
16651TIP3    H271445   2.144   4.651   3.153  0.3106  0.8616 -0.2317
16652TIP3   OH271446   3.409   0.552  14.022 -0.1830  0.1350 -0.0563
16652TIP3    H171447   3.360   0.579  14.099 -1.4430  1.3105 -1.2050
16652TIP3    H271448   3.364   0.595  13.949  0.0820 -2.0694 -1.6128
16653TIP3   OH271449   6.441   5.740   0.272  0.6320  0.1612 -0.2736
16653TIP3    H171450   6.471   5.827   0.299 -1.6402  1.1068 -0.5756
16653TIP3    H271451   6.452   5.686   0.350 -0.3147  1.3830  0.7567
16654TIP3   OH271452   5.725   3.494  12.169 -0.0789 -0.5146 -0.3335
16654TIP3    H171453   5.638   3.454  12.156 -0.7216  0.7778 -0.1668
16654TIP3    H271454   5.713   3.555  12.242  0.7114  0.4097 -0.9495
16655TIP3   OH271455   4.063   0.467   3.131  0.0362  0.0721 -0.1141
16655TIP3    H171456   4.018   0.544   3.165 -0.2363 -0.0302 -0.2342
16655TIP3    H271457   3.992   0.409   3.103  0.2266 -0.3773  0.3165
16656TIP3   OH271458   1.784   6.516   1.513 -0.4957 -0.5199 -0.2778
16656TIP3    H171459   1.693   6.498   1.493 -0.6189  0.7864 -1.0485
16656TIP3    H271460   1.806   6.458   1.585 -1.6087 -1.6277 -0.8038
16657TIP3   OH271461   4.589   5.075  14.006  0.0248 -0.1033 -0.4346
16657TIP3    H171462   4.660   5.070  13.942  1.9127  0.4875  1.4918
16657TIP3    H271463   4.604   5.000  14.064 -2.2524 -1.2358 -1.1561
16658TIP3   OH271464   2.306   5.731   3.605 -0.0077  0.2299  0.2110
16658TIP3    H171465   2.307   5.637   3.590  0.4645  0.5501 -2.1921
16658TIP3    H271466   2.214   5.751   3.625 -0.9677 -0.3190 -3.0846
16659TIP3   OH271467   5.657   3.214  12.391 -0.0979  0.0864 -0.7138
16659TIP3    H171468   5.650   3.191  12.298  0.1460  1.3056 -1.0584
16659TIP3    H271469   5.567   3.210  12.423 -0.0353 -1.6215 -0.6440
16660TIP3   OH271470   4.887   4.034   0.119 -0.1613 -0.1275 -0.0890
16660TIP3    H171471   4.884   4.061   0.027  0.4489 -1.2228 -0.4502
16660TIP3    H271472   4.808   3.982   0.132  0.2234 -0.7627 -0.2620
16661TIP3   OH271473   2.637   6.145   5.710 -0.0976 -0.8661  0.3545
16661TIP3    H171474   2.733   6.142   5.703  0.0149  1.0851  0.4470
16661TIP3    H271475   2.617   6.239   5.714 -2.1098 -1.2013 -0.7783
16662TIP3   OH271476   0.010   4.019  13.273  0.8912 -0.0734 -0.5010
16662TIP3    H171477   0.086   4.042  13.326  0.8514  0.1292 -0.5334
16662TIP3    H271478   0.030   4.053  13.186 -0.0309  1.5961 -0.0842
16663TIP3   OH271479   2.231   5.502  14.419 -0.1153  0.4842  0.6222
16663TIP3    H171480   2.199   5.477  14.505 -0.7909  0.6238  0.4131
16663TIP3    H271481   2.153   5.529  14.370  0.4683  2.2734  0.5885
16664TIP3   OH271482   0.521   2.657   5.180  0.1333 -0.2280 -0.2251
16664TIP3    H171483   0.519   2.580   5.237  0.9120 -0.2004 -0.1404
16664TIP3    H271484   0.533   2.620   5.092 -3.3324 -0.4170 -0.7472
16665TIP3   OH271485   1.101   4.345   3.923  0.0078 -0.0556  0.2949
16665TIP3    H171486   1.114   4.367   4.015  0.1861  0.0595  0.2428
16665TIP3    H271487   1.094   4.430   3.879  0.2255 -0.1071  0.1593
16666TIP3   OH271488   2.971   3.805   1.884 -0.0789  0.6440 -0.2312
16666TIP3    H171489   2.925   3.721   1.889  0.5965  0.2471 -0.5140
16666TIP3    H271490   2.901   3.869   1.869 -0.6635  0.2167  0.5701
16667TIP3   OH271491   0.165   4.832  11.654  0.0459 -0.0817 -1.0023
16667TIP3    H171492   0.205   4.826  11.567 -0.6288 -0.2117 -1.3060
16667TIP3    H271493   0.072   4.847  11.637 -0.1702 -0.5816 -0.3045
16668TIP3   OH271494   1.812   5.753  10.577 -0.1331  0.3069  0.5757
16668TIP3    H171495   1.749   5.682  10.564 -0.4413  0.7539 -0.4644
16668TIP3    H271496   1.892   5.724  10.534 -0.1504  0.4380  0.4535
16669TIP3   OH271497   5.903   4.857   2.846  0.5457 -0.7374 -0.0559
16669TIP3    H171498   5.902   4.953   2.852  1.1621 -0.5657 -1.9863
16669TIP3    H271499   5.914   4.827   2.936 -0.7390  0.9657  0.7164
16670TIP3   OH271500   5.786   2.548   5.038 -0.5392 -0.3581 -0.3467
16670TIP3    H171501   5.815   2.458   5.051 -0.0851 -0.1449  0.1360
16670TIP3    H271502   5.714   2.560   5.101  1.1528  0.4331  1.5293
16671TIP3   OH271503   3.886   1.575  15.999 -0.5372 -0.3342 -0.0001
16671TIP3    H171504   3.931   1.632  15.937 -1.1525 -0.3639 -0.4835
16671TIP3    H271505   3.904   1.486  15.968  2.4269 -0.6157  2.0864
16672TIP3   OH271506   0.294   1.153  16.960  0.7469  0.7902  0.3244
16672TIP3    H171507   0.285   1.246  16.937 -3.3364  0.5958  0.4742
16672TIP3    H271508   0.237   1.142  17.036  1.1989 -1.8574  0.3450
16673TIP3   OH271509   3.276   5.617   2.772 -0.2258  0.1405 -0.1432
16673TIP3    H171510   3.295   5.604   2.680 -1.2966  1.2328 -0.5457
16673TIP3    H271511   3.230   5.701   2.776  0.1528  0.3101  1.4286
16674TIP3   OH271512   1.135   5.507  10.828  0.3754 -0.0617  0.0048
16674TIP3    H171513   1.077   5.579  10.804  0.2519  0.5006  1.8699
16674TIP3    H271514   1.077   5.442  10.867  0.6932 -0.5349 -0.3015
16675TIP3   OH271515   6.643   0.573   5.773 -0.5249  0.1661 -0.4857
16675TIP3    H171516   6.659   0.667   5.767  2.7330  0.0239  2.7177
16675TIP3    H271517   6.660   0.552   5.864 -0.4679 -3.6694 -1.2315
16676TIP3   OH271518   2.351   1.074  15.450 -0.1080  0.3544 -0.0592
16676TIP3    H171519   2.419   1.138  15.429  0.5270 -0.6879 -1.2480
16676TIP3    H271520   2.269   1.118  15.428  0.0643  1.8437  1.9284
16677TIP3   OH271521   0.603   6.381   2.975 -0.2522  0.6433  0.1188
16677TIP3    H171522   0.628   6.450   2.914 -1.5092  0.0181 -1.1486
16677TIP3    H271523   0.509   6.369   2.962 -0.2837 -0.5041  1.1547
16678TIP3   OH271524   5.025   1.240  15.553  0.0661  0.2584  0.2539
16678TIP3    H171525   5.101   1.289  15.588  0.0742  0.8505 -0.5678
16678TIP3    H271526   4.986   1.299  15.489 -0.1901 -0.6520 -0.4489
16679TIP3   OH271527   1.606   0.740  15.222  0.2155  0.1410 -0.1456
16679TIP3    H171528   1.598   0.677  15.294 -0.1524  0.1299 -0.1957
16679TIP3    H271529   1.609   0.685  15.143  1.8244  0.0728 -0.0900
16680TIP3   OH271530   3.067   0.823   3.576  0.8534 -0.1686 -0.3595
16680TIP3    H171531   3.161   0.838   3.571  1.5742 -1.8365  3.8738
16680TIP3    H271532   3.042   0.853   3.663 -2.7844  0.8136 -1.5283
16681TIP3   OH271533   5.468   3.417  12.132  0.1585 -0.0881  0.4422
16681TIP3    H171534   5.422   3.497  12.107  0.0405 -0.3769 -0.2754
16681TIP3    H271535   5.412   3.377  12.199 -0.0714  0.1355  0.3835
16682TIP3   OH271536   3.898   3.450   1.497  0.3560 -0.3292  0.5170
16682TIP3    H171537   3.948   3.483   1.423  0.7113 -1.9702 -0.0213
16682TIP3    H271538   3.880   3.527   1.551  0.1327  0.8891 -1.2344
16683TIP3   OH271539   1.761   2.715  15.257  0.9579 -0.0750 -0.7263
16683TIP3    H171540   1.719   2.754  15.333  0.1751  0.7211 -1.5380
16683TIP3    H271541   1.694   2.718  15.188  1.2951 -1.7262 -1.1650
16684TIP3   OH271542   2.755   3.355  15.376  0.0675  0.6103  0.3871
16684TIP3    H171543   2.821   3.286  15.387  0.3440  0.3374 -2.2722
16684TIP3    H271544   2.704   3.353  15.456  1.2484 -1.4221  1.1557
16685TIP3   OH271545   0.663   4.360   1.815 -0.2929 -0.0752 -0.3198
16685TIP3    H171546   0.680   4.454   1.802  0.4076 -0.0886  0.4035
16685TIP3    H271547   0.593   4.340   1.753  0.3309  0.6742 -1.3224
16686TIP3   OH271548   2.414   4.157   6.007 -0.2955 -0.2753  0.1707
16686TIP3    H171549   2.442   4.072   6.040 -0.1926  0.0679  1.0043
16686TIP3    H271550   2.469   4.220   6.054 -0.2858  0.2450 -0.5238
16687TIP3   OH271551   2.501   0.800   1.967 -0.2543  0.3984 -0.3502
16687TIP3    H171552   2.483   0.791   1.873 -1.8635  1.2955 -0.1813
16687TIP3    H271553   2.414   0.804   2.007  0.3983 -0.7839  1.2841
16688TIP3   OH271554   0.339   4.863   3.634  0.1042  0.1292 -0.0055
16688TIP3    H171555   0.346   4.913   3.553  0.6299  0.5423  0.2868
16688TIP3    H271556   0.249   4.877   3.663 -0.7300 -1.6705 -1.5555
16689TIP3   OH271557   0.060   5.163   2.503  0.1415 -0.4275  0.2137
16689TIP3    H171558   0.113   5.133   2.430 -0.7348 -0.0181 -0.6141
16689TIP3    H271559   0.028   5.082   2.544  0.4948 -0.6589  0.0339
16690TIP3   OH271560   1.550   4.308  14.729  0.3585 -0.3565 -0.5142
16690TIP3    H171561   1.584   4.223  14.703 -1.7550 -0.6053 -2.8269
16690TIP3    H271562   1.456   4.302  14.714  0.0185  2.0775  0.1884
16691TIP3   OH271563   3.658   6.735   5.814  0.4483  0.2811 -0.3041
16691TIP3    H171564   3.636   6.722   5.722  2.2685  0.5888 -0.8282
16691TIP3    H271565   3.576   6.723   5.860 -0.3948 -0.4888 -1.9105
16692TIP3   OH271566   5.934   2.057  15.682 -0.6177  0.2667 -0.0868
16692TIP3    H171567   5.876   2.067  15.757  0.5164  3.3115  0.5180
16692TIP3    H271568   5.980   2.141  15.675  0.0140 -0.1988 -3.6355
16693TIP3   OH271569   6.164   2.160   0.713 -1.1883  0.6521 -0.5032
16693TIP3    H171570   6.071   2.150   0.733 -0.6222  0.5393  2.5454
16693TIP3    H271571   6.200   2.072   0.723 -0.5617  0.9049 -0.5011
16694TIP3   OH271572   1.098   5.523  12.783 -0.2902 -0.4033  0.0121
16694TIP3    H171573   1.046   5.592  12.824 -1.8485 -1.3286 -0.3043
16694TIP3    H271574   1.182   5.564  12.762 -1.8333  2.0184 -2.0096
16695TIP3   OH271575   2.443   6.332   5.788  0.5916  0.1848 -0.3109
16695TIP3    H171576   2.478   6.395   5.851 -0.6052 -0.5368  1.1387
16695TIP3    H271577   2.349   6.350   5.786  0.2551 -1.3726 -0.0412
16696TIP3   OH271578   5.736   1.621  14.442 -0.0616  0.5130 -0.1784
16696TIP3    H171579   5.684   1.548  14.476  0.1012 -0.0204 -1.0357
16696TIP3    H271580   5.671   1.684  14.411 -0.2009  0.5456  0.1729
16697TIP3   OH271581   1.218   2.048  13.535 -0.2690  0.9402 -0.0515
16697TIP3    H171582   1.277   2.076  13.465 -0.1784 -1.2866 -0.9770
16697TIP3    H271583   1.275   2.034  13.610 -0.2010  2.2813  0.1724
16698TIP3   OH271584   0.676   5.563  13.050 -0.2097 -0.1711  0.2170
16698TIP3    H171585   0.675   5.591  12.958  1.9423  2.1818  0.7941
16698TIP3    H271586   0.765   5.531  13.065 -0.7127 -1.1012  1.3472
16699TIP3   OH271587   5.528   1.760  12.672  0.1155  0.0168 -0.4367
16699TIP3    H171588   5.446   1.711  12.665  0.1624 -0.2905  0.8264
16699TIP3    H271589   5.504   1.841  12.716  0.1402  0.9179 -2.0015
16700TIP3   OH271590   5.906   0.516  15.945  0.0519 -0.3599  0.1572
16700TIP3    H171591   5.946   0.598  15.916 -0.5154  0.1207  0.7101
16700TIP3    H271592   5.947   0.497  16.030 -0.1820 -0.3784  0.2680
16701TIP3   OH271593   4.232   3.845   1.339  0.1746  0.1682 -0.1994
16701TIP3    H171594   4.211   3.779   1.405 -1.2310 -0.3209 -1.0728
16701TIP3    H271595   4.171   3.917   1.356 -2.0702 -1.0182 -2.4110
16702TIP3   OH271596   2.146   3.670  15.491 -0.3904 -0.6123 -0.4156
16702TIP3    H171597   2.159   3.590  15.541  0.2702 -0.5079 -0.4060
16702TIP3    H271598   2.064   3.657  15.444 -2.4590  0.3288  2.6443
16703TIP3   OH271599   5.022   1.460  15.404 -0.2557 -0.1028 -0.0427
16703TIP3    H171600   4.995   1.518  15.476  2.4234 -0.9192  1.7913
16703TIP3    H271601   5.048   1.519  15.334 -2.2721  0.7392 -0.1512
16704TIP3   OH271602   5.040   5.992   4.992 -0.1037 -0.7246  0.5082
16704TIP3    H171603   4.948   5.973   5.015  0.0808 -1.5072  0.6190
16704TIP3    H271604   5.053   5.949   4.908 -0.9986  2.7802 -1.6001
16705TIP3   OH271605   4.095   1.828  13.640  0.0290 -0.0262  0.0474
16705TIP3    H171606   4.149   1.907  13.639 -0.5238  0.3569 -0.2513
16705TIP3    H271607   4.152   1.759  13.607  0.2026  0.4648 -0.7085
16706TIP3   OH271608   2.949   4.447  12.380  0.4726 -0.2119  0.1350
16706TIP3    H171609   2.901   4.522  12.415  0.9212 -0.2295  0.8091
16706TIP3    H271610   3.018   4.486  12.327  0.1442 -0.1735 -0.2710
16707TIP3   OH271611   1.449   1.894  17.017  0.4217 -0.5339 -0.1567
16707TIP3    H171612   1.388   1.966  16.998  1.6537  0.6684  0.2751
16707TIP3    H271613   1.477   1.864  16.930  1.6821  1.1191 -0.3735
16708TIP3   OH271614   3.837   5.387  12.151 -0.0731 -0.3137 -0.7414
16708TIP3    H171615   3.884   5.470  12.164  2.2285 -1.9304  2.9677
16708TIP3    H271616   3.785   5.377  12.231  1.2909 -3.2766 -0.1017
16709TIP3   OH271617   6.543   0.606  16.316 -0.1672  0.2778 -0.2031
16709TIP3    H171618   6.451   0.581  16.322  0.4065 -1.6681  2.2615
16709TIP3    H271619   6.545   0.695  16.351 -1.2220  0.7587 -1.2917
16710TIP3   OH271620   5.699   0.337  15.734 -0.0064 -0.1407  0.0648
16710TIP3    H171621   5.787   0.300  15.735 -0.1832 -0.6668 -1.6588
16710TIP3    H271622   5.709   0.420  15.687 -0.4783 -0.3543 -0.4174
16711TIP3   OH271623   5.390   3.126  14.367  0.1854  0.5682 -0.6483
16711TIP3    H171624   5.343   3.045  14.385  1.1465 -0.2117 -1.4658
16711TIP3    H271625   5.409   3.122  14.273 -0.2636  2.0299 -0.8250
16712TIP3   OH271626   1.693   0.715   1.037  0.6833  0.1972 -0.0194
16712TIP3    H171627   1.677   0.652   0.967 -0.5576  1.1308 -0.6198
16712TIP3    H271628   1.759   0.673   1.093 -0.4497 -1.8457 -0.1014
16713TIP3   OH271629   4.660   5.493   5.869 -1.0928 -0.2125  0.4074
16713TIP3    H171630   4.659   5.585   5.895  0.3881  0.0198 -0.2738
16713TIP3    H271631   4.707   5.449   5.941  3.4297  0.4974 -1.7321
16714TIP3   OH271632   2.461   6.718  10.738  0.6877 -0.0074  0.0284
16714TIP3    H171633   2.458   6.776  10.813 -0.7876 -1.0916  0.8624
16714TIP3    H271634   2.553   6.716  10.712  1.4550 -0.5971  2.5921
16715TIP3   OH271635   1.849   0.486   2.680  0.1488  0.0039  0.4671
16715TIP3    H171636   1.940   0.469   2.704  0.0722  0.5220  1.1593
16715TIP3    H271637   1.798   0.431   2.740 -0.0139  0.4471  0.7421
16716TIP3   OH271638   3.479   0.306  15.333  0.7460  0.4462  0.2405
16716TIP3    H171639   3.558   0.322  15.385  0.5992 -1.1830  1.0005
16716TIP3    H271640   3.412   0.284  15.397 -0.4046  1.9479 -0.3840
16717TIP3   OH271641   2.694   1.743  17.148 -0.0734  0.2506 -0.2405
16717TIP3    H171642   2.635   1.710  17.216  1.2897  0.2696  1.0152
16717TIP3    H271643   2.706   1.669  17.089  0.7536 -0.6559  1.0048
16718TIP3   OH271644   2.889   2.785  17.068 -0.5015  0.0744  0.6795
16718TIP3    H171645   2.933   2.815  16.987  0.8255 -2.2681  0.4564
16718TIP3    H271646   2.927   2.699  17.085 -2.6146 -0.5832  2.4306
16719TIP3   OH271647   1.619   6.767   5.516  0.7608  0.4040 -0.3799
16719TIP3    H171648   1.567   6.736   5.590  2.0650 -0.1101  0.3493
16719TIP3    H271649   1.697   6.806   5.555 -0.0797  3.2629 -1.3568
16720TIP3   OH271650   3.652   1.563  16.365 -0.9059 -0.0117 -0.2139
16720TIP3    H171651   3.651   1.641  16.420  0.8305 -0.1654  0.0889
16720TIP3    H271652   3.745   1.542  16.354 -1.3056 -2.7244  0.6943
16721TIP3   OH271653   2.089   4.763   2.525  1.0985  0.0421 -0.1131
16721TIP3    H171654   2.031   4.799   2.457  0.1088 -1.2393  0.0033
16721TIP3    H271655   2.167   4.734   2.477  1.3927  1.2131 -0.3661
16722TIP3   OH271656   3.132   3.115   5.388 -0.2562 -0.0612  0.2834
16722TIP3    H171657   3.185   3.090   5.464  0.3751 -3.6401 -1.1012
16722TIP3    H271658   3.043   3.086   5.410 -0.6170  1.2682  0.6248
16723TIP3   OH271659   3.781   1.102   4.201  0.4021  0.0225  0.1100
16723TIP3    H171660   3.801   1.142   4.116  1.0208  0.5709  0.5002
16723TIP3    H271661   3.720   1.031   4.181  0.3317  0.3206 -0.7579
16724TIP3   OH271662   1.837   4.865  14.414  0.4192 -0.1047  1.0574
16724TIP3    H171663   1.920   4.840  14.456  1.7140 -0.5884 -1.6058
16724TIP3    H271664   1.777   4.794  14.436  1.2042 -0.6164  1.6144
16725TIP3   OH271665   5.824   0.675  16.769 -0.4976 -0.0882 -0.0493
16725TIP3    H171666   5.881   0.608  16.730 -1.2780 -0.1889 -1.0694
16725TIP3    H271667   5.735   0.648  16.743 -1.0426 -0.0538  1.6875
16726TIP3   OH271668   1.604   3.357   3.545 -1.2865  0.5455  0.8308
16726TIP3    H171669   1.530   3.371   3.486 -2.4115 -0.4159  1.9634
16726TIP3    H271670   1.601   3.432   3.605  0.1987  1.8297 -0.5888
16727TIP3   OH271671   0.429   2.182  11.948  0.0350  0.4902 -0.2693
16727TIP3    H171672   0.341   2.171  11.915 -1.2384 -0.7014  3.0297
16727TIP3    H271673   0.432   2.271  11.984 -0.0336  0.3547  0.0819
16728TIP3   OH271674   6.670   6.360  16.321 -0.0631  0.4497 -0.2418
16728TIP3    H171675   6.736   6.318  16.376 -0.6114 -0.3803 -0.2007
16728TIP3    H271676   6.719   6.398  16.248  0.5003  0.2025  0.0067
16729TIP3   OH271677   3.886   2.374   1.224  0.2552 -0.0680 -0.4848
16729TIP3    H171678   3.803   2.415   1.249  0.7081  0.8224 -0.3644
16729TIP3    H271679   3.863   2.284   1.201 -0.8735  0.3911 -1.2609
16730TIP3   OH271680   6.242   6.266  16.649  0.3179 -0.3477 -0.3640
16730TIP3    H171681   6.230   6.343  16.592  0.3510 -0.5536 -0.6499
16730TIP3    H271682   6.211   6.192  16.597 -2.3134 -0.2309  0.8536
16731TIP3   OH271683   5.487   3.920   6.761  0.2107  0.2933  0.5599
16731TIP3    H171684   5.400   3.908   6.724  0.4543 -0.2083  0.1338
16731TIP3    H271685   5.494   4.015   6.776 -0.6957  0.2518  1.3356
16732TIP3   OH271686   1.259   6.279  13.062  0.0523  0.0488  0.8770
16732TIP3    H171687   1.225   6.207  13.008  0.3040  1.5727 -1.4729
16732TIP3    H271688   1.208   6.275  13.143  0.3052 -2.9438  1.0055
16733TIP3   OH271689   2.873   4.496  11.342 -0.3672  0.1014  0.5432
16733TIP3    H171690   2.960   4.457  11.336 -0.3727  0.3536 -2.4336
16733TIP3    H271691   2.813   4.421  11.346 -0.1707 -0.1939 -1.3180
16734TIP3   OH271692   1.201   0.155   0.430 -0.5503 -0.1500 -0.3026
16734TIP3    H171693   1.197   0.063   0.407 -2.2513 -0.3514  0.6432
16734TIP3    H271694   1.230   0.157   0.521  2.2047  0.4533 -1.0645
16735TIP3   OH271695   6.133   5.745  15.643  0.0620 -0.4648  0.1093
16735TIP3    H171696   6.040   5.760  15.661 -0.1240  2.3703 -2.3390
16735TIP3    H271697   6.178   5.804  15.703  0.0333  0.5903 -0.8626
16736TIP3   OH271698   4.706   4.260   5.392 -0.5897 -0.1315  0.2912
16736TIP3    H171699   4.672   4.343   5.426  0.6335  0.4443  0.1494
16736TIP3    H271700   4.686   4.264   5.298  2.4588  1.6100 -0.4118
16737TIP3   OH271701   3.611   4.594  16.113 -0.2697  0.0935 -0.2118
16737TIP3    H171702   3.519   4.596  16.089 -0.1595  0.9616 -0.5873
16737TIP3    H271703   3.613   4.554  16.200 -0.9003 -0.8345 -0.6191
16738TIP3   OH271704   5.010   5.821  15.249  0.1444  0.0353 -0.0319
16738TIP3    H171705   5.004   5.744  15.305  0.5850 -1.4262 -1.8932
16738TIP3    H271706   4.923   5.828  15.209 -0.0843  0.8984  0.5979
16739TIP3   OH271707   5.951   0.192  12.753 -0.2506  0.8528  0.2611
16739TIP3    H171708   5.886   0.244  12.706 -2.4595 -1.8324  0.0632
16739TIP3    H271709   6.005   0.152  12.685 -1.3978 -0.4973  0.0901
16740TIP3   OH271710   6.164   5.738   0.756  0.5750  0.5665  0.1098
16740TIP3    H171711   6.129   5.656   0.792  1.1070 -0.3525 -1.3610
16740TIP3    H271712   6.195   5.787   0.833 -2.6767  0.8881  1.3639
16741TIP3   OH271713   1.302   3.237   6.057  0.1869 -0.1740  0.1854
16741TIP3    H171714   1.212   3.208   6.071  0.2990 -0.4312  0.3674
16741TIP3    H271715   1.357   3.164   6.086  0.4648  0.1207  0.4116
16742TIP3   OH271716   0.966   5.510   4.140  0.4528  0.2034  0.5661
16742TIP3    H171717   0.914   5.434   4.114  0.2507  0.1951  0.9797
16742TIP3    H271718   0.902   5.573   4.174  0.3627  1.3958 -1.6123
16743TIP3   OH271719   3.139   0.844   2.317  0.0028 -0.1022 -0.0431
16743TIP3    H171720   3.048   0.815   2.324 -0.1289  0.6342  1.8731
16743TIP3    H271721   3.164   0.823   2.227 -1.5677 -1.7330 -0.1653
16744TIP3   OH271722   4.208   6.129  16.418 -0.3333 -0.7134 -0.3215
16744TIP3    H171723   4.188   6.136  16.512  1.0499 -1.1177  0.0191
16744TIP3    H271724   4.133   6.082  16.382 -0.4856 -1.3201  0.7285
16745TIP3   OH271725   0.086   5.063  13.178  0.5932 -0.2099  0.2325
16745TIP3    H171726   0.165   5.118  13.179  1.1197 -0.8538 -1.7048
16745TIP3    H271727   0.116   4.979  13.143 -0.1660 -1.8505  3.2054
16746TIP3   OH271728   3.276   3.216   3.056  0.0891  0.7728 -0.0783
16746TIP3    H171729   3.361   3.249   3.026 -0.3497  1.3033 -0.7837
16746TIP3    H271730   3.286   3.121   3.057  0.2242  0.7458 -1.6655
16747TIP3   OH271731   6.396   2.400  13.729  0.2874  0.6434 -0.7662
16747TIP3    H171732   6.409   2.493  13.713  1.6028  0.4628 -0.8414
16747TIP3    H271733   6.484   2.363  13.734 -0.1901 -0.4310  0.2906
16748TIP3   OH271734   5.592   5.910   2.000 -0.4355 -0.0809 -0.2026
16748TIP3    H171735   5.551   5.921   1.915  0.1375  0.5514 -0.4063
16748TIP3    H271736   5.607   5.999   2.032 -3.2391 -0.2183  1.8752
16749TIP3   OH271737   6.686   5.278  14.630 -0.8528 -0.3071  0.1737
16749TIP3    H171738   6.730   5.342  14.685 -0.1404 -0.8241  0.2105
16749TIP3    H271739   6.750   5.208  14.617 -1.5802 -0.9740  0.0536
16750TIP3   OH271740   3.665   4.874  12.716  0.1082  0.0404 -0.1408
16750TIP3    H171741   3.698   4.799  12.667  0.3859 -0.3465  0.6387
16750TIP3    H271742   3.706   4.950  12.674  0.2123 -0.2756 -0.6138
16751TIP3   OH271743   4.770   0.728  16.173  0.4153 -0.0270  0.0314
16751TIP3    H171744   4.753   0.646  16.126 -1.0324 -0.4874  1.2734
16751TIP3    H271745   4.683   0.768  16.184  1.1471  2.0982 -1.2120
16752TIP3   OH271746   2.449   4.690  11.145  0.3998 -0.2013 -0.1605
16752TIP3    H171747   2.522   4.633  11.121  0.8699  0.3056  0.0472
16752TIP3    H271748   2.387   4.633  11.191  0.3909 -0.7607 -0.8500
16753TIP3   OH271749   3.459   4.762   4.932 -0.5706 -0.2751 -0.3470
16753TIP3    H171750   3.444   4.745   5.025 -1.5274  0.4035 -0.3662
16753TIP3    H271751   3.392   4.712   4.886  1.0501 -2.1345 -0.8156
16754TIP3   OH271752   1.906   6.126   0.725  0.7168  0.6224  0.5304
16754TIP3    H171753   1.981   6.073   0.696  0.2194  0.3199 -0.2565
16754TIP3    H271754   1.843   6.118   0.653 -0.5098 -0.0146  1.6285
16755TIP3   OH271755   5.399   4.734   5.176 -0.0809  0.2424 -0.0786
16755TIP3    H171756   5.338   4.807   5.184 -0.7588 -0.2163 -0.8690
16755TIP3    H271757   5.421   4.710   5.266 -0.9242  0.5264  0.2089
16756TIP3   OH271758   3.468   3.508   1.335  0.1792 -0.4588 -0.4527
16756TIP3    H171759   3.384   3.473   1.305 -0.0253  0.1346 -0.6010
16756TIP3    H271760   3.500   3.560   1.261  0.8163 -0.9053 -0.5001
16757TIP3   OH271761   4.677   1.491  12.378  0.1328 -0.5011  0.0397
16757TIP3    H171762   4.754   1.454  12.334  0.6959 -0.0229  0.6120
16757TIP3    H271763   4.693   1.585  12.379 -0.0295 -0.4825  0.9782
16758TIP3   OH271764   3.930   6.788   4.507  0.0981 -0.1315  0.5736
16758TIP3    H171765   4.015   6.832   4.500  0.5788 -0.5523  2.8118
16758TIP3    H271766   3.952   6.699   4.535 -1.0680 -0.3898  0.7204
16759TIP3   OH271767   2.471   4.541  12.022 -0.5589  0.3432  0.1675
16759TIP3    H171768   2.386   4.507  11.993  0.1260 -0.9929 -0.3573
16759TIP3    H271769   2.515   4.567  11.941 -1.1568  2.8568  0.5579
16760TIP3   OH271770   1.122   3.697  15.718 -0.4133  0.5331 -0.2584
16760TIP3    H171771   1.048   3.652  15.759  0.8472 -0.3687  1.1395
16760TIP3    H271772   1.192   3.693  15.783  0.2121  3.3896 -0.6214
16761TIP3   OH271773   2.893   4.655  13.705  0.1901 -0.2011 -0.0386
16761TIP3    H171774   2.980   4.615  13.713 -0.1367 -0.9987 -0.3792
16761TIP3    H271775   2.864   4.666  13.795  0.2679 -0.7986  0.0681
16762TIP3   OH271776   3.676   6.025  13.521  0.0841  0.5893  0.0579
16762TIP3    H171777   3.751   6.081  13.542 -0.3434  1.1034  0.2283
16762TIP3    H271778   3.655   5.981  13.603 -0.6098  1.4264  0.3426
16763TIP3   OH271779   6.030   2.734   5.020  0.3674  0.2332 -0.1324
16763TIP3    H171780   5.948   2.686   5.031 -0.2984  1.4911  0.6408
16763TIP3    H271781   6.032   2.757   4.927 -0.4127  0.6320 -0.0568
16764TIP3   OH271782   1.813   3.373   3.244 -0.2952  0.6601 -0.0017
16764TIP3    H171783   1.877   3.386   3.174  1.4194 -1.8932  0.9535
16764TIP3    H271784   1.844   3.430   3.315  0.4328  0.1303  0.1221
16765TIP3   OH271785   1.778   2.203   3.475  0.2674  0.3717 -0.4305
16765TIP3    H171786   1.858   2.163   3.508 -0.0992 -0.5577 -0.6247
16765TIP3    H271787   1.713   2.133   3.481 -0.3405  0.8798 -1.0007
16766TIP3   OH271788   0.095   1.329  11.348 -0.0681  0.3046 -0.3738
16766TIP3    H171789   0.073   1.406  11.296  1.2152  3.3883  3.1271
16766TIP3    H271790   0.189   1.338  11.366  0.0499 -1.9189  0.4565
16767TIP3   OH271791   1.787   5.732   0.760 -0.0885 -0.0297 -0.1990
16767TIP3    H171792   1.768   5.826   0.750 -1.4100 -0.3841 -1.3911
16767TIP3    H271793   1.882   5.727   0.765 -0.0275  1.4303  0.6208
16768TIP3   OH271794   2.024   1.618  12.159  0.0299  0.1829  0.3809
16768TIP3    H171795   2.117   1.638  12.150  0.3634 -1.2672  0.3888
16768TIP3    H271796   2.020   1.546  12.222 -1.1666  0.6704  0.9131
16769TIP3   OH271797   1.255   2.704   3.887 -0.1277  0.0785  0.1158
16769TIP3    H171798   1.187   2.673   3.827 -0.0267 -1.9072  0.9448
16769TIP3    H271799   1.219   2.688   3.974  0.3731  1.4568  0.6053
16770TIP3   OH271800   2.785   5.415  14.291  0.6707 -0.3463 -0.2865
16770TIP3    H171801   2.814   5.483  14.351 -1.0591 -0.7097  1.0330
16770TIP3    H271802   2.780   5.458  14.205 -1.4789  1.5305  0.7036
16771TIP3   OH271803   4.719   6.410   2.667  0.3468  0.3341 -0.3767
16771TIP3    H171804   4.657   6.475   2.699  0.2712 -0.2574  0.7275
16771TIP3    H271805   4.693   6.394   2.577 -2.1960 -1.1415  0.5299
16772TIP3   OH271806   5.769   0.887   0.216  0.3926  0.4508  0.0236
16772TIP3    H171807   5.679   0.875   0.246  0.0812 -2.0878 -1.6613
16772TIP3    H271808   5.803   0.798   0.205  2.6250  1.3342 -0.7921
16773TIP3   OH271809   2.527   4.743  12.750 -0.3808 -0.7044 -0.3445
16773TIP3    H171810   2.504   4.836  12.758 -2.6174 -1.2810  0.7008
16773TIP3    H271811   2.466   4.708  12.686 -0.4408 -1.7267  0.2528
16774TIP3   OH271812   3.270   5.754  13.390 -0.0760  0.7480 -0.0012
16774TIP3    H171813   3.246   5.787  13.304  1.9541  2.6863  0.0705
16774TIP3    H271814   3.210   5.797  13.450 -1.5281 -0.6445 -0.3873
16775TIP3   OH271815   3.497   1.213   6.070 -0.1224 -0.0461 -0.0058
16775TIP3    H171816   3.531   1.240   5.984 -1.2797 -1.5850 -0.9952
16775TIP3    H271817   3.453   1.291   6.104  1.7968  1.1133  0.0166
16776TIP3   OH271818   0.538   3.631   1.788 -0.3751 -0.1774  0.0937
16776TIP3    H171819   0.468   3.582   1.831  0.6462 -0.3972  1.5975
16776TIP3    H271820   0.542   3.595   1.700 -0.4254 -2.0411  0.8040
16777TIP3   OH271821   5.223   0.913   2.468 -0.6769 -0.0842  0.3027
16777TIP3    H171822   5.153   0.919   2.403  0.0280  1.2365 -0.3575
16777TIP3    H271823   5.274   0.993   2.457 -0.1347 -0.1518  2.0280
16778TIP3   OH271824   3.225   2.473   3.903 -0.2721  0.7701 -0.1147
16778TIP3    H171825   3.298   2.425   3.942 -0.2570  0.0443 -1.0030
16778TIP3    H271826   3.163   2.405   3.876 -0.1987  1.2228 -1.5193
16779TIP3   OH271827   2.840   5.718   1.330  0.4925  0.3870  0.3990
16779TIP3    H171828   2.919   5.747   1.375 -1.4965  2.2315  2.9668
16779TIP3    H271829   2.807   5.645   1.383  0.3545 -0.2819 -0.5731
16780TIP3   OH271830   3.153   0.255  14.650  0.1940 -0.1069  0.2711
16780TIP3    H171831   3.111   0.169  14.639  0.2208 -0.0160 -0.6009
16780TIP3    H271832   3.105   0.312  14.590  3.2003 -0.5514 -2.7903
16781TIP3   OH271833   1.014   1.496   5.421 -0.0339  0.2176 -0.6987
16781TIP3    H171834   1.034   1.576   5.470 -1.5016  0.6779 -0.8065
16781TIP3    H271835   1.054   1.426   5.473 -2.5131  0.5407  1.9268
16782TIP3   OH271836   3.563   0.831  13.760  0.2930  0.4789 -0.0583
16782TIP3    H171837   3.488   0.804  13.707 -0.3820  1.8629  0.1388
16782TIP3    H271838   3.536   0.915  13.798  1.3958  0.3071  1.1646
16783TIP3   OH271839   3.037   4.488   3.332  0.0726  0.0822  0.1063
16783TIP3    H171840   3.118   4.503   3.283 -0.4468  1.8269 -0.2901
16783TIP3    H271841   3.046   4.543   3.410 -1.5318  2.0032 -0.9445
16784TIP3   OH271842   4.322   0.368   1.319  0.0956  0.1980  0.1059
16784TIP3    H171843   4.331   0.369   1.414  1.5312  0.1168  0.0018
16784TIP3    H271844   4.402   0.412   1.288  0.4067 -1.1534 -1.0873
16785TIP3   OH271845   3.067   5.108  15.780 -0.3990  0.3230 -0.1811
16785TIP3    H171846   3.072   5.188  15.833 -0.1143 -0.2575  0.6909
16785TIP3    H271847   3.135   5.051  15.816  0.4691  0.2720 -1.8199
16786TIP3   OH271848   6.180   6.169   1.530  0.2780 -0.4076 -0.4788
16786TIP3    H171849   6.167   6.087   1.578  1.5756 -1.0998 -1.2573
16786TIP3    H271850   6.097   6.183   1.484 -0.5878 -0.3137  1.0473
16787TIP3   OH271851   1.177   4.417  16.901 -0.3042  0.5067  0.5946
16787TIP3    H171852   1.159   4.472  16.977 -0.6694 -1.0198  1.6537
16787TIP3    H271853   1.108   4.439  16.838 -0.6079  1.0391  1.1050
16788TIP3   OH271854   2.424   1.696   3.946 -0.1894 -0.2389  0.5132
16788TIP3    H171855   2.399   1.669   4.035 -0.8710  1.8218  0.9891
16788TIP3    H271856   2.483   1.626   3.916 -1.7558 -2.1802  1.6704
16789TIP3   OH271857   1.256   1.090   3.824  0.4498  0.0888  0.4024
16789TIP3    H171858   1.342   1.116   3.858  1.0056 -2.0418  0.7909
16789TIP3    H271859   1.227   1.164   3.772  2.7791  0.6746 -0.1693
16790TIP3   OH271860   3.302   1.246   0.397  0.0102 -0.1114  0.1426
16790TIP3    H171861   3.257   1.230   0.314 -0.1317  0.4044  0.1162
16790TIP3    H271862   3.381   1.192   0.392 -0.5356 -0.9407  0.1365
16791TIP3   OH271863   6.645   2.662  15.346 -0.2784 -0.7146 -0.0438
16791TIP3    H171864   6.638   2.579  15.299  0.7808  0.1262 -1.8277
16791TIP3    H271865   6.614   2.644  15.434 -0.1309 -2.9755 -0.4129
16792TIP3   OH271866   1.280   4.271  15.258 -0.9139 -0.7304  0.6849
16792TIP3    H171867   1.264   4.248  15.349 -1.1409 -0.1604  0.7940
16792TIP3    H271868   1.369   4.242  15.241 -1.3212 -2.0551  0.6897
16793TIP3   OH271869   0.104   3.233   2.726 -0.0468  0.3320 -0.8821
16793TIP3    H171870   0.021   3.263   2.765 -0.6074 -2.6112  0.4185
16793TIP3    H271871   0.080   3.203   2.639 -0.1043  0.5483 -0.9429
16794TIP3   OH271872   3.489   3.470   4.189 -0.2324  0.1647  0.2031
16794TIP3    H171873   3.525   3.552   4.221  0.7071 -0.9487  2.1709
16794TIP3    H271874   3.566   3.422   4.156 -0.2851 -1.0189  1.6737
16795TIP3   OH271875   4.796   5.309  13.637  0.4122  0.5207  0.6785
16795TIP3    H171876   4.738   5.241  13.673  1.1035 -0.9606 -0.8876
16795TIP3    H271877   4.747   5.345  13.563  1.5614 -0.9715 -0.8639
16796TIP3   OH271878   0.951   2.494  12.086  0.1534 -0.0354 -0.1560
16796TIP3    H171879   0.980   2.565  12.028  0.7178 -0.1923 -0.0754
16796TIP3    H271880   0.947   2.534  12.173  0.2436 -0.0371 -0.1502
16797TIP3   OH271881   3.564   6.240   0.767 -0.2711 -0.0514 -0.5276
16797TIP3    H171882   3.566   6.336   0.770 -1.5762 -0.0375  1.3114
16797TIP3    H271883   3.510   6.214   0.842  0.4233 -2.2518 -0.7080
16798TIP3   OH271884   5.910   6.586  15.848  0.1292  0.4581  0.1081
16798TIP3    H171885   5.922   6.622  15.936 -0.5810 -2.1936  1.4005
16798TIP3    H271886   5.816   6.593  15.832  0.4126  2.2493 -1.1451
16799TIP3   OH271887   1.358   5.918  16.892  0.0630 -0.3412 -0.0074
16799TIP3    H171888   1.266   5.940  16.882 -0.1415 -1.0711  0.2282
16799TIP3    H271889   1.361   5.823  16.891  0.8812 -0.3255 -0.5852
16800TIP3   OH271890   3.819   1.776  13.338 -0.0664 -0.1501 -0.1896
16800TIP3    H171891   3.904   1.807  13.308 -0.0499  0.6755  0.6500
16800TIP3    H271892   3.773   1.750  13.258  1.1448 -1.1082 -0.6154
16801TIP3   OH271893   4.719   2.214   3.183  0.2133 -0.0654  0.3657
16801TIP3    H171894   4.716   2.270   3.105 -1.0118  0.5274  0.7999
16801TIP3    H271895   4.754   2.271   3.252  0.4062 -0.3036  0.4668
16802TIP3   OH271896   1.551   0.710   4.675 -0.2444  0.3133 -0.3248
16802TIP3    H171897   1.490   0.700   4.602  0.4358 -1.0064 -0.7428
16802TIP3    H271898   1.616   0.641   4.662 -0.3405 -0.2335  1.7381
16803TIP3   OH271899   3.238   2.467  13.337  0.1259 -0.2367 -0.4148
16803TIP3    H171900   3.182   2.415  13.279 -0.4159  0.2821 -0.3688
16803TIP3    H271901   3.325   2.428  13.328 -0.5238 -2.0311  0.6867
16804TIP3   OH271902   1.107   6.495   3.101 -0.0153  0.1704 -0.5272
16804TIP3    H171903   1.115   6.543   3.018 -0.2161 -1.0746 -1.2964
16804TIP3    H271904   1.035   6.434   3.086  1.6005 -1.8840 -0.3843
16805TIP3   OH271905   3.347   1.009   2.447  0.1488 -0.4489  0.0292
16805TIP3    H171906   3.271   0.951   2.443  0.6422 -1.0719 -0.4894
16805TIP3    H271907   3.404   0.980   2.376  0.4427  0.6316 -0.2073
16806TIP3   OH271908   1.330   4.085  16.885  0.6221 -0.0889 -0.2635
16806TIP3    H171909   1.347   4.110  16.794 -0.8012 -0.4196 -0.6496
16806TIP3    H271910   1.305   4.167  16.928  0.1236 -0.1319 -0.4703
16807TIP3   OH271911   2.967   1.638  16.270  0.0580 -0.2399 -0.2593
16807TIP3    H171912   2.924   1.681  16.344 -0.3906  1.1269 -1.2634
16807TIP3    H271913   2.899   1.585  16.230 -0.2555  0.5675 -0.8281
16808TIP3   OH271914   3.545   0.481  13.206  0.0778  0.2646  0.4958
16808TIP3    H171915   3.591   0.406  13.167 -0.7263  1.0372 -2.2061
16808TIP3    H271916   3.467   0.443  13.246  1.4052 -0.6855  2.2955
16809TIP3   OH271917   0.273   4.774  11.404  0.4652 -0.1466 -0.0284
16809TIP3    H171918   0.278   4.791  11.309 -0.3949 -0.9492 -0.2333
16809TIP3    H271919   0.335   4.703  11.419 -1.0740 -1.6518 -0.4328
16810TIP3   OH271920   1.895   4.044   2.171  0.6010 -0.3718  0.7887
16810TIP3    H171921   1.869   3.952   2.172  1.6858 -0.7096 -0.0174
16810TIP3    H271922   1.845   4.083   2.099  0.2052 -0.3441  1.0757
16811TIP3   OH271923   3.199   1.986  12.850 -1.1685  0.2932 -0.4217
16811TIP3    H171924   3.259   2.018  12.783 -0.8175  0.6758  0.0664
16811TIP3    H271925   3.117   1.969  12.802 -0.2892 -1.5688 -1.3398
16812TIP3   OH271926   3.332   3.785  12.002 -1.0311 -0.5143 -0.2686
16812TIP3    H171927   3.395   3.846  11.963 -1.1572  0.6950  1.3500
16812TIP3    H271928   3.248   3.810  11.964 -1.2955  1.2401  1.3187
16813TIP3   OH271929   1.518   4.788  14.310 -0.2396 -0.0384  0.0790
16813TIP3    H171930   1.425   4.763  14.307 -0.6000  1.2303  0.1395
16813TIP3    H271931   1.518   4.881  14.288  1.2164 -0.4287 -1.8429
16814TIP3   OH271932   6.272   2.941   2.555  0.5611 -0.1205 -0.3235
16814TIP3    H171933   6.366   2.956   2.556  0.4064  0.9084  0.9226
16814TIP3    H271934   6.235   3.017   2.598 -0.5843 -2.2144  2.7436
16815TIP3   OH271935   3.160   1.746   3.184 -0.3388 -0.3629  0.7391
16815TIP3    H171936   3.204   1.721   3.103  0.2465  1.8740  0.3073
16815TIP3    H271937   3.101   1.673   3.203 -1.1671 -0.5643 -2.1908
16816TIP3   OH271938   4.276   0.610  13.626 -0.4081  0.0680  0.7932
16816TIP3    H171939   4.340   0.672  13.590  0.8974 -0.6833  1.7004
16816TIP3    H271940   4.292   0.528  13.579 -0.6686 -0.1412  1.0602
16817TIP3   OH271941   0.647   4.769   5.888  0.0308 -0.1036  0.4964
16817TIP3    H171942   0.691   4.693   5.850 -0.5593  0.5337 -1.6379
16817TIP3    H271943   0.561   4.736   5.913 -0.7308  0.0577 -1.6647
16818TIP3   OH271944   1.796   2.099  17.007 -0.0968  0.5013 -0.2344
16818TIP3    H171945   1.779   2.006  17.020 -0.4303  0.5341 -0.4386
16818TIP3    H271946   1.805   2.109  16.912 -2.3353  1.0535 -0.4306
16819TIP3   OH271947   4.310   4.147   0.096  0.1827 -0.4774  0.0767
16819TIP3    H171948   4.319   4.144   0.192 -1.6796  0.0614  0.3038
16819TIP3    H271949   4.280   4.236   0.078 -0.9813 -1.0312 -0.8333
16820TIP3   OH271950   4.131   5.755   1.316 -0.4091 -0.4601  0.3353
16820TIP3    H171951   4.112   5.836   1.364 -1.1518 -0.9285  0.8443
16820TIP3    H271952   4.047   5.708   1.315 -1.0730  0.5139 -3.3299
16821TIP3   OH271953   4.221   3.602  14.932 -0.3803  0.2705  0.7945
16821TIP3    H171954   4.273   3.681  14.946 -0.3581  0.3584  0.2634
16821TIP3    H271955   4.145   3.612  14.989  0.7345 -0.3939  2.4567
16822TIP3   OH271956   0.536   1.173   2.484 -0.0025  0.0206  0.3814
16822TIP3    H171957   0.580   1.088   2.489  1.5244  0.5893 -1.8001
16822TIP3    H271958   0.516   1.196   2.575  1.6832 -1.5778  1.2126
16823TIP3   OH271959   6.377   4.674  13.859  0.4562 -0.3757  0.5201
16823TIP3    H171960   6.340   4.750  13.904  0.1559 -0.9064  1.1841
16823TIP3    H271961   6.308   4.646  13.798  0.8146  0.2682 -0.1832
16824TIP3   OH271962   3.768   4.096  15.790 -0.1677  0.1941  0.0246
16824TIP3    H171963   3.764   4.064  15.880  0.2956  0.3256  0.0937
16824TIP3    H271964   3.821   4.176  15.795  0.4038 -0.1501 -0.4688
16825TIP3   OH271965   1.330   4.803   0.520  0.0393 -0.7489  0.3606
16825TIP3    H171966   1.319   4.715   0.485 -2.0242  0.2962 -1.9484
16825TIP3    H271967   1.245   4.845   0.506  0.1842  0.9096  3.6583
16826TIP3   OH271968   5.021   6.530  13.204 -0.2226  0.3067  0.2488
16826TIP3    H171969   5.069   6.478  13.269  1.7434  0.6523 -0.8235
16826TIP3    H271970   5.029   6.479  13.123 -0.8748  0.8436 -0.1565
16827TIP3   OH271971   4.239   5.285  11.770 -1.1872 -0.2262 -0.3037
16827TIP3    H171972   4.298   5.321  11.705 -0.1449 -2.4332 -0.6570
16827TIP3    H271973   4.245   5.345  11.844  1.9310 -0.5885 -0.1320
16828TIP3   OH271974   6.238   1.446   2.391  0.3149  0.4856  0.4723
16828TIP3    H171975   6.299   1.473   2.322 -0.6697  1.5253 -0.0122
16828TIP3    H271976   6.151   1.461   2.354 -0.2393 -0.2031  1.4551
16829TIP3   OH271977   3.613   0.355   0.086  0.0184  0.5986 -0.5693
16829TIP3    H171978   3.668   0.340   0.009  0.4047  0.8305 -0.3385
16829TIP3    H271979   3.667   0.329   0.160 -0.8664 -1.0465 -0.4429
16830TIP3   OH271980   2.676   5.755  13.593 -0.3172  0.7821  0.3157
16830TIP3    H171981   2.723   5.781  13.672 -0.5365  0.1253  0.6641
16830TIP3    H271982   2.742   5.711  13.539 -0.9222 -2.0682  1.7079
16831TIP3   OH271983   5.376   2.162   2.186 -0.0321  0.3725  0.2868
16831TIP3    H171984   5.369   2.122   2.272  2.4791  2.7813  1.7888
16831TIP3    H271985   5.460   2.131   2.151 -1.1136 -0.7443 -1.4454
16832TIP3   OH271986   1.799   1.645   1.175  0.0843 -0.0988  0.3186
16832TIP3    H171987   1.723   1.586   1.175  0.5607 -0.7565 -1.0169
16832TIP3    H271988   1.763   1.730   1.197 -1.6649  0.2518 -3.0995
16833TIP3   OH271989   5.134   2.576  16.132 -0.1270  0.2796  0.1586
16833TIP3    H171990   5.096   2.659  16.163  2.3005  1.7700 -0.5659
16833TIP3    H271991   5.174   2.538  16.210  1.9641  1.7383 -0.0917
16834TIP3   OH271992   4.275   5.811  11.161 -0.5094  0.0220  0.9184
16834TIP3    H171993   4.277   5.838  11.253 -0.7624 -0.0053  0.9302
16834TIP3    H271994   4.324   5.879  11.115  0.7482 -0.6293  1.2491
16835TIP3   OH271995   2.276   0.433   2.152 -0.0263 -0.3508  0.1919
16835TIP3    H171996   2.188   0.437   2.114 -0.5209 -1.4747  1.1553
16835TIP3    H271997   2.300   0.525   2.168 -1.7889 -0.0783  1.5868
16836TIP3   OH271998   0.982   1.437  11.773 -0.2050  0.9543 -0.6307
16836TIP3    H171999   0.918   1.467  11.709 -1.7892 -0.8582  0.0306
16836TIP3    H272000   0.962   1.485  11.853  0.0579  1.2518 -0.7381
16837TIP3   OH272001   3.810   3.516   4.453 -0.1124 -0.4072  0.6068
16837TIP3    H172002   3.796   3.427   4.484 -0.4923  0.7094  4.1000
16837TIP3    H272003   3.732   3.564   4.479  0.8233  1.3098  0.4400
16838TIP3   OH272004   2.373   6.388   1.021  0.6475 -0.0406  0.1043
16838TIP3    H172005   2.329   6.452   1.076  0.4595  0.3117 -0.4392
16838TIP3    H272006   2.311   6.315   1.014  1.3373 -0.8119  1.6763
16839TIP3   OH272007   5.699   0.119   3.920  0.1534 -0.5325  0.2191
16839TIP3    H172008   5.606   0.103   3.904  0.2415  0.7597 -1.9861
16839TIP3    H272009   5.702   0.185   3.989 -0.5339 -0.9550  0.6585
16840TIP3   OH272010   6.636   6.694  10.860 -0.3996 -0.6840  0.3574
16840TIP3    H172011   6.716   6.642  10.849 -0.1335 -0.1407 -0.3369
16840TIP3    H272012   6.569   6.645  10.811  0.0900  0.1429 -1.2115
16841TIP3   OH272013   1.469   2.473   1.825  0.4323  0.4042 -0.1065
16841TIP3    H172014   1.413   2.519   1.887 -1.1330  1.4156 -2.1527
16841TIP3    H272015   1.461   2.523   1.744  1.8051 -1.2745 -1.3500
16842TIP3   OH272016   0.320   6.541  15.356 -0.6117  0.3208  0.2414
16842TIP3    H172017   0.256   6.600  15.397 -1.2060  0.2392 -0.5516
16842TIP3    H272018   0.324   6.569  15.265 -0.6568 -0.6485 -0.0712
16843TIP3   OH272019   6.241   1.018  16.375 -0.4035 -0.2365  0.1835
16843TIP3    H172020   6.280   1.001  16.461  0.3183  0.3002 -0.0184
16843TIP3    H272021   6.162   0.965  16.373  0.8410 -2.1976  0.2250
16844TIP3   OH272022   5.974   4.605   6.116  0.6569 -0.4144  0.1878
16844TIP3    H172023   6.013   4.518   6.129  0.7100 -0.4686 -0.3378
16844TIP3    H272024   5.930   4.624   6.199  0.8043 -0.8632  0.3703
16845TIP3   OH272025   1.607   6.088   3.956  0.1336  0.3173 -0.6825
16845TIP3    H172026   1.675   6.116   4.018 -0.3590  0.4927 -0.2074
16845TIP3    H272027   1.591   6.165   3.901 -1.6882  1.2849  1.0471
16846TIP3   OH272028   6.207   4.141   5.877 -0.6480 -0.7164  0.4854
16846TIP3    H172029   6.194   4.050   5.851  0.6766 -0.9935  0.7215
16846TIP3    H272030   6.202   4.139   5.973 -0.1359 -0.6361  0.5175
16847TIP3   OH272031   2.684   3.996  11.732  0.0252 -0.1106  0.2126
16847TIP3    H172032   2.636   4.072  11.764  0.9406 -0.2047  1.9264
16847TIP3    H272033   2.652   3.923  11.785 -1.0759 -1.0304 -1.6221
16848TIP3   OH272034   4.508   5.133  16.850  0.1116 -0.3183  0.2884
16848TIP3    H172035   4.479   5.046  16.877 -0.3334 -0.5570 -0.9055
16848TIP3    H272036   4.580   5.117  16.789 -0.5131  0.1024 -0.5814
16849TIP3   OH272037   1.604   5.728   4.921 -0.3012 -0.0637 -0.4524
16849TIP3    H172038   1.657   5.784   4.978 -0.0108  0.1426 -0.9205
16849TIP3    H272039   1.568   5.787   4.856 -1.1251 -0.2026 -0.1352
16850TIP3   OH272040   2.590   2.002  15.436 -0.3342  0.0372  0.1131
16850TIP3    H172041   2.657   2.069  15.419  0.7233 -1.4462 -2.0201
16850TIP3    H272042   2.531   2.043  15.500  1.8357  1.9121  1.0624
16851TIP3   OH272043   1.399   4.430   0.968 -0.0706  0.4420  0.9469
16851TIP3    H172044   1.449   4.363   0.922 -0.8758 -1.8880  3.2095
16851TIP3    H272045   1.337   4.463   0.902  0.6574 -0.7043 -0.3651
16852TIP3   OH272046   2.401   5.985   5.274 -0.1077  0.0515 -0.2893
16852TIP3    H172047   2.466   5.991   5.344  0.4523 -0.6544 -0.7419
16852TIP3    H272048   2.327   5.939   5.315 -0.0511  0.2377  0.0277
16853TIP3   OH272049   3.789   1.035  13.946  0.0528 -0.3326  0.1446
16853TIP3    H172050   3.716   0.995  13.899 -0.4807  0.5126  0.2396
16853TIP3    H272051   3.783   0.999  14.035  0.2640 -0.9050 -0.0676
16854TIP3   OH272052   6.065   5.725  15.073  0.1928  0.1731  0.3813
16854TIP3    H172053   6.027   5.805  15.037  0.5685  0.9193  1.5967
16854TIP3    H272054   6.158   5.744  15.081  0.2098 -0.2193  1.1252
16855TIP3   OH272055   1.617   2.586   6.367  0.0071 -1.3639 -0.1963
16855TIP3    H172056   1.699   2.544   6.342  1.1754 -0.0968  1.3211
16855TIP3    H272057   1.633   2.620   6.455 -2.0344 -0.7600 -0.0100
16856TIP3   OH272058   2.298   4.423  13.305 -0.1148  0.4961 -0.0552
16856TIP3    H172059   2.391   4.446  13.313 -0.0197  0.0752  0.0627
16856TIP3    H272060   2.255   4.506  13.288  0.1001  0.9448  1.4139
16857TIP3   OH272061   2.971   5.979  11.243 -0.1031  0.0254  0.4883
16857TIP3    H172062   3.056   5.950  11.210 -0.9673 -0.4353 -1.4739
16857TIP3    H272063   2.928   6.017  11.167 -1.8525 -0.2239  1.3167
16858TIP3   OH272064   2.482   3.275  16.968 -0.3941  0.0601  0.4479
16858TIP3    H172065   2.529   3.308  16.891 -0.4108 -0.6327  0.1327
16858TIP3    H272066   2.468   3.183  16.949 -0.8375 -0.0032  1.0724
16859TIP3   OH272067   2.566   1.481   1.165 -0.3884  0.4911  0.4576
16859TIP3    H172068   2.535   1.452   1.251  0.5884 -0.2749  0.5682
16859TIP3    H272069   2.544   1.409   1.106 -0.6314  0.8131  0.1563
16860TIP3   OH272070   1.698   2.046  14.922 -0.1506 -0.3711  0.4687
16860TIP3    H172071   1.793   2.059  14.914  0.1594 -2.5702 -0.1895
16860TIP3    H272072   1.673   2.008  14.837 -1.7665  0.8065  0.3789
16861TIP3   OH272073   5.401   2.838  15.366  0.3724  0.4111 -0.2178
16861TIP3    H172074   5.353   2.757  15.384 -0.3079  0.6084 -1.0765
16861TIP3    H272075   5.358   2.875  15.289  0.6141  1.6465  0.2152
16862TIP3   OH272076   5.128   0.700   4.402  0.4402 -0.1815 -0.4155
16862TIP3    H172077   5.211   0.668   4.367  1.4317  0.1522  1.4652
16862TIP3    H272078   5.094   0.628   4.454 -0.6052 -0.4033 -1.3759
16863TIP3   OH272079   1.415   3.617  14.824  0.3815  0.0065  0.2824
16863TIP3    H172080   1.392   3.610  14.731  0.2956  0.1556  0.2930
16863TIP3    H272081   1.508   3.597  14.827  0.5272  0.6473  0.0817
16864TIP3   OH272082   5.743   0.864  16.418 -0.5234 -0.3364 -0.4723
16864TIP3    H172083   5.661   0.898  16.455 -0.1047  0.4511 -0.2464
16864TIP3    H272084   5.717   0.826  16.334 -1.0585  0.3202 -0.6176
16865TIP3   OH272085   0.290   1.494   1.464 -0.0224 -0.2008 -0.2978
16865TIP3    H172086   0.300   1.588   1.448 -0.0546  0.2125  1.8188
16865TIP3    H272087   0.277   1.456   1.377  1.0354  1.6128 -1.3045
16866TIP3   OH272088   0.331   1.794   5.758 -0.0808  0.1461  0.0389
16866TIP3    H172089   0.297   1.849   5.829  1.0522  0.0905  0.6467
16866TIP3    H272090   0.383   1.727   5.802 -0.4138 -0.6548 -0.7785
16867TIP3   OH272091   2.981   1.806   0.734 -0.1623 -0.2573 -0.2620
16867TIP3    H172092   2.958   1.829   0.645  0.3893  0.2294 -0.2857
16867TIP3    H272093   3.068   1.844   0.747 -0.9776  1.2745  1.0700
16868TIP3   OH272094   6.067   1.305   0.181  0.1765 -0.4528  0.3356
16868TIP3    H172095   6.027   1.218   0.184 -0.4409 -0.1515  1.2643
16868TIP3    H272096   6.032   1.350   0.257 -0.4835  1.0380 -0.7934
16869TIP3   OH272097   2.993   6.637  12.563 -0.0161 -0.2918  0.4740
16869TIP3    H172098   3.007   6.696  12.489 -1.9333  1.3769  1.3285
16869TIP3    H272099   2.986   6.550  12.524 -0.5344  0.4814 -1.2419
16870TIP3   OH272100   0.995   2.956   3.655  0.1336  0.1410 -0.0239
16870TIP3    H172101   1.001   2.863   3.634 -0.7587 -0.7422  3.0393
16870TIP3    H272102   0.998   2.958   3.751  0.1373  3.2929 -0.0114
16871TIP3   OH272103   3.543   1.695   0.172  0.3274  0.1839 -0.0639
16871TIP3    H172104   3.527   1.614   0.123  1.5566  0.2425 -0.6118
16871TIP3    H272105   3.541   1.764   0.105  0.5469  0.4451  0.1983
16872TIP3   OH272106   2.147   4.404  16.933  0.1551  0.3032 -0.5595
16872TIP3    H172107   2.207   4.479  16.929  0.9230 -0.3076 -0.8067
16872TIP3    H272108   2.186   4.346  16.999 -1.2171  0.7613  0.7149
16873TIP3   OH272109   6.044   1.513  13.490  0.1473 -0.3741 -0.3341
16873TIP3    H172110   6.126   1.470  13.465  1.5373  0.8957  1.6912
16873TIP3    H272111   5.980   1.442  13.494  2.1722 -2.2667  2.2717
16874TIP3   OH272112   5.484   0.263  16.531 -0.7520 -0.7044  0.7391
16874TIP3    H172113   5.425   0.190  16.511  1.5289 -1.9048 -2.4641
16874TIP3    H272114   5.428   0.340  16.531 -2.6331 -2.0052 -0.0208
16875TIP3   OH272115   0.436   5.464   5.819 -0.3106 -0.5228 -0.0098
16875TIP3    H172116   0.441   5.417   5.902 -0.7072 -1.6871 -0.6186
16875TIP3    H272117   0.366   5.528   5.832  0.3763  0.0626  0.9019
16876TIP3   OH272118   4.634   4.108  15.530  0.2976  0.7278  0.6617
16876TIP3    H172119   4.642   4.017  15.503  2.8681  1.8327 -3.1269
16876TIP3    H272120   4.669   4.110  15.619  2.3062 -1.6939  0.0406
16877TIP3   OH272121   0.434   2.705   3.358 -0.2619  0.1602 -0.2045
16877TIP3    H172122   0.422   2.631   3.298 -1.2294  0.9818 -1.0697
16877TIP3    H272123   0.523   2.695   3.392 -0.2733 -1.2277 -0.5233
16878TIP3   OH272124   2.132   6.185  15.983 -0.5811 -0.2851 -0.1285
16878TIP3    H172125   2.135   6.266  16.034  0.1212 -0.1297 -0.4016
16878TIP3    H272126   2.043   6.152  15.995 -0.7444  0.3067  0.3283
16879TIP3   OH272127   0.443   3.820  16.941 -0.0177 -0.1199 -0.6762
16879TIP3    H172128   0.372   3.781  16.889 -0.0934  0.1109 -0.7458
16879TIP3    H272129   0.421   3.913  16.945 -1.7006 -0.5262  2.4129
16880TIP3   OH272130   3.555   5.927  13.305 -0.0891 -0.1178 -0.7823
16880TIP3    H172131   3.478   5.909  13.359  1.2494 -0.2440  1.2216
16880TIP3    H272132   3.622   5.954  13.368  1.0846  1.4727 -2.6014
16881TIP3   OH272133   6.095   0.721   2.383 -0.1636  0.0929  0.5623
16881TIP3    H172134   6.163   0.671   2.429 -0.3845  0.7972  1.6834
16881TIP3    H272135   6.142   0.766   2.313  0.1561 -1.0872 -0.0111
16882TIP3   OH272136   3.154   1.148  11.001 -0.1203  0.0316  0.3006
16882TIP3    H172137   3.154   1.176  11.093  0.3644 -1.7993  0.8994
16882TIP3    H272138   3.067   1.170  10.969 -0.2319  0.8616  1.1374
16883TIP3   OH272139   3.114   5.829   3.309 -0.5459  0.4988 -0.0438
16883TIP3    H172140   3.148   5.797   3.393  1.9889 -2.4347 -2.0004
16883TIP3    H272141   3.054   5.760   3.279 -0.4739  0.9144 -1.1996
16884TIP3   OH272142   0.197   5.690   4.889 -0.0413  0.5840  0.5215
16884TIP3    H172143   0.261   5.659   4.954  0.0273 -0.7807 -0.1566
16884TIP3    H272144   0.246   5.753   4.836  0.7011 -0.2723  0.1542
16885TIP3   OH272145   3.855   3.931   5.345 -0.2646 -0.1138 -0.3829
16885TIP3    H172146   3.764   3.960   5.339 -1.0772 -1.9003  1.8489
16885TIP3    H272147   3.875   3.895   5.259 -1.6424  0.3600 -0.9160
16886TIP3   OH272148   0.875   6.231   4.720  0.1128 -0.2443 -0.2036
16886TIP3    H172149   0.830   6.180   4.788  1.3240 -1.0015  0.0685
16886TIP3    H272150   0.861   6.181   4.639 -1.9080  1.0113 -0.6879
16887TIP3   OH272151   0.214   2.196   3.112 -0.3122 -0.2826  0.0734
16887TIP3    H172152   0.179   2.257   3.047  1.2997 -0.0430 -0.6403
16887TIP3    H272153   0.291   2.158   3.069 -0.6211 -1.9634  0.9462
16888TIP3   OH272154   2.482   2.223   4.533 -0.8518 -0.7954 -0.2321
16888TIP3    H172155   2.477   2.297   4.472  2.5960  1.0704  1.4848
16888TIP3    H272156   2.433   2.251   4.610  0.9241  0.0257  0.6406
16889TIP3   OH272157   4.599   2.536   1.287 -0.4580  0.0249 -0.4523
16889TIP3    H172158   4.582   2.459   1.341 -0.9060  0.3690 -0.0980
16889TIP3    H272159   4.598   2.609   1.349  0.4055  0.2723 -0.7147
16890TIP3   OH272160   2.433   2.562  14.878 -0.0633  0.2040  0.3899
16890TIP3    H172161   2.341   2.569  14.855  0.3246 -0.3731 -1.5001
16890TIP3    H272162   2.465   2.653  14.875  0.0915  0.1261 -2.1277
16891TIP3   OH272163   0.571   6.656  14.347 -0.0494 -0.1959  0.3422
16891TIP3    H172164   0.646   6.715  14.346 -0.3875  0.2488 -1.1297
16891TIP3    H272165   0.589   6.595  14.419  2.3744 -0.9317 -0.7828
16892TIP3   OH272166   3.002   1.427   1.798 -0.7206  0.7517 -0.0791
16892TIP3    H172167   2.990   1.350   1.743 -1.3712  0.9758 -0.2590
16892TIP3    H272168   3.096   1.442   1.799 -0.6871  0.6089 -0.9368
16893TIP3   OH272169   2.397   2.762  10.532  0.1888 -0.3499  0.0113
16893TIP3    H172170   2.380   2.682  10.582 -0.0195 -0.1496  0.2680
16893TIP3    H272171   2.427   2.825  10.597  0.4891 -0.2613 -0.2137
16894TIP3   OH272172   2.238   2.214   2.012 -0.1775 -1.0295 -0.1895
16894TIP3    H172173   2.183   2.279   1.967  1.6872  0.0433 -1.0849
16894TIP3    H272174   2.215   2.222   2.104 -1.4975 -0.6101 -0.5413
16895TIP3   OH272175   0.944   2.217   2.015 -0.0794  0.4112 -0.1118
16895TIP3    H172176   1.028   2.216   2.062  2.1458  0.0945 -3.6912
16895TIP3    H272177   0.944   2.300   1.968 -0.1578 -0.8904 -2.6024
16896TIP3   OH272178   2.371   1.140  14.278 -0.0889 -0.3789  0.7527
16896TIP3    H172179   2.326   1.218  14.246  0.7993  0.4286  1.4022
16896TIP3    H272180   2.388   1.089  14.200  1.0297  1.0178  0.0302
16897TIP3   OH272181   1.626   1.407   3.223 -0.1222  0.2159  0.0284
16897TIP3    H172182   1.674   1.338   3.178 -0.8983  0.0193 -0.5345
16897TIP3    H272183   1.687   1.481   3.227  1.1296 -0.8665  1.7034
16898TIP3   OH272184   2.090   5.007   1.007  0.3338 -0.4069  0.0232
16898TIP3    H172185   2.016   4.947   1.005  1.0176 -1.2808 -1.3863
16898TIP3    H272186   2.061   5.081   1.060 -1.4821 -0.7899 -0.3822
16899TIP3   OH272187   6.152   3.506   6.249 -0.1156 -0.5178  0.0541
16899TIP3    H172188   6.159   3.418   6.211 -1.8285 -0.4515 -0.4685
16899TIP3    H272189   6.144   3.564   6.174 -2.5519 -0.2897  0.4023
16900TIP3   OH272190   0.436   1.319  14.560  0.0751 -0.1384  0.6603
16900TIP3    H172191   0.506   1.285  14.616  1.4156 -1.2878 -1.5587
16900TIP3    H272192   0.394   1.240  14.525 -0.9172  0.5508  0.2675
16901TIP3   OH272193   6.683   5.715  12.032 -0.2824  0.7476  0.6376
16901TIP3    H172194   6.600   5.759  12.052 -1.3832 -2.0974  3.2746
16901TIP3    H272195   6.658   5.640  11.978  0.7846  0.5809  0.3566
16902TIP3   OH272196   1.491   2.159  11.763 -0.2527 -1.0318  0.0777
16902TIP3    H172197   1.563   2.209  11.801 -0.5671 -0.5274  0.0315
16902TIP3    H272198   1.532   2.102  11.699  0.2794 -1.8399  1.1111
16903TIP3   OH272199   6.650   5.874  15.220 -0.1506  0.6443  0.7693
16903TIP3    H172200   6.582   5.937  15.195  0.8789  1.9444  1.1537
16903TIP3    H272201   6.723   5.893  15.162  0.4313  0.2542  1.3566
16904TIP3   OH272202   4.784   3.324   2.316 -0.1498 -0.0073 -0.0238
16904TIP3    H172203   4.815   3.273   2.241  2.2974  0.2669  0.6945
16904TIP3    H272204   4.788   3.415   2.285 -3.2515 -0.0542 -0.8729
16905TIP3   OH272205   5.739   4.347   2.413  0.0789 -0.1494 -0.3778
16905TIP3    H172206   5.788   4.282   2.463  1.2411  0.0350 -1.2480
16905TIP3    H272207   5.764   4.431   2.450 -0.1198 -0.0939 -0.3673
16906TIP3   OH272208   1.387   4.544  13.882 -0.7336 -0.4655 -0.2008
16906TIP3    H172209   1.380   4.610  13.813  0.1364 -0.2142 -0.0608
16906TIP3    H272210   1.481   4.538  13.900 -0.9132 -0.8501  0.6550
16907TIP3   OH272211   4.011   5.139   1.824 -0.6041  0.0648  0.1342
16907TIP3    H172212   4.093   5.158   1.780  0.7049 -2.4795  1.2654
16907TIP3    H272213   4.031   5.150   1.917 -0.9588 -2.2891  0.5425
16908TIP3   OH272214   1.275   6.676   1.993 -0.6027  0.3107  0.5198
16908TIP3    H172215   1.354   6.728   2.007 -0.6078  0.6456 -0.5748
16908TIP3    H272216   1.239   6.662   2.081 -0.1227  1.4111  0.9074
16909TIP3   OH272217   0.733   1.526   3.158 -0.2529 -0.0995  0.1121
16909TIP3    H172218   0.657   1.505   3.213  0.6323 -1.3605  0.8992
16909TIP3    H272219   0.773   1.601   3.202  0.1560 -0.7791  0.9372
16910TIP3   OH272220   5.784   4.971  13.885 -0.4057 -0.5280  1.0805
16910TIP3    H172221   5.811   4.911  13.815  0.8684  0.3914  0.7421
16910TIP3    H272222   5.729   5.036  13.841 -0.1258 -0.3121  1.0439
16911TIP3   OH272223   2.630   6.342   1.218  0.2056  0.6924  0.2974
16911TIP3    H172224   2.655   6.317   1.307  1.2409  1.3078  0.1983
16911TIP3    H272225   2.714   6.355   1.173 -0.2121 -2.1832 -1.5512
16912TIP3   OH272226   2.618   3.799   3.416 -0.0752 -0.0185  0.0601
16912TIP3    H172227   2.681   3.729   3.397  1.5693  1.4123 -0.0618
16912TIP3    H272228   2.618   3.853   3.337  0.2604  1.2306  0.8773
16913TIP3   OH272229   5.918   6.566  16.131 -0.5651  0.2260 -0.4332
16913TIP3    H172230   5.909   6.471  16.135 -1.1170  0.2603 -0.7899
16913TIP3    H272231   5.893   6.596  16.219  3.5926 -0.2180  1.1566
16914TIP3   OH272232   1.926   4.279  14.456 -0.8324 -0.1396  0.5582
16914TIP3    H172233   1.840   4.320  14.450  0.7279  3.2875 -3.5043
16914TIP3    H272234   1.953   4.292  14.546 -3.1840  1.9084  1.0641
16915TIP3   OH272235   5.052   1.832  15.719 -0.1793  0.0807  0.5594
16915TIP3    H172236   4.972   1.846  15.771 -1.5830 -0.6302 -1.2911
16915TIP3    H272237   5.078   1.919  15.691 -0.9677  0.2380  0.2821
16916TIP3   OH272238   1.503   4.678  11.782  0.0970 -0.5907 -0.3317
16916TIP3    H172239   1.446   4.602  11.795 -0.4666 -0.1935 -0.4908
16916TIP3    H272240   1.450   4.740  11.733 -0.0757  0.6833  1.4152
16917TIP3   OH272241   5.869   4.914   6.114  0.3133 -0.5325  0.1423
16917TIP3    H172242   5.814   4.838   6.091 -1.5657  0.9342 -0.4496
16917TIP3    H272243   5.915   4.886   6.193 -0.7384 -2.1180  0.2568
16918TIP3   OH272244   3.047   3.032   1.215 -0.1248  0.0945 -0.6325
16918TIP3    H172245   3.101   3.102   1.177 -0.3719  0.4949 -0.2579
16918TIP3    H272246   3.042   3.054   1.308  0.7088 -1.0293 -0.2913
16919TIP3   OH272247   2.921   2.082  15.382  0.3537  0.8365  0.1355
16919TIP3    H172248   2.885   1.994  15.371 -1.5819  1.3915  1.4864
16919TIP3    H272249   2.982   2.074  15.456  1.1294  0.4029 -0.5387
16920TIP3   OH272250   0.335   3.472  15.275  0.7120 -0.2055 -0.3334
16920TIP3    H172251   0.335   3.461  15.180  0.3531  1.5464 -0.5814
16920TIP3    H272252   0.412   3.526  15.292 -0.5978  1.6498  0.0220
16921TIP3   OH272253   3.300   6.691  11.739 -0.0901  0.7009  0.1483
16921TIP3    H172254   3.311   6.626  11.670 -1.7122 -0.8183  1.2528
16921TIP3    H272255   3.278   6.772  11.692 -1.6648 -0.4094 -1.1187
16922TIP3   OH272256   4.681   4.237  16.633  0.0745  0.3815  0.5960
16922TIP3    H172257   4.670   4.182  16.711 -0.3149  1.8063  1.5939
16922TIP3    H272258   4.755   4.294  16.655 -1.1772  2.0259  0.6957
16923TIP3   OH272259   5.885   6.174  14.275  0.0183  0.4119  0.1671
16923TIP3    H172260   5.976   6.201  14.289 -0.1612  0.6638  0.8893
16923TIP3    H272261   5.885   6.134  14.188  0.0980  3.7321 -1.5212
16924TIP3   OH272262   4.080   0.824  13.649  0.1038  0.3110 -0.9469
16924TIP3    H172263   4.122   0.738  13.646 -0.3052  0.0471  0.4226
16924TIP3    H272264   4.000   0.813  13.597 -0.5569 -0.5064  0.1971
16925TIP3   OH272265   6.182   2.483  12.944  0.0773  0.3454 -0.2803
16925TIP3    H172266   6.271   2.468  12.974 -0.9052  0.3862  3.0425
16925TIP3    H272267   6.148   2.396  12.926  0.6897  0.3122 -1.3236
16926TIP3   OH272268   2.279   0.816  15.539 -0.2081 -0.6558  0.4890
16926TIP3    H172269   2.286   0.741  15.481  0.8910 -1.2979  1.4004
16926TIP3    H272270   2.307   0.891  15.486 -0.2535 -1.0562 -0.1070
16927TIP3   OH272271   4.010   1.735  12.976 -0.1754  0.0319 -0.1438
16927TIP3    H172272   4.007   1.685  12.895 -1.6365  1.0267 -0.7436
16927TIP3    H272273   3.919   1.742  13.004  0.1794  0.8107  0.8841
16928TIP3   OH272274   2.614   4.363   2.202  0.2237  0.1406 -0.0758
16928TIP3    H172275   2.620   4.434   2.138  0.0314  0.3688  0.1561
16928TIP3    H272276   2.691   4.375   2.258 -0.0152  0.4024  0.2002
16929TIP3   OH272277   0.117   6.638  16.045  0.2880 -0.6185  0.0189
16929TIP3    H172278   0.030   6.672  16.021  0.7048 -0.1062 -0.8344
16929TIP3    H272279   0.099   6.572  16.111 -0.8712 -1.3946 -1.0073
16930TIP3   OH272280   5.024   2.074   2.590 -0.3435 -0.1744  0.1308
16930TIP3    H172281   4.979   2.119   2.518 -1.4878 -0.8093  0.4181
16930TIP3    H272282   5.081   2.140   2.628 -0.1759  0.3422 -0.9748
16931TIP3   OH272283   4.428   5.136   6.215  0.3120  0.0899  0.4907
16931TIP3    H172284   4.419   5.223   6.176  0.0921  0.9067  2.2635
16931TIP3    H272285   4.470   5.152   6.300 -0.1019 -1.4950  1.0324
16932TIP3   OH272286   3.642   1.121   1.694 -0.3685 -0.2042 -0.3106
16932TIP3    H172287   3.724   1.142   1.739 -0.3828 -1.5481  0.3799
16932TIP3    H272288   3.638   1.026   1.694 -1.4206 -0.1767 -1.2861
16933TIP3   OH272289   2.773   1.847   4.350 -0.1754  0.0087  0.0203
16933TIP3    H172290   2.775   1.804   4.435  0.1676  0.8846  0.4683
16933TIP3    H272291   2.866   1.862   4.329 -0.0850 -2.2084 -1.5741
16934TIP3   OH272292   3.974   4.860  14.482  0.0152 -0.0744 -0.5687
16934TIP3    H172293   4.021   4.942  14.495  0.7619 -0.4331 -0.9420
16934TIP3    H272294   3.995   4.807  14.559  0.2009 -0.2267 -0.7238
16935TIP3   OH272295   4.099   1.049   2.793 -0.5243  0.9553  0.2957
16935TIP3    H172296   4.118   1.138   2.823  0.3755  0.8154  0.1734
16935TIP3    H272297   4.100   0.995   2.872 -0.9598  1.0347  0.3560
16936TIP3   OH272298   5.015   0.219   5.734 -0.1751  0.1353 -0.4403
16936TIP3    H172299   4.936   0.168   5.749  0.0432  0.2232  1.1157
16936TIP3    H272300   5.070   0.162   5.679 -0.4965 -0.7618  0.1372
16937TIP3   OH272301   2.412   3.026  14.332  0.5851  0.0213 -0.6844
16937TIP3    H172302   2.353   2.991  14.398 -0.8686 -0.7612 -2.3037
16937TIP3    H272303   2.363   3.100  14.294  1.1413  0.0987 -1.2649
16938TIP3   OH272304   4.846   1.126  12.166  0.1419  0.7085  0.3530
16938TIP3    H172305   4.908   1.121  12.239 -1.1389 -0.7516  1.3921
16938TIP3    H272306   4.763   1.149  12.206 -1.2085 -2.6734 -0.1417
16939TIP3   OH272307   4.641   4.655  12.063 -0.1180 -0.8388 -0.1277
16939TIP3    H172308   4.572   4.609  12.112  0.1000 -1.7992 -0.7003
16939TIP3    H272309   4.596   4.726  12.018 -0.2286  0.5067  1.9734
16940TIP3   OH272310   6.792   1.996  11.655  0.1755  0.3322  0.3747
16940TIP3    H172311   6.814   1.993  11.748  1.6783  0.3228  0.0414
16940TIP3    H272312   6.746   2.079  11.643  1.3927  1.0970  0.8483
16941TIP3   OH272313   5.514   1.143  14.459 -0.4989  0.0161 -0.3579
16941TIP3    H172314   5.576   1.108  14.395 -0.2727  1.5558 -1.0244
16941TIP3    H272315   5.542   1.233  14.472 -1.6940  0.2773  0.4838
16942TIP3   OH272316   6.449   3.771   1.322  0.3308  0.1788 -0.3126
16942TIP3    H172317   6.498   3.836   1.372  0.0542  0.3485 -0.2613
16942TIP3    H272318   6.499   3.690   1.332  0.0973  0.1297  0.5225
16943TIP3   OH272319   1.558   6.336   3.404 -0.0990 -0.3484 -0.1096
16943TIP3    H172320   1.487   6.381   3.451  0.3346  1.6995 -1.2752
16943TIP3    H272321   1.617   6.407   3.378  0.6742 -1.6303 -2.0214
16944TIP3   OH272322   5.950   6.603   0.700  0.2811  0.5057 -0.3137
16944TIP3    H172323   5.945   6.520   0.654  1.8738  0.9100 -1.2719
16944TIP3    H272324   5.959   6.579   0.792 -0.0373 -0.3615 -0.5018
16945TIP3   OH272325   5.513   1.353  15.871  0.5078 -0.1566 -0.1651
16945TIP3    H172326   5.581   1.405  15.913  0.1066  0.5122 -0.3254
16945TIP3    H272327   5.506   1.390  15.783 -1.6345  1.3384  0.5500
16946TIP3   OH272328   6.527   4.235  16.873 -0.5164 -0.0523 -0.2722
16946TIP3    H172329   6.550   4.253  16.782  1.7113 -1.0306  0.0281
16946TIP3    H272330   6.608   4.205  16.913 -1.5349 -0.0614  1.9520
16947TIP3   OH272331   3.949   6.825   2.690  0.2533  0.5173  0.5480
16947TIP3    H172332   3.991   6.746   2.722 -1.8689 -0.5565  0.8829
16947TIP3    H272333   3.908   6.799   2.607 -0.4895  1.2421  0.6671
16948TIP3   OH272334   2.772   6.667  12.324 -0.1914  0.2491  0.2185
16948TIP3    H172335   2.689   6.651  12.281 -0.2935 -0.7387  0.7500
16948TIP3    H272336   2.794   6.583  12.365  1.0353  0.5051  0.1274
16949TIP3   OH272337   3.090   6.387   0.376 -0.8013 -0.1949  0.8853
16949TIP3    H172338   3.010   6.440   0.376 -2.3393 -2.3244 -0.8303
16949TIP3    H272339   3.129   6.402   0.291  0.1011  0.0437  1.3308
16950TIP3   OH272340   0.908   3.582  11.879 -0.3871 -0.3991 -0.6138
16950TIP3    H172341   0.828   3.620  11.842 -0.5474  0.6254  0.7091
16950TIP3    H272342   0.909   3.492  11.846 -2.4207 -0.6299 -0.1981
16951TIP3   OH272343   5.909   3.565  16.881  0.6469  0.0680  0.3320
16951TIP3    H172344   5.918   3.657  16.856 -0.9358  0.4343  1.0074
16951TIP3    H272345   5.935   3.517  16.802 -1.4520  1.1495 -1.1396
16952TIP3   OH272346   4.298   5.165  13.703  0.0611  0.3551 -0.5892
16952TIP3    H172347   4.254   5.215  13.772 -0.9702  0.3392 -1.2150
16952TIP3    H272348   4.307   5.226  13.630 -0.8577 -0.2394 -1.2211
16953TIP3   OH272349   4.247   1.755   4.721  0.3550 -0.2046  1.1828
16953TIP3    H172350   4.273   1.847   4.726 -1.1725  0.2530  1.0622
16953TIP3    H272351   4.328   1.708   4.703  0.9274  1.2601 -0.2335
16954TIP3   OH272352   5.763   1.753  11.889  0.1437 -0.1006 -0.4282
16954TIP3    H172353   5.776   1.666  11.852 -2.7633 -1.1109  0.7083
16954TIP3    H272354   5.844   1.770  11.939  1.5141 -1.2897 -2.1331
16955TIP3   OH272355   3.819   5.629  16.083  0.0664 -0.5538  0.7325
16955TIP3    H172356   3.740   5.683  16.083  0.2373 -0.3068  0.6767
16955TIP3    H272357   3.873   5.665  16.153  0.3356 -0.4290  0.4588
16956TIP3   OH272358   6.569   3.374   2.334 -0.2291 -0.0968 -0.4336
16956TIP3    H172359   6.648   3.428   2.323 -0.1610 -0.5139 -2.2228
16956TIP3    H272360   6.508   3.431   2.382  1.5757 -0.2271  2.1999
16957TIP3   OH272361   2.736   5.303   3.024  0.1214  0.1443 -0.4668
16957TIP3    H172362   2.812   5.246   3.021 -0.5394 -0.9552  1.5903
16957TIP3    H272363   2.703   5.305   2.934 -0.0014 -3.0434 -0.5790
16958TIP3   OH272364   3.824   0.057   1.303  0.4603 -0.2502 -0.2931
16958TIP3    H172365   3.831   0.114   1.379  0.2578  0.3537 -0.7210
16958TIP3    H272366   3.854  -0.029   1.334  1.3164  0.2140  0.2056
16959TIP3   OH272367   3.962   3.692  15.442  0.1243  0.7377 -0.6774
16959TIP3    H172368   3.973   3.786  15.457  2.2598  0.5659 -0.8811
16959TIP3    H272369   4.033   3.652  15.493 -1.4970 -0.8807  0.4180
16960TIP3   OH272370   3.210   0.548   2.966 -0.1026 -0.0179  0.3653
16960TIP3    H172371   3.255   0.579   2.887  0.3835  0.6818  0.9072
16960TIP3    H272372   3.117   0.561   2.947 -0.0549 -0.8075 -0.4862
16961TIP3   OH272373   5.458   2.075   1.782  0.0781 -0.4170  0.0217
16961TIP3    H172374   5.432   2.145   1.842  2.3172  0.1297  0.4351
16961TIP3    H272375   5.500   2.010   1.838  0.1423 -0.9888 -0.6791
16962TIP3   OH272376   1.938   0.708  14.330 -0.7680 -0.2594 -0.1715
16962TIP3    H172377   1.963   0.744  14.415 -2.2269  1.2501 -0.3258
16962TIP3    H272378   1.980   0.622  14.327  2.1571  1.0220  0.6115
16963TIP3   OH272379   3.183   5.055   0.708  0.5958  0.0765  0.0016
16963TIP3    H172380   3.264   5.034   0.662  0.8069  0.0586  0.3792
16963TIP3    H272381   3.113   5.032   0.646  0.8689 -0.2256 -0.1949
16964TIP3   OH272382   1.953   4.376   5.115  0.0480  0.1610  0.1189
16964TIP3    H172383   1.899   4.455   5.114  1.5627  1.2449 -0.4852
16964TIP3    H272384   2.041   4.407   5.139  0.3067 -1.6253  1.7200
16965TIP3   OH272385   6.734   4.869   6.789 -0.0437  0.1887 -0.5774
16965TIP3    H172386   6.738   4.788   6.737  0.7801  0.4522 -0.9447
16965TIP3    H272387   6.641   4.880   6.809 -0.4158  0.1683 -2.1635
16966TIP3   OH272388   4.081   5.599  12.706  0.5258  0.2620  0.0325
16966TIP3    H172389   4.145   5.652  12.657 -0.2461  0.4293 -0.8118
16966TIP3    H272390   4.055   5.531  12.644 -1.3688  1.1863 -0.2461
16967TIP3   OH272391   6.789   0.381   5.024  0.2945 -0.2375 -0.0959
16967TIP3    H172392   6.791   0.477   5.021 -0.6841 -0.2344 -1.5575
16967TIP3    H272393   6.710   0.360   5.074  1.2464 -0.3095  1.4309
16968TIP3   OH272394   4.739   5.558   0.607 -0.5712  0.6977  0.8906
16968TIP3    H172395   4.793   5.631   0.577 -1.0583  0.4827 -0.6036
16968TIP3    H272396   4.649   5.588   0.592 -0.7684 -0.4612 -0.4496
16969TIP3   OH272397   5.001   4.980   0.288  0.5767 -0.0233  0.9653
16969TIP3    H172398   5.086   4.968   0.245  0.2051 -0.3029  0.2866
16969TIP3    H272399   4.938   4.977   0.217 -0.1557 -1.6156  1.6323
16970TIP3   OH272400   6.206   3.895   6.281  0.0496 -0.1600 -0.2288
16970TIP3    H172401   6.120   3.875   6.243 -0.2465 -1.5954  1.1115
16970TIP3    H272402   6.236   3.972   6.232 -2.4218  1.0120 -0.0627
16971TIP3   OH272403   2.878   5.897   0.147 -0.1753 -0.1277 -0.3743
16971TIP3    H172404   2.973   5.889   0.138 -0.2882 -1.6138 -0.4377
16971TIP3    H272405   2.866   5.952   0.225  0.7251  0.4819 -0.6437
16972TIP3   OH272406   2.117   1.944   4.780  0.2353 -0.3904  0.1785
16972TIP3    H172407   2.163   1.929   4.863 -1.1340  0.6978  1.1691
16972TIP3    H272408   2.067   1.863   4.765 -0.9689  0.0883  1.4120
16973TIP3   OH272409   6.073   3.108   5.100  0.4541 -0.2809 -0.5034
16973TIP3    H172410   6.094   3.025   5.144  1.8110 -0.0024 -0.5694
16973TIP3    H272411   6.087   3.175   5.167  0.4134 -0.0200 -0.7538
16974TIP3   OH272412   2.109   1.344   2.099  0.8055 -0.4124 -0.2937
16974TIP3    H172413   2.023   1.354   2.058  1.3433  0.8908 -1.1977
16974TIP3    H272414   2.154   1.279   2.044  0.4058 -1.1251  0.2032
16975TIP3   OH272415   6.811   6.684  16.715  0.1857  0.4778 -0.0577
16975TIP3    H172416   6.881   6.629  16.679 -0.7226 -0.5595 -0.3238
16975TIP3    H272417   6.821   6.768  16.671  0.1043 -0.2576 -1.5461
16976TIP3   OH272418   4.069   6.613  14.860  0.6329  0.2115  0.0430
16976TIP3    H172419   4.104   6.701  14.875  1.0883  0.3013 -1.4437
16976TIP3    H272420   3.982   6.614  14.899  0.2984  1.5914 -0.6953
16977TIP3   OH272421   1.330   1.384   2.113  0.1384 -0.1067 -0.2034
16977TIP3    H172422   1.339   1.300   2.158  1.5235 -0.7196 -1.5433
16977TIP3    H272423   1.261   1.369   2.048 -0.2133  0.0694  0.1232
16978TIP3   OH272424   3.783   2.358   0.268  0.1921 -0.3599 -0.0202
16978TIP3    H172425   3.733   2.387   0.192  0.3640  0.7808  0.2848
16978TIP3    H272426   3.874   2.361   0.240  0.1582 -1.8474 -0.3789
16979TIP3   OH272427   1.639   4.832  11.416 -0.0002 -0.0018  0.1370
16979TIP3    H172428   1.595   4.916  11.415  0.2655  0.1665  1.1782
16979TIP3    H272429   1.684   4.829  11.501 -0.8459 -1.6082  0.5895
16980TIP3   OH272430   5.598   3.852  10.604 -0.2280  0.1868  0.0186
16980TIP3    H172431   5.621   3.913  10.673 -1.3816  0.5676  0.0771
16980TIP3    H272432   5.513   3.817  10.629  0.4273 -1.5100  0.0181
16981TIP3   OH272433   5.483   3.427  13.038  0.6376 -0.3389  0.1832
16981TIP3    H172434   5.462   3.519  13.053  0.2947 -0.2190 -0.9189
16981TIP3    H272435   5.469   3.385  13.122  0.5193  0.5697  0.6284
16982TIP3   OH272436   6.818   4.089   4.749 -0.3210 -0.2948  0.1663
16982TIP3    H172437   6.903   4.113   4.785  0.0677  0.4547 -1.1925
16982TIP3    H272438   6.755   4.134   4.806  0.2541  0.5259  0.1679
16983TIP3   OH272439   5.103   6.146   2.440  0.2494 -0.5369 -0.2299
16983TIP3    H172440   5.035   6.211   2.454 -0.3307 -0.8087 -1.5708
16983TIP3    H272441   5.182   6.197   2.420 -0.0351 -0.2259 -0.5836
16984TIP3   OH272442   6.664   2.096  14.874  0.3489 -0.2273  0.4116
16984TIP3    H172443   6.741   2.115  14.927 -1.1652 -0.9994  3.0166
16984TIP3    H272444   6.607   2.172  14.886  0.4419  0.1157 -1.0996
16985TIP3   OH272445   2.220   6.357  13.209 -0.0682 -0.6686 -0.0822
16985TIP3    H172446   2.203   6.430  13.269  1.7450 -1.4122  1.4645
16985TIP3    H272447   2.215   6.395  13.122  0.8777  1.3412  0.6838
16986TIP3   OH272448   4.496   5.083   0.937  0.5250  0.0059  0.0593
16986TIP3    H172449   4.520   5.176   0.931  0.7697 -0.1105 -0.8120
16986TIP3    H272450   4.565   5.045   0.992  1.5406 -0.0228 -1.1819
16987TIP3   OH272451   3.991   2.885  14.633 -0.6808 -0.0279 -0.0681
16987TIP3    H172452   3.929   2.894  14.560 -0.4496  0.2018 -0.2404
16987TIP3    H272453   3.975   2.797  14.667 -0.6099 -0.2417 -0.5701
16988TIP3   OH272454   3.374   3.784   3.960 -0.4896  0.1439 -0.0864
16988TIP3    H172455   3.280   3.797   3.969 -0.3490  1.1311  0.0501
16988TIP3    H272456   3.411   3.814   4.043  0.0050  0.3868 -0.3878
16989TIP3   OH272457   0.853   3.923  12.635  0.4566  0.6260 -0.2504
16989TIP3    H172458   0.796   3.980  12.584 -0.3073  1.1974  1.2056
16989TIP3    H272459   0.927   3.979  12.659  1.6374 -0.0770 -2.0240
16990TIP3   OH272460   2.611   6.843  12.592  0.2016 -0.0037  0.2311
16990TIP3    H172461   2.588   6.750  12.598 -2.0768  0.5707  1.9496
16990TIP3    H272462   2.530   6.885  12.565  1.2108  1.5213 -0.5343
16991TIP3   OH272463   3.643   4.309  12.896  0.1553  0.3356  0.0040
16991TIP3    H172464   3.701   4.315  12.820  0.7582  3.3328  0.5639
16991TIP3    H272465   3.556   4.331  12.862  0.0073 -0.5023 -0.1791
16992TIP3   OH272466   5.376   2.426   2.202 -0.7441  0.5937 -0.2171
16992TIP3    H172467   5.452   2.449   2.255 -1.1497  1.9704 -0.1711
16992TIP3    H272468   5.368   2.331   2.210  0.1455  0.5930  0.8865
16993TIP3   OH272469   3.373   0.287   2.437 -0.2266 -0.0816  0.2130
16993TIP3    H172470   3.344   0.197   2.426 -1.4348  0.1745  1.0794
16993TIP3    H272471   3.468   0.284   2.426 -0.2304 -1.4867  0.4447
16994TIP3   OH272472   6.661   2.307  13.755  0.6189 -0.0132  0.2334
16994TIP3    H172473   6.722   2.347  13.693  0.4634  0.7768  0.5789
16994TIP3    H272474   6.705   2.313  13.840  0.4767 -0.3257  0.3305
16995TIP3   OH272475   1.621   4.986   0.185 -0.1669 -0.0094  0.0440
16995TIP3    H172476   1.678   5.049   0.140 -0.2091 -1.4123 -2.1552
16995TIP3    H272477   1.679   4.914   0.209 -0.7052 -0.7085 -0.7123
16996TIP3   OH272478   5.439   3.083   2.042  1.1162  0.8305  0.2756
16996TIP3    H172479   5.487   3.148   1.990  0.2506  1.7248  0.5726
16996TIP3    H272480   5.427   3.009   1.983 -1.1576  2.3939 -1.3817
16997TIP3   OH272481   5.856   1.054   3.822 -0.6958 -0.1230  0.4105
16997TIP3    H172482   5.838   0.960   3.828 -0.0513 -0.2822 -0.0819
16997TIP3    H272483   5.898   1.065   3.737 -2.4464  0.8918 -0.3785
16998TIP3   OH272484   5.555   5.895  14.953 -0.1258 -0.0362  0.2702
16998TIP3    H172485   5.507   5.962  14.905  0.7120 -0.2319 -0.8819
16998TIP3    H272486   5.555   5.819  14.895  1.9270  0.0964  0.0378
16999TIP3   OH272487   6.799   1.477   4.338 -0.1624  0.0579  0.8153
16999TIP3    H172488   6.787   1.542   4.408 -1.2977  0.6647  0.0936
16999TIP3    H272489   6.746   1.510   4.266 -0.7290 -1.6583  0.4045
17000TIP3   OH272490   5.389   6.348  16.933 -0.5071  0.3532  0.8737
17000TIP3    H172491   5.401   6.443  16.944  1.2449  0.3947 -0.8826
17000TIP3    H272492   5.446   6.309  16.999  2.0426  0.5907 -1.0476
17001TIP3   OH272493   2.105   5.161   0.156 -0.0314 -0.0926 -0.3105
17001TIP3    H172494   2.134   5.076   0.122  0.9082  0.8902 -2.0797
17001TIP3    H272495   2.186   5.206   0.181 -0.4265  0.7068 -0.4367
17002TIP3   OH272496   5.541   2.969  16.264  0.2367  0.0479  0.0568
17002TIP3    H172497   5.619   3.022  16.247 -0.0327 -0.3801 -3.0596
17002TIP3    H272498   5.569   2.907  16.331  1.6105  1.8512  1.2439
17003TIP3   OH272499   2.352   3.112   0.208 -0.2146 -0.4508 -0.3500
17003TIP3    H172500   2.363   3.024   0.172 -1.0329 -0.2305 -1.1698
17003TIP3    H272501   2.258   3.120   0.224 -0.1906  0.3957 -0.6124
17004TIP3   OH272502   6.833   0.739  14.690 -0.3238 -0.1382 -0.5467
17004TIP3    H172503   6.750   0.725  14.643  0.3150 -0.4637 -1.6166
17004TIP3    H272504   6.815   0.812  14.749 -1.2530  0.0719 -1.0691
17005TIP3   OH272505   5.463   2.141   4.696 -0.3026  0.1695 -0.5500
17005TIP3    H172506   5.400   2.077   4.664 -0.9472  0.4466  0.1413
17005TIP3    H272507   5.531   2.089   4.738 -2.6808 -0.0963  3.5129
17006TIP3   OH272508   3.574   1.443  11.412  0.1478 -0.5470 -0.5588
17006TIP3    H172509   3.648   1.493  11.377  0.7441 -3.2029 -3.6128
17006TIP3    H272510   3.612   1.360  11.440 -1.3706 -1.0865  0.0104
17007TIP3   OH272511   0.039   4.194  10.870 -0.0790  0.8016 -0.1810
17007TIP3    H172512   0.021   4.258  10.800 -0.7976  0.7250 -0.0698
17007TIP3    H272513   0.104   4.238  10.925  0.0888  1.0838 -0.5905
17008TIP3   OH272514   3.760   5.295  13.525  0.2020 -0.5284  0.7069
17008TIP3    H172515   3.814   5.306  13.603  2.3001  0.4849 -0.7901
17008TIP3    H272516   3.672   5.278  13.558  1.1984 -1.0675  3.2654
17009TIP3   OH272517   2.194   1.705   5.579  0.4402  0.3961 -0.5876
17009TIP3    H172518   2.279   1.711   5.624  0.2787 -0.8409 -0.0728
17009TIP3    H272519   2.132   1.747   5.639  0.3514 -0.5791  0.0216
17010TIP3   OH272520   3.535   4.064  14.486 -0.3799 -0.2765  0.0068
17010TIP3    H172521   3.587   4.095  14.561  0.5089  1.4866 -1.2588
17010TIP3    H272522   3.479   3.996  14.523  2.7391 -2.3032  1.5313
17011TIP3   OH272523   6.575   5.185  11.559  0.1716  0.3753 -0.3717
17011TIP3    H172524   6.517   5.109  11.554  0.3163  0.0784  1.4718
17011TIP3    H272525   6.587   5.213  11.469 -0.3987 -1.4076 -1.0407
17012TIP3   OH272526   3.363   0.186   4.194 -0.1406  0.0778  0.7575
17012TIP3    H172527   3.339   0.120   4.260 -1.1597  0.2234  0.5345
17012TIP3    H272528   3.356   0.269   4.240  2.0933  0.0224  1.3286
17013TIP3   OH272529   1.639   5.541  15.194 -0.3703  1.0772 -0.1950
17013TIP3    H172530   1.674   5.458  15.160 -0.9043  1.2460 -1.1979
17013TIP3    H272531   1.701   5.567  15.262 -0.6558 -0.5743  0.7347
17014TIP3   OH272532   6.380   0.347   6.081 -0.4683  0.4402  0.8110
17014TIP3    H172533   6.385   0.262   6.124 -0.1950 -0.4044 -0.8284
17014TIP3    H272534   6.419   0.408   6.144 -0.6699 -0.6239  2.0046
17015TIP3   OH272535   0.126   3.673   0.998 -0.0294 -0.1797 -0.5709
17015TIP3    H172536   0.097   3.618   1.071 -0.5751 -1.0194 -1.3969
17015TIP3    H272537   0.215   3.698   1.021 -0.1707 -0.4627  0.3563
17016TIP3   OH272538   1.513   2.067   0.627 -0.0909  0.0485 -0.3298
17016TIP3    H172539   1.597   2.110   0.614  0.0613  0.4520  1.6640
17016TIP3    H272540   1.533   1.991   0.682 -1.2245  1.2172  1.8303
17017TIP3   OH272541   6.647   4.513   0.770  0.4197 -0.0450  0.0606
17017TIP3    H172542   6.604   4.454   0.708 -0.6065  2.5837 -1.9047
17017TIP3    H272543   6.580   4.534   0.834  1.1029 -1.7462  1.4079
17018TIP3   OH272544   6.734   0.389   2.675 -0.1598  0.0232 -0.8235
17018TIP3    H172545   6.744   0.297   2.701 -3.0761  0.0520  0.8479
17018TIP3    H272546   6.807   0.434   2.718  0.3799 -1.2833 -0.3231
17019TIP3   OH272547   4.765   3.204   3.656  0.6222  0.5695  0.4010
17019TIP3    H172548   4.746   3.294   3.682 -0.1625  0.3640  0.5659
17019TIP3    H272549   4.789   3.211   3.563  1.1826  1.0250  0.5808
17020TIP3   OH272550   3.312   3.514   2.894 -0.2526 -0.0360  0.4358
17020TIP3    H172551   3.330   3.583   2.830  0.7900 -1.1374 -0.5014
17020TIP3    H272552   3.384   3.452   2.884  0.2118 -0.0330  3.0236
17021TIP3   OH272553   4.495   1.081   4.954 -0.1018 -0.4621 -0.4314
17021TIP3    H172554   4.431   1.123   5.012  0.4575 -1.5312  1.0054
17021TIP3    H272555   4.580   1.101   4.994  0.2590 -1.7469 -0.5386
17022TIP3   OH272556   5.444   1.302  12.489 -0.3059 -0.1224 -0.4105
17022TIP3    H172557   5.403   1.350  12.417 -0.7119  0.4399  0.1846
17022TIP3    H272558   5.517   1.357  12.516 -1.3707  0.6991  0.9365
17023TIP3   OH272559   2.248   6.340   3.345 -0.0200  0.2857 -0.0549
17023TIP3    H172560   2.239   6.387   3.428  1.9457  0.0305  0.3418
17023TIP3    H272561   2.193   6.263   3.354  1.0737 -0.3514  1.5053
17024TIP3   OH272562   2.775   4.634  12.456  0.1875 -0.2316  0.7238
17024TIP3    H172563   2.831   4.708  12.476  0.8327 -0.2428 -0.9128
17024TIP3    H272564   2.764   4.589  12.539  1.2967  0.6630  1.3777
17025TIP3   OH272565   3.143   2.328   1.401  0.8025 -0.0225 -0.1645
17025TIP3    H172566   3.186   2.403   1.441  1.0777  1.1762 -2.5405
17025TIP3    H272567   3.061   2.363   1.367  0.5965 -0.9717 -0.6628
17026TIP3   OH272568   1.900   6.447  12.877 -0.0962 -0.1510 -0.0979
17026TIP3    H172569   1.854   6.388  12.936  2.2835 -1.4595  0.6043
17026TIP3    H272570   1.978   6.398  12.849  1.0201  1.9668 -0.9873
17027TIP3   OH272571   5.567   0.391   0.630 -0.4533 -0.1587 -0.2638
17027TIP3    H172572   5.540   0.303   0.604  0.9219  0.2113 -3.4459
17027TIP3    H272573   5.487   0.443   0.626 -0.7814 -0.7148 -1.3056
17028TIP3   OH272574   6.375   0.270   5.733  0.5235 -0.4107 -0.3860
17028TIP3    H172575   6.317   0.222   5.674  0.2264  1.9186 -2.1535
17028TIP3    H272576   6.316   0.324   5.786  0.9486 -0.1059 -0.2176
17029TIP3   OH272577   3.996   1.182  14.914  0.2035  0.0500  0.7464
17029TIP3    H172578   4.042   1.106  14.948  0.2874  0.3107  1.2335
17029TIP3    H272579   4.063   1.232  14.867 -0.1461 -0.8556 -0.7516
17030TIP3   OH272580   5.906   4.459   0.237 -0.5695  0.0986 -0.2842
17030TIP3    H172581   5.854   4.426   0.164 -1.1096 -0.3504  0.2903
17030TIP3    H272582   5.901   4.390   0.303  2.4663 -0.9272 -0.9421
17031TIP3   OH272583   2.718   2.482  11.509 -0.5006  0.0198 -0.4166
17031TIP3    H172584   2.736   2.388  11.515  1.0402  0.2126 -1.5066
17031TIP3    H272585   2.804   2.522  11.497 -0.9282  1.7541  1.6555
17032TIP3   OH272586   4.276   0.731  13.869  0.1795  0.0134  0.2590
17032TIP3    H172587   4.253   0.821  13.843 -1.3243 -0.1523  0.9323
17032TIP3    H272588   4.274   0.682  13.787  2.4852  0.8223 -0.3778
17033TIP3   OH272589   4.171   2.701   5.740 -0.0854  0.2010 -0.6055
17033TIP3    H172590   4.188   2.670   5.829  2.5858  1.6237 -0.5097
17033TIP3    H272591   4.218   2.640   5.684 -0.1084  0.4374 -0.8818
17034TIP3   OH272592   4.540   4.375   6.087 -0.5008  0.0795  0.1662
17034TIP3    H172593   4.555   4.285   6.115  5.0804 -0.1335 -2.1891
17034TIP3    H272594   4.549   4.427   6.167 -0.3236 -1.2626  1.0457
17035TIP3   OH272595   4.835   1.367  16.547  1.0487  0.2497 -0.1755
17035TIP3    H172596   4.887   1.361  16.628  2.2860 -0.3114 -0.9925
17035TIP3    H272597   4.897   1.396  16.481 -0.0432  1.0641 -0.8762
17036TIP3   OH272598   2.006   3.311   0.508  0.1653  0.1951  0.8517
17036TIP3    H172599   1.928   3.263   0.482 -0.6975  1.7371  0.4462
17036TIP3    H272600   2.030   3.273   0.592 -1.3855  0.0670  1.2782
17037TIP3   OH272601   5.078   3.508   0.533 -0.3048 -0.0831 -0.1369
17037TIP3    H172602   5.127   3.524   0.453  0.3170  2.3599  0.6554
17037TIP3    H272603   5.145   3.482   0.597 -0.8043 -2.1105 -0.3777
17038TIP3   OH272604   0.272   1.949  12.378  0.2747 -0.0017  0.1885
17038TIP3    H172605   0.342   1.897  12.417 -0.0318 -0.3818  0.2394
17038TIP3    H272606   0.310   2.037  12.368  0.4769  0.0044  0.9839
17039TIP3   OH272607   4.289   2.731  13.965 -0.3799 -0.0539  0.4610
17039TIP3    H172608   4.280   2.664  13.898  0.1933 -0.2990  0.6231
17039TIP3    H272609   4.322   2.684  14.042  0.5333  0.4933  0.4175
17040TIP3   OH272610   2.917   2.614  14.467  0.3788  0.6166  0.6707
17040TIP3    H172611   2.933   2.660  14.549 -1.3314  0.6460  1.0306
17040TIP3    H272612   2.877   2.531  14.493  0.5056  0.3027 -0.0961
17041TIP3   OH272613   5.079   6.503   5.894  0.0954  0.1678 -0.0444
17041TIP3    H172614   5.059   6.445   5.968  1.1796 -1.3995 -0.9352
17041TIP3    H272615   5.032   6.583   5.914 -0.7448 -0.6969  1.6794
17042TIP3   OH272616   4.999   5.010   1.075 -0.1398 -0.0712  0.2409
17042TIP3    H172617   4.948   5.089   1.090  1.1261  0.9214 -0.5496
17042TIP3    H272618   5.019   5.011   0.982  0.5895 -0.8971  0.3706
17043TIP3   OH272619   2.982   0.995  10.777  0.1938 -0.2592 -0.2122
17043TIP3    H172620   3.004   1.008  10.685  1.5683  2.0328  0.3769
17043TIP3    H272621   2.935   1.074  10.802  0.6092 -0.4504  1.2809
17044TIP3   OH272622   6.747   4.484  11.680 -0.1290  0.6136 -0.0786
17044TIP3    H172623   6.784   4.545  11.744  1.3198 -0.7681  0.4634
17044TIP3    H272624   6.681   4.435  11.730  0.6686 -0.1376  0.2743
17045TIP3   OH272625   1.102   2.473  14.664 -0.1471 -0.2081 -0.4813
17045TIP3    H172626   1.079   2.466  14.571 -0.0144 -3.0921 -0.3693
17045TIP3    H272627   1.025   2.442  14.710  0.1438  0.2704  0.3373
17046TIP3   OH272628   0.613   3.749   4.116  0.6620 -0.0860 -0.4220
17046TIP3    H172629   0.600   3.805   4.193  1.0920 -1.0260  0.3545
17046TIP3    H272630   0.567   3.668   4.137 -1.1415  0.4275 -2.1097
17047TIP3   OH272631   6.173   4.076  13.071 -0.1308  0.1938  0.1397
17047TIP3    H172632   6.214   3.992  13.051  0.7118  0.1583  1.8501
17047TIP3    H272633   6.087   4.052  13.108  0.2433  0.0516  0.9363
17048TIP3   OH272634   4.626   0.683  11.334 -0.8293  0.2046 -0.1280
17048TIP3    H172635   4.676   0.725  11.264  1.3457 -1.2409  0.4527
17048TIP3    H272636   4.593   0.602  11.296  1.0353 -0.9833  0.6503
17049TIP3   OH272637   1.148   6.371   2.788 -0.4550  0.4103  0.2594
17049TIP3    H172638   1.171   6.331   2.872 -0.7089  0.3563  0.3026
17049TIP3    H272639   1.121   6.460   2.810  2.4125  1.4919 -0.0527
17050TIP3   OH272640   3.900   2.536  12.829  0.1532  0.1117  0.4769
17050TIP3    H172641   3.839   2.610  12.837  0.4113  0.4422 -0.4794
17050TIP3    H272642   3.979   2.573  12.791  0.3114 -0.6420  0.0360
17051TIP3   OH272643   3.990   1.361   2.605  0.0113 -0.5039  0.2169
17051TIP3    H172644   3.917   1.310   2.640  0.5351 -0.7491  0.9895
17051TIP3    H272645   3.964   1.384   2.516 -1.5236  0.4332  0.8768
17052TIP3   OH272646   6.702   5.614  13.020  0.4219  0.4626  0.0568
17052TIP3    H172647   6.772   5.607  13.085  0.7140  0.7408 -0.2219
17052TIP3    H272648   6.740   5.668  12.950 -0.9108  2.8996  1.0714
17053TIP3   OH272649   4.698   0.935  12.333  0.5647 -0.0680 -0.3604
17053TIP3    H172650   4.643   0.861  12.360  0.0153  0.1120 -0.9499
17053TIP3    H272651   4.691   0.998  12.405  0.2296 -0.1784 -0.2917
17054TIP3   OH272652   0.308   3.192   4.016  0.3745  0.6997 -0.5680
17054TIP3    H172653   0.243   3.262   4.008  0.4767  0.6601 -2.2028
17054TIP3    H272654   0.257   3.111   4.013  0.3814  0.6836 -0.2785
17055TIP3   OH272655   4.063   5.936  14.058  0.5005  0.3517 -0.3051
17055TIP3    H172656   4.080   5.937  14.153  0.6518 -0.5632 -0.3132
17055TIP3    H272657   4.021   6.020  14.040  0.6248  0.6036  0.5494
17056TIP3   OH272658   2.127   3.989  13.392  0.1559  0.0998  0.1406
17056TIP3    H172659   2.170   3.909  13.362  1.6485  0.9774 -0.1711
17056TIP3    H272660   2.178   4.016  13.469 -1.0028  0.1688  0.8987
17057TIP3   OH272661   1.563   6.562   5.316 -0.2656  0.1168 -0.5362
17057TIP3    H172662   1.585   6.631   5.379  1.7681 -1.4425  0.5804
17057TIP3    H272663   1.496   6.510   5.360 -1.1962  0.8502 -1.0414
17058TIP3   OH272664   1.349   2.431   2.096  0.0223 -0.0480 -0.3317
17058TIP3    H172665   1.392   2.452   2.178  1.1471  0.5051 -1.0409
17058TIP3    H272666   1.338   2.516   2.052  0.8870 -0.4842 -1.4360
17059TIP3   OH272667   4.715   0.330   5.627 -0.3564  0.5707 -0.2947
17059TIP3    H172668   4.772   0.300   5.556  1.8247 -0.4319  1.7309
17059TIP3    H272669   4.643   0.267   5.628 -0.1438  0.2906 -1.2732
17060TIP3   OH272670   3.603   0.454   3.405  0.2002 -0.1320 -0.3776
17060TIP3    H172671   3.562   0.371   3.430 -1.5512  1.1366  1.2738
17060TIP3    H272672   3.531   0.507   3.372  0.5994  1.8225  1.6319
17061TIP3   OH272673   5.719   1.884   3.554  0.4010 -0.2016 -0.5083
17061TIP3    H172674   5.690   1.911   3.641  3.9802  0.6361  0.6098
17061TIP3    H272675   5.743   1.792   3.565 -0.2143 -0.4237 -0.9667
17062TIP3   OH272676   6.424   4.093  11.271  0.8553 -0.1393 -0.1449
17062TIP3    H172677   6.459   4.155  11.334  1.6923  0.4001 -1.1061
17062TIP3    H272678   6.384   4.148  11.203  0.5693 -0.6784 -0.4183
17063TIP3   OH272679   6.680   4.299  11.210 -0.0744 -0.0444  0.2481
17063TIP3    H172680   6.662   4.362  11.141 -2.6753 -0.0213  0.8291
17063TIP3    H272681   6.700   4.353  11.287 -0.1163  0.0033  0.2255
17064TIP3   OH272682   3.248   3.888   3.389 -0.0735 -0.1946 -0.8786
17064TIP3    H172683   3.202   3.875   3.306  0.3330  0.1897 -1.1644
17064TIP3    H272684   3.288   3.803   3.408  0.9596  0.0886 -1.7589
17065TIP3   OH272685   6.786   4.823  12.816 -0.3909 -0.2403 -0.0088
17065TIP3    H172686   6.776   4.918  12.814  0.6628 -0.1120 -0.0627
17065TIP3    H272687   6.806   4.799  12.725 -0.0457 -0.4231  0.1097
17066TIP3   OH272688   2.345   1.570  16.275  0.1377  0.1394  0.2692
17066TIP3    H172689   2.302   1.655  16.277 -2.3058 -0.9931  3.0089
17066TIP3    H272690   2.302   1.524  16.202  0.8250  0.8682 -0.6288
17067TIP3   OH272691   1.827   5.410  17.135 -0.1011 -0.1315 -0.1078
17067TIP3    H172692   1.745   5.418  17.086  0.2149 -1.8936 -0.9923
17067TIP3    H272693   1.842   5.498  17.170 -0.8644  0.9828 -2.3534
17068TIP3   OH272694   6.247   5.453  14.725 -0.0847  0.1561  0.2534
17068TIP3    H172695   6.187   5.481  14.656  1.0567  2.3759  0.0888
17068TIP3    H272696   6.321   5.414  14.678  0.3443  0.9711  0.2364
17069TIP3   OH272697   0.771   1.078  13.859  0.4666  0.4816  0.1686
17069TIP3    H172698   0.707   1.007  13.865 -0.3164  0.6793 -3.5172
17069TIP3    H272699   0.845   1.041  13.811  0.8812  1.6246 -0.1148
17070TIP3   OH272700   4.465   2.702  13.088 -0.1940 -0.2444  0.4982
17070TIP3    H172701   4.503   2.643  13.153 -0.5477  0.4547  1.3660
17070TIP3    H272702   4.527   2.774  13.080  0.5200 -0.9808 -0.9923
17071TIP3   OH272703   2.150   0.923  13.802  0.0240 -0.1584  0.2378
17071TIP3    H172704   2.084   0.941  13.869 -1.6164  1.0836 -1.5801
17071TIP3    H272705   2.129   0.835  13.770  0.7978 -0.7449  1.2961
17072TIP3   OH272706   4.370   3.103   3.090  0.2110 -0.1106 -0.5650
17072TIP3    H172707   4.441   3.068   3.144  0.1983 -0.5330 -0.8141
17072TIP3    H272708   4.408   3.109   3.003  0.6550  1.8343 -0.2737
17073TIP3   OH272709   3.450   0.559  15.222  0.2025 -0.0620  0.3234
17073TIP3    H172710   3.453   0.463  15.223 -3.3273 -0.3201 -1.3144
17073TIP3    H272711   3.529   0.585  15.174  0.2829 -2.2664 -0.8737
17074TIP3   OH272712   3.028   6.685  15.257 -0.7965 -0.4851  0.1686
17074TIP3    H172713   3.096   6.752  15.260 -0.9347 -0.2995 -0.4982
17074TIP3    H272714   2.953   6.724  15.302 -1.0508  0.0332 -0.6646
17075TIP3   OH272715   6.340   0.015   1.272  0.4501  0.0828  0.2203
17075TIP3    H172716   6.318   0.080   1.338  0.9630  0.8346 -0.3399
17075TIP3    H272717   6.296   0.044   1.193  2.0799  0.7337 -0.4909
17076TIP3   OH272718   1.246   4.990  16.475  0.0766  0.6041  0.3439
17076TIP3    H172719   1.173   5.051  16.488 -2.1482 -1.6181 -0.7155
17076TIP3    H272720   1.315   5.043  16.435 -0.4509  3.0527  2.4045
17077TIP3   OH272721   5.506   4.172  14.301  0.0020  0.3459 -0.2245
17077TIP3    H172722   5.469   4.251  14.340 -0.9696 -0.2338  0.0618
17077TIP3    H272723   5.498   4.105  14.369  1.5359  0.1710 -0.1728
17078TIP3   OH272724   3.020   3.634   0.212  0.2008 -0.2874 -0.0016
17078TIP3    H172725   2.932   3.620   0.247  0.1475  0.7405  0.3214
17078TIP3    H272726   3.078   3.592   0.275 -0.0485 -0.9982 -0.2325
17079TIP3   OH272727   1.584   6.287   5.444  0.0069  0.6819  0.0094
17079TIP3    H172728   1.494   6.306   5.417 -0.4062  0.8921  1.4313
17079TIP3    H272729   1.576   6.212   5.503  0.9233 -0.0658 -0.7919
17080TIP3   OH272730   3.716   5.152  16.870  0.7195 -0.0499 -0.3526
17080TIP3    H172731   3.800   5.170  16.913  0.8069  1.0553 -0.9444
17080TIP3    H272732   3.740   5.115  16.785  0.6283  0.4453 -0.6004
17081TIP3   OH272733   5.518   3.286  11.605 -0.5884  0.3867  0.2323
17081TIP3    H172734   5.489   3.318  11.690  0.7557  1.6089  0.2657
17081TIP3    H272735   5.537   3.193  11.619 -1.5462  0.2916  0.9452
17082TIP3   OH272736   4.156   1.296  14.036  0.5943 -0.0253  0.2927
17082TIP3    H172737   4.246   1.316  14.014  0.3658  1.1419  0.3734
17082TIP3    H272738   4.155   1.201  14.050  1.7379 -0.0841  0.0230
17083TIP3   OH272739   4.689   3.921  12.273 -0.0626  0.9744 -0.0036
17083TIP3    H172740   4.692   4.009  12.313  0.3753  1.0652 -0.2297
17083TIP3    H272741   4.709   3.862  12.346 -2.7911  0.8564  0.7296
17084TIP3   OH272742   6.701   3.963  11.906 -0.2526  0.3579  0.3381
17084TIP3    H172743   6.662   3.975  11.993 -0.7734  0.8428  0.0408
17084TIP3    H272744   6.626   3.952  11.848  0.1163 -1.1034  0.1032
17085TIP3   OH272745   6.607   4.546  13.753 -0.4440 -0.3471  0.4685
17085TIP3    H172746   6.602   4.561  13.659 -0.2924 -1.2712  0.2949
17085TIP3    H272747   6.537   4.599  13.790 -2.1297 -1.8337 -0.4190
17086TIP3   OH272748   0.112   6.439   2.540  0.2264  0.7824  0.4771
17086TIP3    H172749   0.196   6.484   2.554 -1.0963  3.0742  1.6907
17086TIP3    H272750   0.082   6.417   2.629  0.0585 -1.1249 -0.0122
17087TIP3   OH272751   6.328   0.338  11.769  0.0111  0.0912 -0.3205
17087TIP3    H172752   6.332   0.276  11.842  1.3155  0.0201 -0.4302
17087TIP3    H272753   6.271   0.296  11.704 -0.0263 -0.4752  0.0765
17088TIP3   OH272754   1.927   6.435   0.474  0.2353  0.2518 -0.0501
17088TIP3    H172755   1.834   6.432   0.453  0.0041 -1.4280  1.0302
17088TIP3    H272756   1.942   6.358   0.529  2.4936 -0.1965 -1.1552
17089TIP3   OH272757   2.488   1.283   0.468  0.2254 -0.3351 -0.2502
17089TIP3    H172758   2.482   1.306   0.375 -0.1465  0.3568 -0.0612
17089TIP3    H272759   2.401   1.249   0.490  0.0021  0.4334  0.0822
17090TIP3   OH272760   5.320   6.407  15.468 -0.2269  0.3460  0.6862
17090TIP3    H172761   5.403   6.359  15.463 -0.4316  0.0513 -0.1165
17090TIP3    H272762   5.287   6.390  15.555 -0.8813 -1.9868  0.0381
17091TIP3   OH272763   6.553   1.497   4.568 -0.0844 -0.3756 -0.2965
17091TIP3    H172764   6.607   1.572   4.543 -0.5322  0.3990  0.9575
17091TIP3    H272765   6.474   1.505   4.514  0.6748 -1.0696 -1.5639
17092TIP3   OH272766   1.602   1.751   5.444  0.0419  0.6559  0.1847
17092TIP3    H172767   1.609   1.741   5.349  0.7110 -1.2951  0.3869
17092TIP3    H272768   1.591   1.845   5.458 -1.2431  0.8732 -1.8726
17093TIP3   OH272769   3.457   3.626  15.321  0.2177 -0.0700  0.4768
17093TIP3    H172770   3.378   3.657  15.277  1.5398 -1.0667 -2.9561
17093TIP3    H272771   3.529   3.668  15.274  1.7981 -1.0079  1.9267
17094TIP3   OH272772   2.139   1.341   4.912  0.0296 -0.4265 -0.3372
17094TIP3    H172773   2.078   1.407   4.947  0.3115  0.0134 -0.6699
17094TIP3    H272774   2.086   1.261   4.906 -0.5653 -0.0180 -0.7524
17095TIP3   OH272775   2.633   5.766  14.586  0.3834  0.0094  0.6085
17095TIP3    H172776   2.671   5.820  14.517 -1.1050  0.7407  0.3089
17095TIP3    H272777   2.566   5.714  14.541  1.0738 -1.3207  1.0883
17096TIP3   OH272778   0.427   0.256   1.483  0.2890 -0.2745 -0.5653
17096TIP3    H172779   0.410   0.344   1.449  0.5747 -0.3469 -0.9079
17096TIP3    H272780   0.429   0.266   1.578 -2.1245 -0.3387 -0.4451
17097TIP3   OH272781   5.580   1.234   3.058  0.2277  0.6212  0.2964
17097TIP3    H172782   5.663   1.281   3.055 -0.5637  2.0749 -0.0729
17097TIP3    H272783   5.519   1.296   3.098 -0.4492 -0.8248  1.6475
17098TIP3   OH272784   1.886   2.996   4.693  0.0412  0.0071 -0.4270
17098TIP3    H172785   1.930   2.931   4.638  1.5249 -1.3285  2.1228
17098TIP3    H272786   1.945   3.071   4.694 -0.3536  0.3393 -1.2022
17099TIP3   OH272787   1.265   1.669  16.808  0.3925 -0.1182 -0.3140
17099TIP3    H172788   1.344   1.711  16.775  0.1351  0.9518  0.3995
17099TIP3    H272789   1.237   1.723  16.883 -0.3512 -1.1424  0.1811
17100TIP3   OH272790   6.240   1.293   4.528 -0.5451  0.2841  0.1730
17100TIP3    H172791   6.307   1.345   4.485  1.2719 -0.9874  1.3134
17100TIP3    H272792   6.270   1.285   4.619 -1.3141 -1.7559  0.3103
17101TIP3   OH272793   1.143   6.719   2.225  0.6157 -0.5460  0.4228
17101TIP3    H172794   1.137   6.797   2.170 -0.2815 -1.1322 -0.3421
17101TIP3    H272795   1.107   6.746   2.309 -0.3471 -0.3237 -0.0528
17102TIP3   OH272796   4.019   4.528   3.325 -0.2231 -0.3633  0.1946
17102TIP3    H172797   4.064   4.502   3.404  1.1758 -1.1313 -0.8153
17102TIP3    H272798   3.972   4.608   3.349  0.7800 -0.1623  1.5810
17103TIP3   OH272799   5.635   5.170   2.298 -0.2201  0.0284 -0.0279
17103TIP3    H172800   5.698   5.242   2.289 -0.8655  0.7101  0.7708
17103TIP3    H272801   5.652   5.134   2.385  0.5584 -1.2540 -0.6798
17104TIP3   OH272802   5.884   4.032   2.405 -0.0151  0.5668  0.3904
17104TIP3    H172803   5.969   4.022   2.360  0.2010  0.1741  0.8778
17104TIP3    H272804   5.839   3.949   2.389  0.4523  0.0456  1.6958
17105TIP3   OH272805   0.197   6.520   4.999  0.5359  0.3786  0.0535
17105TIP3    H172806   0.162   6.431   4.995  1.8656 -0.1818  0.4436
17105TIP3    H272807   0.131   6.573   4.953  0.5364 -1.0615 -1.7515
17106TIP3   OH272808   6.102   5.124   3.407  0.0513  0.2923 -0.0030
17106TIP3    H172809   6.100   5.152   3.316 -0.2466 -1.6960 -0.6606
17106TIP3    H272810   6.173   5.060   3.411 -0.3572 -0.1272  1.0078
17107TIP3   OH272811   0.026   2.029  12.662  0.4983  0.3543  0.1616
17107TIP3    H172812  -0.043   2.061  12.603  0.7297  0.1815 -0.2071
17107TIP3    H272813   0.002   1.938  12.679  0.5679  0.3311  0.1336
17108TIP3   OH272814   2.271   3.162   5.854  0.3948  0.2190 -0.1215
17108TIP3    H172815   2.217   3.085   5.871 -0.0243  0.2597 -1.1745
17108TIP3    H272816   2.349   3.150   5.908 -0.0552 -0.5162  0.3720
17109TIP3   OH272817   6.794   2.184   2.409  0.2738 -0.4245 -0.1568
17109TIP3    H172818   6.880   2.152   2.438  0.0784 -2.1827 -1.3080
17109TIP3    H272819   6.812   2.229   2.327  0.2847  0.7303  0.4606
17110TIP3   OH272820   1.400   3.035  16.786 -0.1228 -0.2850 -0.2818
17110TIP3    H172821   1.447   3.107  16.828 -3.6202  1.8265  0.4235
17110TIP3    H272822   1.373   2.978  16.857 -0.4294 -0.3397 -0.4411
17111TIP3   OH272823   3.995   3.392   0.368 -0.0448 -0.1416  0.0582
17111TIP3    H172824   3.909   3.363   0.338  0.7315 -0.8020 -1.6696
17111TIP3    H272825   4.054   3.370   0.296  1.1120  3.0150 -0.1293
17112TIP3   OH272826   1.438   2.766  11.765  0.1573 -0.0540  0.3498
17112TIP3    H172827   1.416   2.738  11.854  0.7991 -1.7341  0.0141
17112TIP3    H272828   1.354   2.789  11.726 -0.0408  1.8521  1.7034
17113TIP3   OH272829   3.206   2.780   2.498  0.3816  0.5814  0.1808
17113TIP3    H172830   3.152   2.807   2.424 -0.2403 -2.2390 -0.5372
17113TIP3    H272831   3.146   2.779   2.572 -0.2156 -0.8563 -0.2653
17114TIP3   OH272832   0.201   5.822  16.499 -0.1751  0.1771  0.5110
17114TIP3    H172833   0.207   5.728  16.513  0.5581  0.3140  1.1655
17114TIP3    H272834   0.234   5.861  16.580 -1.8913  0.9989  0.8660
17115TIP3   OH272835   3.276   1.024  10.737 -0.7799  0.4491 -0.1395
17115TIP3    H172836   3.316   1.109  10.753 -0.6975  0.7583 -1.8017
17115TIP3    H272837   3.201   1.021  10.798  0.1147  1.0195  1.0298
17116TIP3   OH272838   2.966   4.871   5.370  0.0447  0.1165 -0.0337
17116TIP3    H172839   2.885   4.864   5.422  1.0503 -1.2751  1.4507
17116TIP3    H272840   2.940   4.843   5.282 -0.8529 -1.6694  0.7443
17117TIP3   OH272841   2.855   5.990  10.366  0.0440  0.3845 -0.2071
17117TIP3    H172842   2.886   5.924  10.303  3.3738  0.1959  1.3940
17117TIP3    H272843   2.866   5.948  10.451 -1.1340  1.8078  0.6788
17118TIP3   OH272844   3.663   4.001   0.111  0.0904 -0.0973 -0.0651
17118TIP3    H172845   3.653   3.913   0.147 -1.5220 -1.1317 -2.7069
17118TIP3    H272846   3.615   4.058   0.171 -0.6377 -1.3627  0.5901
17119TIP3   OH272847   3.850   1.353   6.603  0.3262 -0.4465  0.4647
17119TIP3    H172848   3.796   1.302   6.662 -2.1778 -1.6311 -2.6026
17119TIP3    H272849   3.867   1.295   6.529  0.2863  2.0439 -1.6276
17120TIP3   OH272850   5.918   6.495   1.912 -0.1305  0.1551  0.4392
17120TIP3    H172851   5.927   6.440   1.989  0.2174 -1.3217 -0.6049
17120TIP3    H272852   6.002   6.540   1.905  0.6571 -1.3250 -0.2185
17121TIP3   OH272853   3.443   0.181   6.021  0.1787 -0.6605 -0.0683
17121TIP3    H172854   3.485   0.217   6.099 -0.8377 -2.0817  1.1875
17121TIP3    H272855   3.349   0.180   6.042 -0.3417  0.5274 -2.0040
17122TIP3   OH272856   6.015   6.420  13.936 -0.4068 -0.7948  0.2597
17122TIP3    H172857   6.068   6.446  13.862  0.1426  0.8315  1.1756
17122TIP3    H272858   5.925   6.438  13.910 -0.1435  0.6697  0.3140
17123TIP3   OH272859   0.799   4.648  11.925  0.1088  0.3637  0.6218
17123TIP3    H172860   0.891   4.633  11.904 -0.1439 -0.4577  0.0438
17123TIP3    H272861   0.799   4.727  11.979  1.1112  0.5971  0.3029
17124TIP3   OH272862   4.062   3.072   0.786  0.5138  0.3873  0.1206
17124TIP3    H172863   4.062   3.061   0.691  3.8372  0.6141 -0.0137
17124TIP3    H272864   4.016   2.994   0.818  0.9487 -0.6529 -1.6309
17125TIP3   OH272865   3.018   3.876  16.468  0.2819  0.3003 -0.5447
17125TIP3    H172866   3.080   3.808  16.441  0.7418  0.9598 -1.2042
17125TIP3    H272867   2.995   3.853  16.558 -0.1366 -1.1190 -0.9954
17126TIP3   OH272868   3.262   4.701   0.033  0.0607  0.2662  0.0951
17126TIP3    H172869   3.180   4.725   0.077  0.5266  0.4681  0.8853
17126TIP3    H272870   3.327   4.760   0.072  0.4732  0.5208 -0.9643
17127TIP3   OH272871   0.708   1.408   1.329  0.7237  0.2152 -0.4214
17127TIP3    H172872   0.803   1.404   1.322  0.8913  1.1846  0.8448
17127TIP3    H272873   0.690   1.492   1.371 -0.6957  0.0252 -0.5741
17128TIP3   OH272874   6.402   1.460  14.303 -0.6257  0.4389 -0.4603
17128TIP3    H172875   6.338   1.390  14.287 -0.5361  0.2216  0.1369
17128TIP3    H272876   6.349   1.539  14.313 -0.7861  0.2945 -0.1752
17129TIP3   OH272877   4.834   0.145  15.079  0.1721  0.6185 -0.9387
17129TIP3    H172878   4.765   0.079  15.090  0.5694  0.4041  0.6237
17129TIP3    H272879   4.865   0.133  14.990  0.3536 -1.4679 -0.6527
17130TIP3   OH272880   3.330   3.689  13.922 -0.4620  0.6079 -0.5624
17130TIP3    H172881   3.237   3.711  13.930 -1.2161 -1.5068 -2.3363
17130TIP3    H272882   3.331   3.610  13.868  2.3479  0.0538  0.1495
17131TIP3   OH272883   2.707   3.310   1.285 -0.4472 -0.1327  0.3701
17131TIP3    H172884   2.792   3.347   1.263 -1.3208  2.1866  0.6112
17131TIP3    H272885   2.697   3.328   1.379 -0.8089 -1.2514  0.5557
17132TIP3   OH272886   6.079   0.202   1.199  0.0490  0.2012  0.5158
17132TIP3    H172887   6.159   0.251   1.180 -0.2147  0.8600  1.0902
17132TIP3    H272888   6.011   0.247   1.148 -0.1864  0.4119  1.0159
17133TIP3   OH272889   1.736   0.966  11.618  0.7051  0.0630  0.4819
17133TIP3    H172890   1.677   0.979  11.543  1.0748 -1.3833 -0.1009
17133TIP3    H272891   1.702   0.888  11.662  0.8727  0.5285  1.4602
17134TIP3   OH272892   5.634   1.195   2.429 -0.3325  0.1101 -0.0556
17134TIP3    H172893   5.711   1.238   2.391  1.1305 -1.8012  0.5842
17134TIP3    H272894   5.649   1.101   2.414 -2.3619 -0.3510  0.4553
17135TIP3   OH272895   5.947   0.727   0.876  0.4367 -0.3850 -0.2686
17135TIP3    H172896   5.972   0.635   0.889  2.0624  0.0535 -0.1505
17135TIP3    H272897   5.941   0.736   0.780 -0.0899 -0.6943 -0.2693
17136TIP3   OH272898   4.042   2.603   1.064  0.3961  0.7058 -0.2701
17136TIP3    H172899   3.985   2.532   1.032  0.3875  0.7053 -0.2544
17136TIP3    H272900   4.109   2.558   1.115  0.1881  0.7367  0.0364
17137TIP3   OH272901   3.595   4.019   5.264  0.2954 -0.1879 -0.1398
17137TIP3    H172902   3.587   3.998   5.171 -0.7185 -1.0333  0.1225
17137TIP3    H272903   3.536   4.093   5.277  0.9148  0.3414 -0.2821
17138TIP3   OH272904   4.768   5.853   2.463 -0.1194  0.0929  0.2756
17138TIP3    H172905   4.822   5.897   2.529  0.6290 -0.1322 -0.1820
17138TIP3    H272906   4.783   5.902   2.382 -0.5349 -0.0259  0.1213
17139TIP3   OH272907   1.810   4.189   0.095 -0.3817 -0.2034 -1.0473
17139TIP3    H172908   1.834   4.160   0.183  0.8410  1.1411 -0.8967
17139TIP3    H272909   1.730   4.140   0.075 -0.4148 -0.9093  0.6046
17140TIP3   OH272910   1.979   2.646  16.364 -0.0473  0.3579 -0.1154
17140TIP3    H172911   1.906   2.704  16.342 -0.0699  1.3983  2.4237
17140TIP3    H272912   2.004   2.607  16.280 -4.2442 -1.0141 -1.0120
17141TIP3   OH272913   4.061   3.490  10.831 -0.2730 -0.6619 -0.3705
17141TIP3    H172914   4.154   3.497  10.809 -0.2497  0.1927 -0.0584
17141TIP3    H272915   4.045   3.396  10.841  1.0693 -0.7245  1.6983
17142TIP3   OH272916   4.912   4.077  12.725  0.1895  0.1934  0.0286
17142TIP3    H172917   4.908   4.007  12.790  0.2667 -0.0415 -0.2180
17142TIP3    H272918   4.862   4.149  12.765  0.4049  0.1233  0.4317
17143TIP3   OH272919   2.485   6.074   5.939 -0.0663  0.0188 -0.4963
17143TIP3    H172920   2.475   6.154   5.990  0.8885 -0.3051  0.2386
17143TIP3    H272921   2.535   6.100   5.861 -0.0625  0.2062 -0.4316
17144TIP3   OH272922   3.559   3.010   1.672  0.6372  0.5246  0.9126
17144TIP3    H172923   3.585   3.102   1.666 -0.4083  0.7562 -2.2904
17144TIP3    H272924   3.546   2.983   1.581 -0.3687 -2.4352  1.8076
17145TIP3   OH272925   3.788   3.786  15.958  0.7486  0.1036  0.1088
17145TIP3    H172926   3.734   3.716  15.995 -0.5484  0.7175 -0.5278
17145TIP3    H272927   3.832   3.746  15.883 -0.5231  0.1143 -0.6735
17146TIP3   OH272928   4.653   0.463  14.265 -0.4996 -0.6069  0.1441
17146TIP3    H172929   4.622   0.529  14.327 -1.5929 -2.1576  1.2866
17146TIP3    H272930   4.627   0.379  14.302 -0.4954 -1.6442 -2.0220
17147TIP3   OH272931   0.695   2.809  16.114 -0.5722 -0.6675  0.1917
17147TIP3    H172932   0.626   2.808  16.048  2.7587 -0.7860 -3.6406
17147TIP3    H272933   0.691   2.722  16.155 -3.3560 -0.2280  1.0893
17148TIP3   OH272934   3.584   2.627  13.824 -0.0369  0.0877 -0.1993
17148TIP3    H172935   3.502   2.591  13.791  0.0877 -0.3812 -0.0131
17148TIP3    H272936   3.561   2.667  13.908 -0.1311  0.2360 -0.2947
17149TIP3   OH272937   3.060   4.132   4.917 -0.2102 -0.6064  0.3821
17149TIP3    H172938   3.098   4.219   4.904  2.4338 -1.4785  1.4637
17149TIP3    H272939   3.053   4.095   4.830 -0.7071  0.4268 -0.0291
17150TIP3   OH272940   6.381   6.693  13.080 -0.5326 -0.5782  0.0113
17150TIP3    H172941   6.299   6.701  13.032 -0.6873  1.2233  0.5006
17150TIP3    H272942   6.438   6.759  13.041 -0.3189  0.1993  1.5713
17151TIP3   OH272943   0.541   0.683  12.219  0.0400 -0.0437  0.3083
17151TIP3    H172944   0.522   0.599  12.176  1.5088 -0.1058 -0.2829
17151TIP3    H272945   0.510   0.671  12.309 -0.9501 -0.7529 -0.1083
17152TIP3   OH272946   4.212   4.629  16.272 -0.0042 -0.1217 -0.0090
17152TIP3    H172947   4.125   4.643  16.310  0.4180  0.3100  0.8347
17152TIP3    H272948   4.205   4.544  16.229  0.0151 -1.6653  2.7544
17153TIP3   OH272949   2.690   0.456  11.593 -0.2752 -0.1670 -0.5605
17153TIP3    H172950   2.596   0.437  11.594 -0.4699  0.6951  0.7846
17153TIP3    H272951   2.696   0.552  11.593  0.4540 -0.0140  3.3232
17154TIP3   OH272952   5.014   2.900   0.197  0.4685  0.3176 -0.1465
17154TIP3    H172953   4.960   2.944   0.131  1.0989 -0.1572 -0.9971
17154TIP3    H272954   5.001   2.807   0.181 -1.7134  0.0808  2.3422
17155TIP3   OH272955   5.301   3.078   5.785  0.7353 -0.2468  0.1001
17155TIP3    H172956   5.263   3.129   5.857  0.9201  0.0817 -0.0336
17155TIP3    H272957   5.367   3.135   5.747  0.1155 -0.1243 -0.8157
17156TIP3   OH272958   0.990   4.220  11.180  0.3482  0.5162 -0.1630
17156TIP3    H172959   0.988   4.125  11.167 -0.7405  0.6742 -1.4048
17156TIP3    H272960   0.925   4.237  11.248 -2.2733  0.6397 -2.5082
17157TIP3   OH272961   5.605   1.016  14.244 -0.1661 -0.1540  0.1112
17157TIP3    H172962   5.595   0.930  14.285  0.4573 -1.2023 -1.8493
17157TIP3    H272963   5.691   1.014  14.203 -0.6677  0.9086 -1.0623
17158TIP3   OH272964   1.606   2.169  15.721  0.0811  0.0518 -0.1533
17158TIP3    H172965   1.555   2.116  15.782 -1.4276  0.4760 -0.9979
17158TIP3    H272966   1.596   2.125  15.637  1.1320  0.1508 -0.3465
17159TIP3   OH272967   1.402   3.215   5.352  0.4807  0.5858 -0.7860
17159TIP3    H172968   1.404   3.237   5.445 -0.6046  1.3741 -0.9332
17159TIP3    H272969   1.314   3.180   5.337  0.6727  0.3908 -1.4929
17160TIP3   OH272970   3.854   1.997  14.905 -0.1820  0.0322 -0.0003
17160TIP3    H172971   3.778   1.951  14.870 -1.6935  0.5990  2.3145
17160TIP3    H272972   3.925   1.933  14.903 -1.3822 -1.3380  0.1204
17161TIP3   OH272973   0.718   1.921   5.323  0.9220  0.2937  0.4194
17161TIP3    H172974   0.813   1.926   5.335  1.0750  1.6138 -1.0265
17161TIP3    H272975   0.690   2.013   5.315 -0.6282 -0.0187  1.7914
17162TIP3   OH272976   2.900   5.834   5.387  0.7004  0.5572  0.0870
17162TIP3    H172977   2.820   5.830   5.335 -0.6507  1.3811  1.9995
17162TIP3    H272978   2.952   5.904   5.347  0.3514  0.2194 -0.9807
17163TIP3   OH272979   0.133   5.735   2.327 -0.4673  0.7846 -0.1816
17163TIP3    H172980   0.044   5.736   2.360 -0.2634 -0.1778  0.4366
17163TIP3    H272981   0.156   5.642   2.322  0.8935  1.0415  0.7677
17164TIP3   OH272982   2.346   1.785  11.930  0.0222 -0.4983  0.3192
17164TIP3    H172983   2.334   1.820  12.018  0.5700 -0.8825  0.5576
17164TIP3    H272984   2.419   1.836  11.894  0.9598 -1.4929  0.7438
17165TIP3   OH272985   6.301   5.141   1.322 -0.2398 -0.0785 -0.2122
17165TIP3    H172986   6.330   5.057   1.358 -1.7860  0.4011  2.3883
17165TIP3    H272987   6.361   5.205   1.358  0.2952  0.0908 -1.3541
17166TIP3   OH272988   3.515   2.411  13.288 -0.4279 -0.3533  0.4252
17166TIP3    H172989   3.499   2.317  13.297 -0.6105 -0.2433  1.3533
17166TIP3    H272990   3.573   2.432  13.361  1.5895 -0.1816 -1.1320
17167TIP3   OH272991   3.339   2.231   2.196  0.2775  0.5238  0.5298
17167TIP3    H172992   3.269   2.295   2.213  1.3819  2.1642 -0.6991
17167TIP3    H272993   3.313   2.189   2.114  0.2170  0.3770  0.6245
17168TIP3   OH272994   1.709   1.465   1.446 -0.0322  0.1578 -0.0622
17168TIP3    H172995   1.795   1.428   1.426 -0.0687  0.7965 -1.5747
17168TIP3    H272996   1.695   1.531   1.378 -1.7233  0.0742  0.1555
17169TIP3   OH272997   3.501   0.026  17.037 -0.6511 -0.1177 -0.1672
17169TIP3    H172998   3.551  -0.008  17.110 -0.1839  1.4147  0.2564
17169TIP3    H272999   3.436   0.084  17.077 -1.8986 -1.0155 -0.8107
17170TIP3   OH273000   0.721   5.124  16.872  0.4030 -0.0167  0.2675
17170TIP3    H173001   0.696   5.213  16.897  3.2104  1.1278 -0.6269
17170TIP3    H273002   0.731   5.127  16.776  0.3346 -1.3661  0.1861
17171TIP3   OH273003   1.464   4.888   3.237 -0.2781  0.3095 -0.3074
17171TIP3    H173004   1.395   4.857   3.296  2.1124 -0.4165  2.3544
17171TIP3    H273005   1.465   4.983   3.247 -0.9908  0.3447 -0.5313
17172TIP3   OH273006   0.637   0.137   2.179  0.3926  0.1290  0.2005
17172TIP3    H173007   0.669   0.136   2.089 -0.5631  2.2250 -0.2227
17172TIP3    H273008   0.544   0.118   2.172  0.8698 -3.2079  1.1611
17173TIP3   OH273009   5.193   2.190  14.641 -0.2957  0.1394 -0.5545
17173TIP3    H173010   5.235   2.132  14.705 -0.9869  0.2709  0.0227
17173TIP3    H273011   5.176   2.134  14.565  0.1695 -0.1076 -0.4800
17174TIP3   OH273012   0.426   4.091  16.907 -0.3021  0.3659 -0.2087
17174TIP3    H173013   0.515   4.115  16.933 -0.1318 -0.7025  0.2321
17174TIP3    H273014   0.417   4.127  16.819  0.4334  0.8006 -0.1188
17175TIP3   OH273015   1.610   4.317   3.666 -0.0215 -0.0678  0.2843
17175TIP3    H173016   1.536   4.301   3.725  1.3497 -0.0744  2.0731
17175TIP3    H273017   1.571   4.364   3.592 -1.7322  0.3377  1.3812
17176TIP3   OH273018   6.752   0.664  16.840 -0.3706 -0.2462 -0.1911
17176TIP3    H173019   6.697   0.731  16.800 -2.2263 -1.0147  0.9891
17176TIP3    H273020   6.746   0.590  16.780  0.1149 -0.0566 -0.4899
17177TIP3   OH273021   6.630   0.590   3.085 -0.2849  0.3360  0.6722
17177TIP3    H173022   6.711   0.549   3.113  2.0347  2.4789 -2.2578
17177TIP3    H273023   6.595   0.531   3.017 -0.9544 -0.3233  1.5666
17178TIP3   OH273024   2.503   0.004  10.965 -0.8574 -0.0702  0.5690
17178TIP3    H173025   2.500   0.099  10.969  0.1133  0.1261 -1.7164
17178TIP3    H273026   2.545  -0.022  11.046 -0.2357  1.5180  0.7936
17179TIP3   OH273027   6.431   6.407   2.730  0.0855  0.1886 -0.0394
17179TIP3    H173028   6.485   6.338   2.692 -0.4808 -0.9031  1.0407
17179TIP3    H273029   6.342   6.389   2.697  0.2335  1.6211 -1.3410
17180TIP3   OH273030   2.556   1.431   1.851  0.3118  0.2083 -0.0130
17180TIP3    H173031   2.514   1.388   1.926  0.4588  0.4767  0.2248
17180TIP3    H273032   2.625   1.486   1.890  0.7177 -0.0357 -0.3824
17181TIP3   OH273033   6.524   6.155   1.823 -0.0572  0.4127 -0.0320
17181TIP3    H173034   6.475   6.076   1.800 -1.7396  1.7319 -1.2322
17181TIP3    H273035   6.470   6.200   1.887  0.5910  0.8875  0.1964
17182TIP3   OH273036   4.844   1.624  16.148 -0.4333 -0.5105  0.1551
17182TIP3    H173037   4.808   1.576  16.074 -1.4840 -0.4311  0.6048
17182TIP3    H273038   4.833   1.565  16.223 -1.8219  0.4298  0.7341
17183TIP3   OH273039   2.945   3.340  12.689  0.2010  0.1731 -0.2253
17183TIP3    H173040   2.994   3.275  12.639  1.0325  0.5584  0.0597
17183TIP3    H273041   2.920   3.295  12.770  0.4106  0.0741 -0.2147
17184TIP3   OH273042   0.270   6.564   1.577  0.1937  0.7231  0.2140
17184TIP3    H173043   0.304   6.624   1.644  0.8891 -0.9644  1.4636
17184TIP3    H273044   0.336   6.495   1.572 -1.1276 -0.5391 -0.2973
17185TIP3   OH273045   5.689   4.765  16.815  0.0266 -0.6983  0.3907
17185TIP3    H173046   5.748   4.753  16.740 -0.3916 -0.4955  0.0228
17185TIP3    H273047   5.605   4.789  16.776  0.1723  0.8899  0.9702
17186TIP3   OH273048   3.328   0.926   2.858 -0.0070 -0.0271  0.0270
17186TIP3    H173049   3.281   0.843   2.860 -1.1985  0.6381  0.2597
17186TIP3    H273050   3.400   0.911   2.796 -1.0971 -0.7674 -1.1138
17187TIP3   OH273051   0.639   5.975   4.178  0.3428 -0.1218  0.5070
17187TIP3    H173052   0.625   5.966   4.272 -0.8356  1.0513  0.4711
17187TIP3    H273053   0.709   6.040   4.170  0.7387 -0.5357  0.5703
17188TIP3   OH273054   0.331   4.448   1.564  0.0531  1.0740 -0.4057
17188TIP3    H173055   0.374   4.466   1.481 -0.4988  0.3391 -0.8631
17188TIP3    H273056   0.323   4.534   1.606 -0.4377  1.5732 -1.4860
17189TIP3   OH273057   1.773   1.947   1.854 -0.1385 -0.3399 -0.3830
17189TIP3    H173058   1.858   1.902   1.853 -0.7254 -1.8215  3.0089
17189TIP3    H273059   1.717   1.891   1.908 -2.6271  1.7498 -0.6059
17190TIP3   OH273060   2.706   6.614   2.139  0.5540  0.6505 -0.0275
17190TIP3    H173061   2.611   6.616   2.124  0.2172 -1.1846  1.5332
17190TIP3    H273062   2.734   6.532   2.098  1.3800  0.9180 -0.0017
17191TIP3   OH273063   2.223   4.470  11.212  0.0214  0.2661 -0.3788
17191TIP3    H173064   2.230   4.505  11.300  1.6094 -1.2141  0.1615
17191TIP3    H273065   2.270   4.386  11.216 -1.9095 -0.9985 -2.0403
17192TIP3   OH273066   3.942   2.586   5.957  0.4368 -0.3922  0.3022
17192TIP3    H173067   4.028   2.547   5.949  1.8079  2.4517 -0.2433
17192TIP3    H273068   3.940   2.625   6.044 -2.0228 -3.8942  2.0293
17193TIP3   OH273069   1.316   2.350  13.849  0.2355 -0.2384 -0.5029
17193TIP3    H173070   1.384   2.359  13.781 -0.2989  0.5544 -0.9435
17193TIP3    H273071   1.246   2.301  13.806  0.2109 -0.4071 -0.2736
17194TIP3   OH273072   3.537   5.887  14.993 -0.3600 -0.3514  0.6901
17194TIP3    H173073   3.497   5.961  15.039  0.1466 -1.0799  2.3930
17194TIP3    H273074   3.544   5.916  14.902 -2.9487  0.5453  0.6871
17195TIP3   OH273075   5.430   0.510   4.123  0.3948  0.7720  0.9611
17195TIP3    H173076   5.441   0.516   4.218 -0.0554 -0.2128  1.0810
17195TIP3    H273077   5.338   0.531   4.108  0.5279  1.1867  0.7128
17196TIP3   OH273078   3.645   5.989   3.483  0.0545 -0.0212 -0.2984
17196TIP3    H173079   3.639   6.059   3.419  2.0925  0.1419 -0.3776
17196TIP3    H273080   3.573   6.006   3.544 -1.2580  0.4379 -1.9102
17197TIP3   OH273081   6.776   6.188   1.342 -0.1862 -0.0144  0.3410
17197TIP3    H173082   6.744   6.114   1.395 -1.1894  1.0031  1.1996
17197TIP3    H273083   6.869   6.169   1.328 -0.4866 -1.5719  0.3043
17198TIP3   OH273084   4.050   0.249   5.795  0.1039  0.5658 -0.3771
17198TIP3    H173085   4.004   0.165   5.794  0.3999  0.4038 -0.8099
17198TIP3    H273086   4.116   0.241   5.726  0.0477  1.2063 -0.5142
17199TIP3   OH273087   1.630   2.914  11.333 -0.8206 -0.7320 -0.3409
17199TIP3    H173088   1.631   2.941  11.241 -1.0455 -0.0893 -0.1631
17199TIP3    H273089   1.720   2.889  11.352 -0.4937  0.3403 -0.4035
17200TIP3   OH273090   5.379   5.138   5.185 -0.6196 -0.3053  0.2777
17200TIP3    H173091   5.371   5.222   5.230 -2.8068  0.0018 -0.5512
17200TIP3    H273092   5.435   5.156   5.110 -1.3655  0.5406 -0.1006
17201TIP3   OH273093   3.699   3.688  15.579  0.1072 -0.0798  0.1718
17201TIP3    H173094   3.660   3.629  15.515 -0.7338  1.2540 -0.5816
17201TIP3    H273095   3.686   3.776  15.542  2.2137  0.5496  0.7583
17202TIP3   OH273096   3.621   2.191   1.348  0.1525 -0.2439  0.0085
17202TIP3    H173097   3.660   2.231   1.426  0.2498  1.8635 -1.0548
17202TIP3    H273098   3.696   2.160   1.297  0.2452  0.6149 -0.3867
17203TIP3   OH273099   5.196   2.285  11.588 -0.3836 -0.3028 -0.0288
17203TIP3    H173100   5.151   2.214  11.633 -0.2538 -0.3067  0.0978
17203TIP3    H273101   5.283   2.287  11.629  0.0880 -0.9688 -0.9705
17204TIP3   OH273102   4.558   2.547   0.171 -0.9395 -0.4646 -0.0151
17204TIP3    H173103   4.484   2.608   0.180 -1.4419 -1.2545  1.4302
17204TIP3    H273104   4.591   2.535   0.260  0.8016 -0.3271 -0.6031
17205TIP3   OH273105   3.953   6.683   3.709  0.2720  0.3523 -0.2657
17205TIP3    H173106   4.016   6.645   3.770  1.4188  0.1095 -1.5637
17205TIP3    H273107   3.967   6.635   3.627  0.6504  2.4551 -1.4968
17206TIP3   OH273108   4.392   2.248  17.014 -0.6676 -0.3133 -0.6939
17206TIP3    H173109   4.414   2.220  16.926 -2.0275 -2.8114 -0.3195
17206TIP3    H273110   4.462   2.212  17.069 -0.9383 -0.5928 -0.5268
17207TIP3   OH273111   4.330   6.454   5.611  0.2527  0.0931  0.7607
17207TIP3    H173112   4.305   6.361   5.608 -0.6902  0.3485  0.4521
17207TIP3    H273113   4.418   6.456   5.574 -0.5325 -0.4334 -1.2945
17208TIP3   OH273114   2.780   3.008  10.846 -0.2850  0.1840 -0.2465
17208TIP3    H173115   2.758   3.049  10.763  1.3177 -0.9697 -1.2925
17208TIP3    H273116   2.745   2.920  10.840 -0.1158  0.0729  0.2907
17209TIP3   OH273117   1.165   2.706   4.162  0.2012 -0.7159 -0.6467
17209TIP3    H173118   1.079   2.686   4.199 -0.3128 -0.7463 -1.8317
17209TIP3    H273119   1.201   2.773   4.220 -0.2874 -1.2591  0.3081
17210TIP3   OH273120   6.237   5.933  11.001 -0.8330  0.5027 -0.3882
17210TIP3    H173121   6.154   5.886  11.004 -1.4543  1.5507 -0.5080
17210TIP3    H273122   6.212   6.025  10.988  0.2880  0.9905  0.6622
17211TIP3   OH273123   3.975   2.180   2.361  0.2048 -0.1454 -0.7744
17211TIP3    H173124   3.950   2.234   2.286  0.1885  0.7596 -0.1297
17211TIP3    H273125   4.069   2.195   2.371  0.6270 -1.8368 -1.8382
17212TIP3   OH273126   3.728   1.838  15.317  0.1721  0.2053  0.3642
17212TIP3    H173127   3.710   1.868  15.406 -1.1570  0.5792 -0.0169
17212TIP3    H273128   3.709   1.913  15.261  0.0636 -0.3169 -0.3206
17213TIP3   OH273129   0.937   2.231  12.153 -0.1376  0.0980 -0.5744
17213TIP3    H173130   0.960   2.319  12.123  1.3009  0.3284  1.0342
17213TIP3    H273131   1.014   2.178  12.134 -0.1333 -0.2880  0.4448
17214TIP3   OH273132   3.665   1.497  14.996 -0.0322 -0.3519  0.3811
17214TIP3    H173133   3.588   1.502  15.052 -1.9655  0.3138 -2.1549
17214TIP3    H273134   3.669   1.405  14.969 -0.1377 -0.3194  0.2540
17215TIP3   OH273135   4.200   2.814  15.081 -0.1008  0.3193  0.4320
17215TIP3    H173136   4.278   2.770  15.116  0.3541  0.0183 -0.8968
17215TIP3    H273137   4.165   2.863  15.155  0.6546 -0.5197  1.3720
17216TIP3   OH273138   1.487   6.813   0.266 -0.1472 -0.1939  0.9045
17216TIP3    H173139   1.505   6.876   0.335 -1.8235  0.8617  0.4523
17216TIP3    H273140   1.416   6.759   0.301  0.8158 -1.4384  1.0194
17217TIP3   OH273141   4.622   4.315   4.269  0.2429  0.5508 -0.1804
17217TIP3    H173142   4.594   4.256   4.339 -1.1595  2.6293  1.1289
17217TIP3    H273143   4.566   4.292   4.195  0.5594 -0.5551 -0.0918
17218TIP3   OH273144   3.166   0.899   0.346 -0.0046 -0.5570  0.2909
17218TIP3    H173145   3.237   0.913   0.283  0.5861  1.7828  1.3851
17218TIP3    H273146   3.169   0.975   0.403 -2.7380 -0.9225  1.0579
17219TIP3   OH273147   0.458   2.899  10.981 -0.5918 -0.3778 -0.6462
17219TIP3    H173148   0.469   2.973  10.922 -0.5877 -0.5155 -0.8193
17219TIP3    H273149   0.487   2.823  10.930  0.4138 -0.3692 -0.1158
17220TIP3   OH273150   2.410   2.121  15.146 -0.4619 -0.2963 -0.1217
17220TIP3    H173151   2.399   2.079  15.232 -0.4186  1.4295  0.7669
17220TIP3    H273152   2.374   2.209  15.157  1.6043  0.7732 -1.1865
17221TIP3   OH273153   0.356   3.696  12.121  0.0836  0.0314  0.0264
17221TIP3    H173154   0.428   3.714  12.060  0.4929  0.5305  0.6511
17221TIP3    H273155   0.283   3.670  12.064  0.3652  0.7889 -0.7035
17222TIP3   OH273156   5.354   0.883   0.213  0.3972 -0.0960  0.3319
17222TIP3    H173157   5.416   0.859   0.145 -0.4002  0.6149 -0.6852
17222TIP3    H273158   5.301   0.805   0.227  1.9389 -0.9627  1.7548
17223TIP3   OH273159   6.216   1.907   5.753 -0.5109  0.0630  0.2073
17223TIP3    H173160   6.305   1.929   5.780 -0.2543 -0.1094 -0.4733
17223TIP3    H273161   6.226   1.830   5.698 -1.2148 -0.6654  1.0809
17224TIP3   OH273162   4.155   1.202   2.333 -0.2098 -0.6676 -0.9064
17224TIP3    H173163   4.088   1.255   2.374 -0.8106 -1.9127 -0.2276
17224TIP3    H273164   4.229   1.261   2.321  0.4073 -0.4375  2.9722
17225TIP3   OH273165   4.103   1.330   4.491  0.2490 -0.0648  0.3829
17225TIP3    H173166   4.103   1.356   4.584 -1.1304  1.1123  0.0858
17225TIP3    H273167   4.021   1.282   4.480  0.3957 -0.1803 -0.2389
17226TIP3   OH273168   4.427   0.967  11.490  0.3125  0.2855  0.4241
17226TIP3    H173169   4.459   0.982  11.401  2.3218 -3.4841  0.2941
17226TIP3    H273170   4.349   0.913  11.479  1.6940 -1.9029  0.8588
17227TIP3   OH273171   1.744   0.406   0.811 -0.5511 -0.0440 -0.3471
17227TIP3    H173172   1.737   0.352   0.732 -0.1972  0.4931 -0.7479
17227TIP3    H273173   1.736   0.343   0.883 -2.0430 -0.4024 -0.7903
17228TIP3   OH273174   5.869   0.874   2.589 -0.2561 -0.3063  0.2229
17228TIP3    H173175   5.871   0.811   2.660  2.8840 -0.5232  0.0630
17228TIP3    H273176   5.920   0.833   2.519 -2.6225  0.1973 -1.9730
17229TIP3   OH273177   1.786   4.180  12.016  0.2568 -0.1673 -0.1135
17229TIP3    H173178   1.774   4.091  11.984  0.8496 -0.3097  0.0476
17229TIP3    H273179   1.714   4.193  12.078  0.3026 -0.6191  0.0399
17230TIP3   OH273180   4.653   0.683   3.636  0.0811 -0.0560 -0.8421
17230TIP3    H173181   4.713   0.757   3.636  0.7815 -0.6037  0.4575
17230TIP3    H273182   4.573   0.717   3.676  1.0272 -0.4405  1.5072
17231TIP3   OH273183   5.834   0.991   3.277  0.1901  0.3428  0.5341
17231TIP3    H173184   5.745   0.963   3.297  1.3065 -1.3827  3.8798
17231TIP3    H273185   5.855   0.948   3.194 -2.1734  1.1991 -0.5932
17232TIP3   OH273186   2.658   5.715  16.791  0.8765 -0.3896 -0.4435
17232TIP3    H173187   2.627   5.625  16.782 -0.0099 -0.0649 -0.8159
17232TIP3    H273188   2.713   5.714  16.869 -1.0379 -0.7842  0.9872
17233TIP3   OH273189   3.276   5.703  16.762  0.1927  0.4477  0.2231
17233TIP3    H173190   3.302   5.717  16.671 -2.3345  0.5255 -0.5633
17233TIP3    H273191   3.239   5.787  16.789 -1.5284 -0.3185  0.3886
17234TIP3   OH273192   4.988   2.082   4.959 -0.1785 -0.1875  0.2462
17234TIP3    H173193   4.988   2.026   5.036 -0.3563  0.4106  0.6876
17234TIP3    H273194   4.968   2.022   4.886  0.5807 -0.8555  0.5712
17235TIP3   OH273195   3.425   0.164  15.097  0.4668  0.5113  0.1934
17235TIP3    H173196   3.450   0.225  15.165 -0.2004 -0.5073  1.3892
17235TIP3    H273197   3.357   0.211  15.047 -0.6890  0.4394  1.6501
17236TIP3   OH273198   2.083   0.951   2.332  0.3634  0.2600  0.2105
17236TIP3    H173199   2.104   0.903   2.412 -1.6978  0.9008  1.2020
17236TIP3    H273200   2.144   1.025   2.331  1.7837 -0.8565  0.0425
17237TIP3   OH273201   2.516   4.365   3.352 -0.6472  0.3304  0.1277
17237TIP3    H173202   2.455   4.296   3.379  2.3047 -2.4974  0.1923
17237TIP3    H273203   2.588   4.360   3.415 -0.6433  4.1816  0.6504
17238TIP3   OH273204   2.525   6.126   4.596 -0.1392  0.4201  0.2113
17238TIP3    H173205   2.571   6.124   4.679  1.4420 -2.7233 -0.5956
17238TIP3    H273206   2.570   6.195   4.546  1.9963 -0.7589  0.3993
17239TIP3   OH273207   2.951   1.331   4.748 -0.2962  0.1098  0.8580
17239TIP3    H173208   2.900   1.258   4.712 -0.2744 -0.0722  1.1930
17239TIP3    H273209   3.008   1.358   4.676 -0.2910 -0.2165  0.7401
17240TIP3   OH273210   4.033   5.651   2.942 -0.0603 -0.2579 -0.3565
17240TIP3    H173211   3.950   5.675   2.984  0.0593  0.1697 -0.3613
17240TIP3    H273212   4.019   5.671   2.849  0.8205  2.0462 -0.0651
17241TIP3   OH273213   0.087   5.982  12.674 -0.2842  0.1360 -0.7696
17241TIP3    H173214   0.042   5.906  12.711  0.1265 -0.0381 -0.6190
17241TIP3    H273215   0.165   5.993  12.729 -1.0433  1.5346  0.0912
17242TIP3   OH273216   1.640   1.011  15.193 -0.4332  0.7389 -0.1443
17242TIP3    H173217   1.702   0.979  15.127  0.0261  0.6470  0.3229
17242TIP3    H273218   1.595   0.932  15.223 -0.5294  0.7608 -0.2286
17243TIP3   OH273219   5.992   0.213   3.788 -0.5762 -0.1615 -0.2326
17243TIP3    H173220   5.929   0.153   3.750 -0.3521 -0.2657 -0.4404
17243TIP3    H273221   5.951   0.242   3.870  0.3729 -2.5502  1.1831
17244TIP3   OH273222   4.056   5.921  16.027  0.3122 -0.3863 -0.2545
17244TIP3    H173223   4.109   5.858  15.978 -0.7242 -0.2658 -1.5860
17244TIP3    H273224   4.000   5.961  15.961 -0.2321  0.7269  0.8494
17245TIP3   OH273225   1.137   4.886  14.852  0.4464  0.4764 -0.1723
17245TIP3    H173226   1.153   4.880  14.946  0.1874  0.5328 -0.1218
17245TIP3    H273227   1.108   4.977  14.839 -0.6374  0.1519 -0.1249
17246TIP3   OH273228   1.945   6.048  11.224  0.8716 -0.1602  0.0745
17246TIP3    H173229   1.959   6.134  11.264 -0.0427 -0.1586  0.4361
17246TIP3    H273230   1.884   6.065  11.152 -0.8554 -0.7363  1.3309
17247TIP3   OH273231   4.133   4.670   1.545 -0.0456  0.1347  0.3093
17247TIP3    H173232   4.106   4.613   1.618 -0.8980  2.1273  1.6507
17247TIP3    H273233   4.120   4.617   1.467 -1.9349 -1.1384  1.4011
17248TIP3   OH273234   5.352   6.116   2.724  0.3867  0.1800  0.0196
17248TIP3    H173235   5.283   6.082   2.781  1.1745  0.5567  1.2296
17248TIP3    H273236   5.350   6.058   2.647 -1.0306 -0.0226  0.1841
17249TIP3   OH273237   1.880   4.811   1.947 -0.1236  0.2916  0.0201
17249TIP3    H173238   1.898   4.813   2.041  0.4584 -1.0995 -0.0242
17249TIP3    H273239   1.786   4.793   1.940 -0.1733  0.4293  0.3449
17250TIP3   OH273240   1.029   0.193  13.702  0.1860  0.0153 -0.1455
17250TIP3    H173241   0.938   0.200  13.675  0.3523  1.3967 -0.4376
17250TIP3    H273242   1.044   0.099  13.714 -1.3344 -0.2062  0.1700
17251TIP3   OH273243   0.920   3.301   3.266  1.0886  0.4609  0.2591
17251TIP3    H173244   0.839   3.251   3.270 -0.5798  2.9940  0.2894
17251TIP3    H273245   0.981   3.252   3.321 -0.2013 -1.8034 -0.2001
17252TIP3   OH273246   4.549   1.413   5.219  0.7797 -0.9034  0.1127
17252TIP3    H173247   4.467   1.366   5.237  0.7117 -0.7632  0.1718
17252TIP3    H273248   4.580   1.441   5.305  0.6356 -0.5327  0.0474
17253TIP3   OH273249   2.996   4.957  12.874 -0.7237 -0.5625 -0.0765
17253TIP3    H173250   2.947   4.888  12.829  0.5234 -0.9770 -0.8343
17253TIP3    H273251   3.076   4.915  12.904 -0.5056  0.2702  0.5530
17254TIP3   OH273252   4.194   0.633  11.675  0.0804 -0.0658 -0.3162
17254TIP3    H173253   4.269   0.662  11.727 -0.1130 -0.0350 -0.0495
17254TIP3    H273254   4.222   0.549  11.637  0.0675 -0.3026  0.1895
17255TIP3   OH273255   3.304   3.711   2.700  0.1772  0.1926  0.3287
17255TIP3    H173256   3.304   3.796   2.658  0.3715 -0.0564 -0.1767
17255TIP3    H273257   3.235   3.662   2.656 -0.2932  0.2541  0.9711
17256TIP3   OH273258   5.061   6.003  13.337 -0.0496  0.2814 -0.2074
17256TIP3    H173259   5.155   6.017  13.327 -0.2657  3.2548  0.7985
17256TIP3    H273260   5.048   5.993  13.431 -0.8645  1.6613 -0.1464
17257TIP3   OH273261   4.255   0.907   0.757  0.6155 -0.0037 -0.0847
17257TIP3    H173262   4.247   0.975   0.824 -4.0537 -0.8705  0.5566
17257TIP3    H273263   4.317   0.844   0.795  2.2142  2.0320  0.9061
17258TIP3   OH273264   6.107   6.616   1.542  0.1030  0.9632  0.6698
17258TIP3    H173265   6.140   6.582   1.458 -0.7799 -1.8586  1.3522
17258TIP3    H273266   6.120   6.544   1.603  0.1206  2.7279  2.8571
17259TIP3   OH273267   4.113   4.869   1.107 -0.4010 -0.7189 -0.4634
17259TIP3    H173268   4.049   4.937   1.085  1.0396 -0.0437 -3.0687
17259TIP3    H273269   4.167   4.908   1.175 -0.3646  0.2788 -1.0391
17260TIP3   OH273270   6.213   3.922   1.813 -0.1460 -0.0617 -0.1039
17260TIP3    H173271   6.234   3.924   1.906  0.3449 -0.6364 -0.1945
17260TIP3    H273272   6.163   3.841   1.802  2.0014 -1.3809 -0.7639
17261TIP3   OH273273   3.944   5.694  12.938 -0.3648 -0.6473  0.3454
17261TIP3    H173274   3.996   5.664  12.863 -0.3896  0.4118 -0.1187
17261TIP3    H273275   3.921   5.614  12.985  0.9342 -1.2025  0.0684
17262TIP3   OH273276   0.531   0.139  13.291 -0.1910  0.2679 -0.3958
17262TIP3    H173277   0.624   0.143  13.312 -0.5027 -0.3991  1.2464
17262TIP3    H273278   0.519   0.207  13.224  1.6038 -0.1789 -1.2414
17263TIP3   OH273279   5.329   4.101   3.992 -0.2021 -0.1315  0.0596
17263TIP3    H173280   5.323   4.094   3.896  0.6524 -0.6393  0.0368
17263TIP3    H273281   5.327   4.011   4.023  1.2912 -0.0711  0.3943
17264TIP3   OH273282   5.680   5.795  14.413  0.2251  0.3062 -0.5600
17264TIP3    H173283   5.690   5.700  14.400  0.5361  0.5395 -2.2364
17264TIP3    H273284   5.683   5.806  14.508 -0.1642 -1.3991 -0.3144
17265TIP3   OH273285   1.046   1.116  13.012 -0.2267 -0.3501  0.4998
17265TIP3    H173286   1.047   1.049  13.080  2.0172 -0.2472  0.6327
17265TIP3    H273287   1.002   1.074  12.938  1.2758 -2.0466  0.5251
17266TIP3   OH273288   1.157   4.760  13.473 -0.2966 -1.0238 -0.0439
17266TIP3    H173289   1.234   4.763  13.529 -2.2644  0.0911  2.8315
17266TIP3    H273290   1.158   4.844  13.426 -0.0692 -0.7830  0.3879
17267TIP3   OH273291   0.554   3.217   0.846  0.0684  0.7809 -0.3961
17267TIP3    H173292   0.523   3.302   0.876 -0.9045  0.2121  0.2647
17267TIP3    H273293   0.491   3.190   0.779 -1.1710 -0.5425  1.2082
17268TIP3   OH273294   4.875   4.347   4.361 -0.0150  0.0457 -0.0526
17268TIP3    H173295   4.914   4.341   4.274 -0.5304  0.2971 -0.3063
17268TIP3    H273296   4.782   4.331   4.347 -0.0721 -0.1057  0.4809
17269TIP3   OH273297   1.042   6.171   3.168 -0.3790  0.0791  0.2773
17269TIP3    H173298   0.962   6.207   3.206 -0.2453 -0.9694  1.6156
17269TIP3    H273299   1.019   6.080   3.146  0.4681 -0.2730  0.8023
17270TIP3   OH273300   5.186   0.007   3.288  0.7454  0.4806 -0.3422
17270TIP3    H173301   5.091  -0.009   3.291  0.9009 -1.2546 -2.4027
17270TIP3    H273302   5.206   0.044   3.374 -1.5453 -0.6093  0.7644
17271TIP3   OH273303   3.816   6.506  14.101 -0.3557 -0.4348  0.1617
17271TIP3    H173304   3.740   6.563  14.116 -0.5211 -0.4847 -0.4546
17271TIP3    H273305   3.860   6.544  14.025  2.0302  1.4335  2.3311
17272TIP3   OH273306   2.398   4.606   3.325 -0.4639  0.1917 -0.5416
17272TIP3    H173307   2.309   4.599   3.290 -0.4742 -0.9985 -0.3237
17272TIP3    H273308   2.429   4.516   3.330  0.1158  0.4353  0.9979
17273TIP3   OH273309   5.740   2.788   1.127  0.0259  0.2472  0.6691
17273TIP3    H173310   5.681   2.763   1.197  0.6349  0.4221  1.2523
17273TIP3    H273311   5.783   2.867   1.158  0.9299 -0.1520  0.4733
17274TIP3   OH273312   0.626   2.742   5.847 -0.4239  0.5122 -0.5437
17274TIP3    H173313   0.653   2.793   5.923 -1.1462 -0.6446  0.5132
17274TIP3    H273314   0.700   2.684   5.829  0.8812  2.5897 -2.4498
17275TIP3   OH273315   2.800   2.884   6.011 -0.2402 -0.0298 -0.4515
17275TIP3    H173316   2.844   2.885   6.096  2.0407 -2.2453 -1.4823
17275TIP3    H273317   2.714   2.846   6.030 -0.1606  0.4455  0.9917
17276TIP3   OH273318   1.555   5.622   0.064 -0.2202  0.2256  0.3693
17276TIP3    H173319   1.547   5.697   0.005 -0.9350  1.1308  1.5685
17276TIP3    H273320   1.625   5.647   0.125  0.2259 -0.5259  0.1837
17277TIP3   OH273321   3.879   6.360   3.631 -0.0852 -0.1271 -0.1909
17277TIP3    H173322   3.846   6.372   3.720 -0.4202  3.3758 -0.6460
17277TIP3    H273323   3.956   6.304   3.642 -1.1477 -1.2726  2.0282
17278TIP3   OH273324   1.938   5.521  13.309  0.2228  0.5979  0.1232
17278TIP3    H173325   1.890   5.604  13.304 -0.7131  0.1736  1.6570
17278TIP3    H273326   1.871   5.454  13.323  0.9866 -0.4136 -0.8654
17279TIP3   OH273327   5.528   6.478   5.257  0.2234 -0.5880  0.1271
17279TIP3    H173328   5.435   6.501   5.262  0.0419 -1.2572 -0.0885
17279TIP3    H273329   5.570   6.556   5.220 -0.1412 -0.0088  0.8936
17280TIP3   OH273330   3.504   0.388   4.582  0.0838 -0.1269  0.2664
17280TIP3    H173331   3.530   0.473   4.616  0.4233  0.2050 -0.8017
17280TIP3    H273332   3.437   0.407   4.516  1.7688 -0.4765 -1.6319
17281TIP3   OH273333   2.975   4.577  15.795 -0.1176  0.0997  0.3633
17281TIP3    H173334   2.969   4.498  15.741  0.7207  0.6897 -0.6323
17281TIP3    H273335   3.039   4.632  15.750  0.4412  0.7264  1.8375
17282TIP3   OH273336   0.753   1.609   5.747  0.0029 -0.1367 -0.3607
17282TIP3    H173337   0.757   1.667   5.823  0.0763 -1.5569  0.7750
17282TIP3    H273338   0.743   1.667   5.672 -2.2335  1.2612  0.9094
17283TIP3   OH273339   5.234   2.063  16.058 -0.7349 -0.1235 -0.2045
17283TIP3    H173340   5.196   2.111  15.985  1.6477  0.6488 -1.0625
17283TIP3    H273341   5.198   1.975  16.052 -4.2986  1.1174  0.6758
17284TIP3   OH273342   3.817   1.585  15.521 -0.1183  0.2423 -0.0113
17284TIP3    H173343   3.891   1.603  15.463  0.1401 -0.9013 -0.0566
17284TIP3    H273344   3.836   1.499  15.558 -1.2122  0.1297  0.3167
17285TIP3   OH273345   0.714   2.328   0.350 -0.0370 -0.0611 -0.3162
17285TIP3    H173346   0.778   2.340   0.421 -0.4621  0.0956  0.0464
17285TIP3    H273347   0.695   2.417   0.320 -0.6295 -0.0540  0.0701
17286TIP3   OH273348   2.808   5.145  13.229 -0.4976 -0.0016 -0.1438
17286TIP3    H173349   2.797   5.236  13.255  1.1950 -0.2466  1.6614
17286TIP3    H273350   2.778   5.094  13.304  1.9149 -0.8035  0.3775
17287TIP3   OH273351   1.440   5.598  15.754  0.1789  0.1990  0.4487
17287TIP3    H173352   1.388   5.530  15.712 -0.5229  0.8694  0.2102
17287TIP3    H273353   1.508   5.619  15.690  0.3896 -0.2598  0.5176
17288TIP3   OH273354   1.949   1.959  14.378 -0.3926  0.2334  0.3595
17288TIP3    H173355   1.916   1.933  14.292  0.6007  1.3605 -0.3933
17288TIP3    H273356   1.985   2.046  14.364  2.6420 -0.7950  1.1860
17289TIP3   OH273357   4.046   5.605  16.260  0.4188 -0.4939  0.4821
17289TIP3    H173358   4.129   5.648  16.239 -0.1045  0.1455 -0.3747
17289TIP3    H273359   4.046   5.526  16.206  1.4707 -1.7332  2.2062
17290TIP3   OH273360   6.056   3.724   3.913 -0.0424  0.9989 -0.5050
17290TIP3    H173361   6.088   3.715   4.002  0.4572  2.3399 -0.5325
17290TIP3    H273362   6.105   3.659   3.863  0.8825  1.3808 -0.1073
17291TIP3   OH273363   2.819   6.199  11.438 -0.0091 -0.3374  0.1333
17291TIP3    H173364   2.864   6.254  11.374 -0.4196  2.2303  1.8718
17291TIP3    H273365   2.889   6.154  11.485  0.5137  0.3886  0.0741
17292TIP3   OH273366   2.814   5.987   1.293 -0.4543  0.2670 -0.1010
17292TIP3    H173367   2.793   5.992   1.200  0.2522 -0.7284 -0.3237
17292TIP3    H273368   2.825   5.893   1.311  0.2990  0.5093  0.7882
17293TIP3   OH273369   6.570   2.152  17.128  0.8209  0.2629 -0.1578
17293TIP3    H173370   6.574   2.220  17.194 -1.9055  0.1581  0.2316
17293TIP3    H273371   6.639   2.174  17.065  1.3484  2.1724  1.0379
17294TIP3   OH273372   2.997   5.900   6.137 -0.9194  0.3244 -0.0961
17294TIP3    H173373   2.934   5.926   6.205 -0.9064  1.0412 -0.3411
17294TIP3    H273374   2.943   5.873   6.063 -0.9841  1.6241 -0.5670
17295TIP3   OH273375   6.139   6.002  16.049  0.9254 -0.2397  0.7533
17295TIP3    H173376   6.134   6.043  15.963  1.3598 -0.9772  0.3691
17295TIP3    H273377   6.072   5.934  16.048  0.5677  0.1001  1.1970
17296TIP3   OH273378   0.949   5.811  11.767 -0.3867 -0.3378  0.4080
17296TIP3    H173379   1.016   5.752  11.733  1.2168  2.0992 -0.9899
17296TIP3    H273380   0.973   5.826  11.858  0.7553  0.1920  0.0314
17297TIP3   OH273381   0.758   5.506  12.431 -0.3945 -0.1026 -0.6020
17297TIP3    H173382   0.720   5.420  12.449 -0.5319 -0.3522 -2.0095
17297TIP3    H273383   0.767   5.546  12.518  0.4639 -1.8518  0.1623
17298TIP3   OH273384   2.360   4.883  14.423 -0.1065 -0.1168 -0.8224
17298TIP3    H173385   2.426   4.849  14.362  0.7756  1.4770 -0.7962
17298TIP3    H273386   2.361   4.822  14.496  2.6479  0.7941  0.0026
17299TIP3   OH273387   3.654   4.793   2.023  0.1892 -0.1963  0.4346
17299TIP3    H173388   3.574   4.842   2.005 -1.0017 -1.9965  0.5747
17299TIP3    H273389   3.701   4.792   1.940  0.0465  0.7924  0.3271
17300TIP3   OH273390   3.708   2.058   1.713 -0.0394 -0.8300 -0.4254
17300TIP3    H173391   3.793   2.018   1.733 -0.7802 -1.9021  0.7030
17300TIP3    H273392   3.646   1.985   1.717 -0.9686 -0.1620 -1.7587
17301TIP3   OH273393   0.617   1.289   0.998  0.1577 -0.1420 -0.8027
17301TIP3    H173394   0.708   1.311   1.017 -0.1696  0.2115  0.4955
17301TIP3    H273395   0.621   1.208   0.948  1.1632 -0.5943 -0.0246
17302TIP3   OH273396   4.368   3.361  12.708  1.1926  0.3950  0.0481
17302TIP3    H173397   4.393   3.340  12.618 -0.2664  0.7428 -0.4646
17302TIP3    H273398   4.441   3.329  12.761  0.7297 -2.6500 -0.9684
17303TIP3   OH273399   4.474   2.892  12.704 -0.1664 -0.2154  0.3138
17303TIP3    H173400   4.459   2.847  12.621 -2.3139 -2.9751  2.0043
17303TIP3    H273401   4.453   2.984  12.686  0.1565 -0.6068 -2.3330
17304TIP3   OH273402   4.929   1.963   3.689  0.3509  0.2046  0.3748
17304TIP3    H173403   4.856   1.931   3.636 -0.1218 -0.7146  1.5487
17304TIP3    H273404   4.897   2.043   3.729  0.2230  0.1505  0.3798
17305TIP3   OH273405   3.650   0.354  15.538  0.1356  0.6529 -0.1685
17305TIP3    H173406   3.570   0.320  15.580  0.6014 -0.7288 -0.3379
17305TIP3    H273407   3.701   0.391  15.610  0.8113 -1.4647  0.5227
17306TIP3   OH273408   5.656   4.340   1.916 -0.4916 -0.2289  0.3165
17306TIP3    H173409   5.651   4.264   1.974 -0.8009 -1.3581 -1.1264
17306TIP3    H273410   5.566   4.372   1.909 -0.4593 -0.1128  0.4245
17307TIP3   OH273411   6.238   6.452  11.601  0.1445 -0.0632 -0.6002
17307TIP3    H173412   6.238   6.456  11.506  0.9727 -0.7566 -0.6400
17307TIP3    H273413   6.165   6.394  11.623  0.1942 -0.2119 -0.8294
17308TIP3   OH273414   1.169   0.385  13.331  0.3235  0.0864  0.3366
17308TIP3    H173415   1.158   0.383  13.236 -1.2782 -0.9676  0.5141
17308TIP3    H273416   1.082   0.404  13.365  0.4636 -1.3885  1.6318
17309TIP3   OH273417   3.296   4.651  11.534 -0.2951 -0.0821 -0.0618
17309TIP3    H173418   3.245   4.676  11.611 -1.0038  0.9340 -0.8404
17309TIP3    H273419   3.285   4.556  11.528  0.6028 -0.3368  1.6597
17310TIP3   OH273420   2.429   2.932   2.913 -0.8076 -0.2776 -0.2383
17310TIP3    H173421   2.455   2.881   2.990  1.2592 -0.7382 -1.1752
17310TIP3    H273422   2.342   2.898   2.891  0.3971 -3.3898 -0.7280
17311TIP3   OH273423   6.030   3.598  14.622  0.5431 -0.3989  0.6156
17311TIP3    H173424   6.061   3.550  14.698  1.7474 -0.0923  0.3417
17311TIP3    H273425   6.007   3.684  14.656  0.5765 -0.4345  0.7271
17312TIP3   OH273426   5.535   0.579  14.784  1.2778 -0.0349 -0.3148
17312TIP3    H173427   5.523   0.647  14.849 -1.2187  0.3527 -1.0797
17312TIP3    H273428   5.531   0.497  14.833 -0.6345  0.2478  0.0754
17313TIP3   OH273429   6.302   0.804  11.739  0.1891 -0.5947  0.1576
17313TIP3    H173430   6.288   0.874  11.802 -0.3944 -1.5220  1.1017
17313TIP3    H273431   6.282   0.724  11.788 -0.6233 -1.3228 -1.2868
17314TIP3   OH273432   2.570   3.328  11.846  0.3284 -0.4517  0.0237
17314TIP3    H173433   2.562   3.414  11.805 -2.7586 -0.1998  0.8890
17314TIP3    H273434   2.617   3.275  11.782  0.8323  1.4411 -1.2480
17315TIP3   OH273435   1.864   6.706  17.183 -0.0853  0.6489 -0.5372
17315TIP3    H173436   1.851   6.777  17.120  1.3198  0.2549 -1.3075
17315TIP3    H273437   1.935   6.654  17.146 -0.2666 -0.4639  0.6320
17316TIP3   OH273438   3.503   6.444  13.984 -0.2087  0.4907  0.0762
17316TIP3    H173439   3.515   6.528  14.028  0.5022  0.8984 -0.8594
17316TIP3    H273440   3.572   6.388  14.020 -1.1512  0.0444  1.2615
17317TIP3   OH273441   1.205   6.622  15.197  0.0661  0.6140  0.7238
17317TIP3    H173442   1.225   6.649  15.286 -1.0998 -0.2570  1.2892
17317TIP3    H273443   1.124   6.669  15.175 -0.6417 -0.4978  0.8216
17318TIP3   OH273444   4.742   5.149   1.293  0.5943 -0.3102  0.1586
17318TIP3    H173445   4.668   5.188   1.340 -1.2982 -2.7740 -0.5616
17318TIP3    H273446   4.818   5.165   1.349 -1.0274 -0.3390  2.4769
17319TIP3   OH273447   5.334   5.086   4.476 -0.2812 -0.5490 -0.3708
17319TIP3    H173448   5.375   5.086   4.389  1.4050  1.6886  0.3405
17319TIP3    H273449   5.284   5.167   4.479 -2.0448 -1.5828  0.0794
17320TIP3   OH273450   3.571   6.527  13.735  0.2347 -0.0655  0.0358
17320TIP3    H173451   3.484   6.539  13.697  0.1704  1.7451  0.6688
17320TIP3    H273452   3.554   6.496  13.824  0.3128 -1.3797 -0.3831
17321TIP3   OH273453   1.710   1.499   6.230 -0.0161  0.2189 -0.1108
17321TIP3    H173454   1.716   1.420   6.177 -1.2047  0.5916 -0.8297
17321TIP3    H273455   1.642   1.551   6.188  2.0458  2.5200 -0.7986
17322TIP3   OH273456   1.771   6.457   4.288 -0.3336  0.1749  0.0235
17322TIP3    H173457   1.850   6.478   4.337 -1.4405 -1.0478  2.5031
17322TIP3    H273458   1.790   6.484   4.198  2.9989 -0.3955  0.4556
17323TIP3   OH273459   3.769   2.376   3.662  0.7568  0.1693  0.8429
17323TIP3    H173460   3.750   2.294   3.707 -0.3093  0.4878  1.0006
17323TIP3    H273461   3.800   2.435   3.730  1.0154  0.0565  0.8222
17324TIP3   OH273462   1.520   2.424   4.509 -0.4524  0.0011 -0.0476
17324TIP3    H173463   1.498   2.473   4.429 -2.2000 -2.4056 -1.1728
17324TIP3    H273464   1.487   2.478   4.580  1.9852  2.6859 -0.7307
17325TIP3   OH273465   3.877   4.945  11.699 -0.0962  0.1654 -0.2355
17325TIP3    H173466   3.876   4.950  11.604 -0.6082 -0.2779 -0.2604
17325TIP3    H273467   3.923   5.024  11.727  0.8115 -0.1235 -0.8732
17326TIP3   OH273468   6.207   2.885   0.247 -0.2926  0.4575  0.6582
17326TIP3    H173469   6.199   2.871   0.341  0.7226 -1.0995  0.5532
17326TIP3    H273470   6.195   2.798   0.208 -2.5381  1.3265 -0.8365
17327TIP3   OH273471   1.151   5.144   3.870  0.3417  0.6636  0.0168
17327TIP3    H173472   1.112   5.153   3.784 -0.5536  2.7690  0.5805
17327TIP3    H273473   1.079   5.120   3.928  0.6759  0.5595  0.4004
17328TIP3   OH273474   6.776   3.784   3.459  0.1245  0.1785 -0.6100
17328TIP3    H173475   6.686   3.798   3.429 -0.4599 -0.8313  0.5817
17328TIP3    H273476   6.797   3.863   3.508 -0.9333 -0.4258  0.9180
17329TIP3   OH273477   4.986   0.288   5.256 -0.2389 -0.5428  0.1422
17329TIP3    H173478   4.937   0.285   5.174 -0.4458  0.5390  0.2130
17329TIP3    H273479   4.919   0.302   5.323 -0.0381 -1.1252  0.4693
17330TIP3   OH273480   2.200   0.466   0.250  0.1623  0.1079  1.1302
17330TIP3    H173481   2.281   0.516   0.242  0.4620 -0.3844  1.0357
17330TIP3    H273482   2.142   0.522   0.302 -0.1071  1.2870 -0.3811
17331TIP3   OH273483   5.239   0.560   4.730 -0.6648 -0.0804 -0.0274
17331TIP3    H173484   5.330   0.569   4.699 -0.3104 -0.1537  0.9645
17331TIP3    H273485   5.233   0.622   4.802 -1.4263 -0.0455 -0.1196
17332TIP3   OH273486   0.780   0.489   0.699  0.5373 -0.3803 -0.1279
17332TIP3    H173487   0.756   0.529   0.615  0.7012 -0.2260 -0.1026
17332TIP3    H273488   0.701   0.495   0.752  0.6319  0.1241 -0.0440
17333TIP3   OH273489   6.381   6.620  16.333  0.1151 -0.2141 -0.0445
17333TIP3    H173490   6.336   6.541  16.362  1.3993 -1.1062 -0.4208
17333TIP3    H273491   6.311   6.676  16.298 -0.8014 -1.1885  0.1744
17334TIP3   OH273492   0.644   1.954   2.728  0.9437 -0.3259 -0.1559
17334TIP3    H173493   0.665   1.868   2.764  2.2273  0.5035  1.1807
17334TIP3    H273494   0.723   1.982   2.683  0.0689 -0.4044 -1.8330
17335TIP3   OH273495   4.644   3.891   0.141  0.0847 -0.5997  0.1700
17335TIP3    H173496   4.607   3.806   0.166 -1.3114  0.2132  1.0686
17335TIP3    H273497   4.597   3.953   0.196  0.4979  0.8328 -1.0395
17336TIP3   OH273498   4.792   0.543   5.762  0.4184  0.3589  0.3076
17336TIP3    H173499   4.741   0.487   5.704 -1.2942 -0.5090  2.4686
17336TIP3    H273500   4.768   0.632   5.737  0.6747  0.0541 -1.0718
17337TIP3   OH273501   5.442   6.375   1.367  0.2905  0.0453  0.1960
17337TIP3    H173502   5.461   6.467   1.346  1.3916  0.3926  2.4231
17337TIP3    H273503   5.364   6.378   1.422 -0.6925 -0.5447 -1.1274
17338TIP3   OH273504   5.576   2.311   4.481 -0.5102  0.0477 -0.0228
17338TIP3    H173505   5.660   2.284   4.444 -0.3761 -1.2728  1.1462
17338TIP3    H273506   5.555   2.242   4.544 -2.0525  0.8110  0.3380
17339TIP3   OH273507   3.681   4.483   4.371 -0.0158  0.3359  0.0672
17339TIP3    H173508   3.614   4.486   4.303 -0.7623  0.8568  0.8152
17339TIP3    H273509   3.755   4.437   4.330 -0.7160  0.0105 -0.8496
17340TIP3   OH273510   3.504   1.330   2.961  0.1542 -0.3240 -0.5698
17340TIP3    H173511   3.519   1.288   2.876 -0.0277  1.1910 -1.3769
17340TIP3    H273512   3.573   1.395   2.967 -1.6305  1.7165 -1.0027
17341TIP3   OH273513   1.125   4.056   3.121 -0.4469  0.8747  0.3344
17341TIP3    H173514   1.059   4.002   3.077 -2.5090  3.1206  0.4394
17341TIP3    H273515   1.159   4.113   3.052  0.2219  0.8077  0.6080
17342TIP3   OH273516   4.052   2.534   0.038 -0.3733  0.2827 -0.1134
17342TIP3    H173517   4.034   2.452   0.083 -2.5314  1.1909  0.7532
17342TIP3    H273518   4.102   2.507  -0.040 -0.4706 -1.7605  0.4716
17343TIP3   OH273519   6.248   1.356  10.802 -0.4082 -0.1343  0.2006
17343TIP3    H173520   6.335   1.316  10.812 -0.0987  0.7267  1.0895
17343TIP3    H273521   6.254   1.439  10.849 -2.4101 -1.0777  2.3268
17344TIP3   OH273522   0.139   2.973   3.932 -0.1754 -0.3765 -0.1705
17344TIP3    H173523   0.191   2.912   3.881  0.0587 -1.0674  0.8787
17344TIP3    H273524   0.050   2.965   3.896  0.2391  0.1436 -1.3518
17345TIP3   OH273525   2.470   5.756   1.450  0.1850  0.0336 -0.1515
17345TIP3    H173526   2.377   5.734   1.435  0.2404 -0.2749 -0.0506
17345TIP3    H273527   2.489   5.723   1.538 -0.1345  1.8459  0.6357
17346TIP3   OH273528   2.908   4.032   5.112  0.2843 -0.0900  0.1251
17346TIP3    H173529   2.985   4.059   5.062  1.3159 -3.4750 -0.4088
17346TIP3    H273530   2.860   3.974   5.052 -1.0122 -0.4893  1.4782
17347TIP3   OH273531   5.036   6.426   6.133 -0.2680 -0.1946  0.3544
17347TIP3    H173532   5.081   6.413   6.216  0.1384 -0.1588  0.1419
17347TIP3    H273533   4.948   6.453   6.157 -0.0583  0.1213  0.7714
17348TIP3   OH273534   6.750   1.748  15.347 -0.2101  0.6134 -0.0517
17348TIP3    H173535   6.714   1.682  15.406  1.1477  1.1809  1.5002
17348TIP3    H273536   6.788   1.698  15.275  1.3970 -0.4352  1.4287
17349TIP3   OH273537   1.943   6.128   5.275 -0.2387  0.2043  0.6016
17349TIP3    H173538   1.855   6.107   5.308 -0.2004  1.4734  1.6109
17349TIP3    H273539   2.002   6.094   5.342  0.0044  0.0706  0.3202
17350TIP3   OH273540   5.992   0.469  10.755 -0.6071 -0.4967  0.1397
17350TIP3    H173541   6.028   0.487  10.668 -0.1049 -0.1120  0.4194
17350TIP3    H273542   6.034   0.387  10.781 -1.4760 -1.1201 -0.3612
17351TIP3   OH273543   6.216   2.437   0.828  0.1532  0.5336  0.3849
17351TIP3    H173544   6.291   2.451   0.886  2.6319  0.1022 -2.4876
17351TIP3    H273545   6.211   2.342   0.817 -2.0674  0.3842  1.9057
17352TIP3   OH273546   0.303   1.367  12.981  0.1280  0.0305  0.3046
17352TIP3    H173547   0.319   1.280  13.017  0.4179 -0.1827 -0.3207
17352TIP3    H273548   0.290   1.352  12.887 -1.1396  0.5112  0.3913
17353TIP3   OH273549   5.096   6.125  17.022  0.0207 -0.0333 -0.2928
17353TIP3    H173550   5.025   6.151  16.964 -1.3109  0.9326  1.6458
17353TIP3    H273551   5.146   6.061  16.972 -1.7609 -0.1714 -2.0167
17354TIP3   OH273552   4.945   5.183  14.709  0.1545  0.1115 -0.2893
17354TIP3    H173553   4.969   5.124  14.780 -1.0219  0.4617  0.4440
17354TIP3    H273554   4.867   5.229  14.742 -0.1509  0.6106 -1.6294
17355TIP3   OH273555   5.233   4.737  11.313 -0.2570  0.1203  0.1283
17355TIP3    H173556   5.246   4.770  11.225 -0.6427 -0.2682 -0.0812
17355TIP3    H273557   5.243   4.642  11.305 -1.6955 -0.0697  0.2171
17356TIP3   OH273558   1.683   1.397  14.538 -0.1536  0.0465  0.0437
17356TIP3    H173559   1.760   1.380  14.484 -1.0820  0.4684 -1.4746
17356TIP3    H273560   1.658   1.310  14.571  0.7507 -0.1418  0.2834
17357TIP3   OH273561   5.522   5.164   1.864  0.1735  0.5602  0.3187
17357TIP3    H173562   5.551   5.086   1.817 -0.3632  0.3176  0.3910
17357TIP3    H273563   5.437   5.141   1.900  0.3221  0.9421  0.9333
17358TIP3   OH273564   5.020   5.981   4.525  0.1725  0.2771  0.0356
17358TIP3    H173565   5.002   6.044   4.595  0.1825  1.0827 -0.6772
17358TIP3    H273566   4.938   5.934   4.513  0.8790 -1.8367  2.4726
17359TIP3   OH273567   0.971   1.622  10.379 -0.0767 -0.3163 -0.1500
17359TIP3    H173568   1.052   1.665  10.353  0.3501 -0.4860  0.8399
17359TIP3    H273569   0.999   1.545  10.428 -0.8079  0.3458  1.3851
17360TIP3   OH273570   2.827   2.826  14.292  0.1365 -0.1864  0.0618
17360TIP3    H173571   2.839   2.772  14.370  0.8084 -1.9783 -1.2090
17360TIP3    H273572   2.826   2.763  14.220 -0.1776  1.4372 -1.4088
17361TIP3   OH273573   0.311   3.548   4.697  0.5968  0.5013 -0.6235
17361TIP3    H173574   0.216   3.543   4.705  0.5451 -0.7790 -1.6530
17361TIP3    H273575   0.345   3.503   4.775  0.2562 -2.5218 -2.0626
17362TIP3   OH273576   0.966   2.477   3.937 -0.3362 -0.1321  0.1663
17362TIP3    H173577   0.883   2.523   3.949 -0.3856 -0.2284  0.1849
17362TIP3    H273578   0.990   2.446   4.024 -1.2642 -1.8290 -0.1434
17363TIP3   OH273579   5.951   3.882  15.267 -0.0642  0.5842 -0.2078
17363TIP3    H173580   5.933   3.801  15.220  0.4668  0.3038  0.0669
17363TIP3    H273581   6.044   3.879  15.287  0.0385  1.4521 -0.5374
17364TIP3   OH273582   1.992   3.328  11.250 -0.1529  0.3204 -0.1782
17364TIP3    H173583   1.907   3.344  11.291  0.1962 -0.1300  0.7680
17364TIP3    H273584   1.988   3.237  11.222  0.4580 -0.1086  1.0437
17365TIP3   OH273585   0.936   4.779   3.476  0.1963 -0.0202  0.9491
17365TIP3    H173586   0.843   4.758   3.487 -0.1814  0.7711 -0.5409
17365TIP3    H273587   0.981   4.719   3.536 -1.3120  0.1762  2.3697
17366TIP3   OH273588   1.454   3.078  14.320 -0.2220 -0.0574  0.4031
17366TIP3    H173589   1.483   2.992  14.289 -0.3602  0.0145  0.0661
17366TIP3    H273590   1.425   3.123  14.241 -0.0461  0.3422  0.5648
17367TIP3   OH273591   5.050   1.419  16.376 -0.5113  0.4721 -0.0268
17367TIP3    H173592   5.056   1.451  16.286  0.5692 -1.7553 -0.8397
17367TIP3    H273593   5.116   1.350  16.381 -1.5086 -0.4230  2.0642
17368TIP3   OH273594   0.773   4.606   0.642  0.1520 -0.6243  0.3338
17368TIP3    H173595   0.824   4.545   0.589  0.3609 -0.2393  0.0824
17368TIP3    H273596   0.771   4.686   0.589  0.9320 -0.0099  1.2026
17369TIP3   OH273597   5.995   2.314   5.587 -1.2452  0.3587  0.0240
17369TIP3    H173598   5.959   2.287   5.671 -1.8929 -0.4438 -0.4940
17369TIP3    H273599   6.089   2.323   5.602 -1.0893 -1.5811  0.3934
17370TIP3   OH273600   5.210   5.220   1.630  0.6064  0.5761  0.0726
17370TIP3    H173601   5.162   5.219   1.713  2.1414  0.6432  0.9988
17370TIP3    H273602   5.227   5.128   1.610 -0.1797  0.5312 -0.4429
17371TIP3   OH273603   0.225   4.748   4.710  0.3280 -0.7327  0.1160
17371TIP3    H173604   0.135   4.771   4.685  0.5692  1.4401  1.0538
17371TIP3    H273605   0.214   4.686   4.782 -0.4925  0.6575  1.2454
17372TIP3   OH273606   1.989   0.320  17.082  0.3394 -0.5537 -0.2517
17372TIP3    H173607   2.041   0.391  17.044  0.9745  0.0840  1.7004
17372TIP3    H273608   2.049   0.274  17.141 -1.1865  0.1099  1.9645
17373TIP3   OH273609   5.412   0.239  11.660  0.4176  0.0456  0.6071
17373TIP3    H173610   5.352   0.283  11.599 -1.1485 -2.3646  0.3016
17373TIP3    H273611   5.497   0.278  11.641 -0.5983  1.7652 -0.7420
17374TIP3   OH273612   0.671   6.661  15.940 -0.6783 -0.4287  0.7062
17374TIP3    H173613   0.763   6.689  15.942 -0.6765 -0.3710  3.2326
17374TIP3    H273614   0.632   6.713  15.870  1.0768 -0.0626 -0.0645
17375TIP3   OH273615   5.055   3.863   3.587  0.0448 -0.2764 -0.2877
17375TIP3    H173616   4.986   3.928   3.595  0.2305 -0.1503  0.3471
17375TIP3    H273617   5.086   3.872   3.497 -1.4322 -1.0270 -0.9054
17376TIP3   OH273618   2.932   2.512   1.068  0.1387 -0.2835 -0.8181
17376TIP3    H173619   2.887   2.554   0.995 -1.2253  0.9277  0.6405
17376TIP3    H273620   2.975   2.583   1.114  0.8522 -1.0099 -0.3301
17377TIP3   OH273621   4.107   4.444  16.135  0.2225  0.2278  0.2828
17377TIP3    H173622   4.018   4.460  16.106 -0.3523 -0.1721  1.7649
17377TIP3    H273623   4.117   4.349  16.132  0.7008  0.2855 -0.1446
17378TIP3   OH273624   2.294   0.526  15.075  0.0843  0.1749  0.1227
17378TIP3    H173625   2.230   0.590  15.045 -0.1200 -1.0431 -2.3244
17378TIP3    H273626   2.242   0.449  15.098  0.5634 -0.6566 -1.4251
17379TIP3   OH273627   5.044   3.518  12.071  0.1685 -0.3285  0.3348
17379TIP3    H173628   4.977   3.560  12.017 -1.3979 -1.5549  1.2051
17379TIP3    H273629   5.017   3.426  12.075  1.3102 -0.6428  1.5963
17380TIP3   OH273630   2.630   1.819  12.845 -0.0161  0.1568 -0.8311
17380TIP3    H173631   2.707   1.762  12.850 -0.5639 -0.4763  2.1221
17380TIP3    H273632   2.632   1.854  12.756  3.9690  0.6039 -0.7331
17381TIP3   OH273633   6.740   6.201  14.263 -0.8402  0.0825  0.3912
17381TIP3    H173634   6.718   6.211  14.170  1.2751  0.9399 -0.0694
17381TIP3    H273635   6.661   6.164  14.302 -1.7455 -0.4093 -1.7601
17382TIP3   OH273636   4.765   5.688  12.437  0.0090 -0.0691 -0.0931
17382TIP3    H173637   4.685   5.735  12.414  0.1999 -0.0040 -0.6189
17382TIP3    H273638   4.835   5.736  12.393  0.7173  1.5909  2.5981
17383TIP3   OH273639   0.224   5.014   0.410 -0.0035 -0.0060  0.1811
17383TIP3    H173640   0.230   4.919   0.414 -1.1129 -0.0641  1.0452
17383TIP3    H273641   0.218   5.034   0.317 -1.2047 -0.9106  0.0318
17384TIP3   OH273642   2.206   1.897  15.197 -0.2392  0.0948  0.1792
17384TIP3    H173643   2.137   1.847  15.241  2.3714 -1.4924  2.8601
17384TIP3    H273644   2.250   1.833  15.141 -0.1614  0.7809 -0.5625
17385TIP3   OH273645   3.994   4.577  14.363  0.0184 -0.1059  0.1988
17385TIP3    H173646   3.992   4.654  14.420  1.4932  1.3940 -1.6466
17385TIP3    H273647   3.935   4.599  14.291  0.1882 -0.8676 -0.1868
17386TIP3   OH273648   2.948   1.949   2.448  0.0625  0.3920 -0.5822
17386TIP3    H173649   2.926   2.004   2.373 -1.3026 -1.9786 -2.0495
17386TIP3    H273650   3.017   1.891   2.417 -0.9177 -1.0073 -0.2624
17387TIP3   OH273651   5.866   2.933   3.651  0.4044  0.8360  0.2240
17387TIP3    H173652   5.931   3.002   3.662  0.7930  1.2851 -3.5477
17387TIP3    H273653   5.916   2.852   3.657  0.5847  1.0105  1.1737
17388TIP3   OH273654   3.262   4.658   1.889  0.1452  0.6924  0.3941
17388TIP3    H173655   3.187   4.679   1.834 -0.0886  1.0847  0.8504
17388TIP3    H273656   3.305   4.585   1.845 -0.2149  0.7973 -0.1382
17389TIP3   OH273657   2.255   1.823  12.452 -0.4049 -0.4588  0.2685
17389TIP3    H173658   2.174   1.873  12.464 -0.9600 -0.7689 -1.7931
17389TIP3    H273659   2.288   1.809  12.541 -2.4697 -0.0937  1.1507
17390TIP3   OH273660   6.416   1.516   2.193  0.1504  0.9214 -0.3176
17390TIP3    H173661   6.462   1.542   2.113  0.9030  0.4425 -0.0505
17390TIP3    H273662   6.484   1.511   2.260  0.0763 -1.6381 -0.3334
17391TIP3   OH273663   2.347   1.470   4.639  0.1744  0.1796  0.2071
17391TIP3    H173664   2.396   1.548   4.614 -0.3441 -0.0729 -1.7601
17391TIP3    H273665   2.255   1.494   4.627  0.0101 -0.7376 -0.5184
17392TIP3   OH273666   0.664   0.112   2.687  0.2511 -0.9610 -0.6010
17392TIP3    H173667   0.712   0.166   2.749  2.0260 -2.2396 -0.8121
17392TIP3    H273668   0.619   0.175   2.630 -2.6768  0.2973  2.7388
17393TIP3   OH273669   1.326   5.675   2.471  0.4676 -0.7384 -0.4750
17393TIP3    H173670   1.365   5.728   2.541  0.8022 -0.3451 -0.9564
17393TIP3    H273671   1.368   5.706   2.391 -0.0333 -1.0734 -0.8731
17394TIP3   OH273672   1.429   1.921   2.068  0.2437 -0.3092 -0.1364
17394TIP3    H173673   1.499   1.866   2.031  1.8144  1.3937  0.1743
17394TIP3    H273674   1.403   1.978   1.996  0.8300  0.6220  0.3674
17395TIP3   OH273675   0.652   4.049   1.692  0.2688  0.4081  0.1617
17395TIP3    H173676   0.584   4.115   1.703 -1.4818 -1.1200 -0.9488
17395TIP3    H273677   0.644   3.993   1.770  1.4664  1.1962  0.8919
17396TIP3   OH273678   0.711   3.294  14.602 -0.3406  0.2652 -0.3548
17396TIP3    H173679   0.689   3.385  14.584 -1.4503  0.0517 -0.1444
17396TIP3    H273680   0.718   3.253  14.516 -1.5281  0.1766 -0.4221
17397TIP3   OH273681   1.434   1.725   4.118 -0.1357  0.0971 -0.2738
17397TIP3    H173682   1.382   1.746   4.196  1.2811 -0.0864  0.7441
17397TIP3    H273683   1.521   1.758   4.136  0.4474 -0.7032 -1.4387
17398TIP3   OH273684   3.747   1.632  12.004  0.2824  0.0072  0.2042
17398TIP3    H173685   3.770   1.540  12.014  0.6727 -0.1267 -1.6342
17398TIP3    H273686   3.669   1.643  12.059  0.8914 -1.1204  1.3441
17399TIP3   OH273687   6.655   1.205   5.320  0.4271 -0.2888 -0.1376
17399TIP3    H173688   6.705   1.284   5.298  1.2672 -0.9175 -0.5457
17399TIP3    H273689   6.582   1.205   5.258  0.7866 -0.1748 -0.5636
17400TIP3   OH273690   5.154   0.384   3.379 -0.6251 -0.0257 -0.0361
17400TIP3    H173691   5.204   0.359   3.301 -0.5796 -0.5044  0.1366
17400TIP3    H273692   5.167   0.478   3.388 -0.6018  0.0244 -0.5844
17401TIP3   OH273693   4.607   5.001  11.356  0.5351 -0.0826 -0.0050
17401TIP3    H173694   4.626   4.911  11.331 -0.3390 -0.1623 -0.4265
17401TIP3    H273695   4.688   5.033  11.396  1.6299 -0.3354 -1.8983
17402TIP3   OH273696   2.260   6.383   1.675 -0.5183  0.2908  0.2125
17402TIP3    H173697   2.300   6.369   1.589 -0.4284 -0.1368  0.3211
17402TIP3    H273698   2.242   6.477   1.678 -1.4918  0.1592 -0.6954
17403TIP3   OH273699   3.922   4.434   1.056  0.5567 -0.4567 -0.3070
17403TIP3    H173700   4.003   4.474   1.087  0.4212  0.3226 -0.9146
17403TIP3    H273701   3.857   4.504   1.061 -0.0078 -0.9898 -0.1103
17404TIP3   OH273702   4.589   1.387   1.812 -0.5654  0.0065  0.1892
17404TIP3    H173703   4.643   1.375   1.733 -1.0390  1.2253 -0.3331
17404TIP3    H273704   4.499   1.388   1.779 -0.7699  0.4687  0.7602
17405TIP3   OH273705   0.423   4.211  13.169 -0.3024 -0.1625 -0.2501
17405TIP3    H173706   0.442   4.126  13.129 -0.2266  0.9486 -2.7187
17405TIP3    H273707   0.367   4.189  13.244  1.2113 -2.5092  0.3071
17406TIP3   OH273708   3.072   1.445   3.358  0.0740  0.1901  0.1071
17406TIP3    H173709   3.052   1.433   3.451 -0.0492  0.4389  0.1150
17406TIP3    H273710   3.003   1.504   3.326 -0.2909 -0.4529 -0.3047
17407TIP3   OH273711   1.700   0.263  12.986 -0.1185 -0.3767  0.3432
17407TIP3    H173712   1.717   0.343  13.036 -0.2359  0.6374 -1.1690
17407TIP3    H273713   1.750   0.195  13.031  2.6719  1.1879 -0.1697
17408TIP3   OH273714   0.010   6.106   6.072 -0.2610  0.5822 -0.1134
17408TIP3    H173715   0.013   6.194   6.035 -0.4126  1.1112  1.1013
17408TIP3    H273716   0.056   6.113   6.156  1.2501 -0.8864 -0.7628
17409TIP3   OH273717   2.211   1.465  12.556 -0.4785  0.6854 -0.1092
17409TIP3    H173718   2.176   1.382  12.586  0.1250  0.5350  0.1771
17409TIP3    H273719   2.238   1.511  12.635  3.2050 -0.6290 -0.4201
17410TIP3   OH273720   2.665   6.627   6.470 -0.0775  0.0451 -0.2156
17410TIP3    H173721   2.633   6.639   6.559 -2.2441  1.8599 -1.1493
17410TIP3    H273722   2.745   6.679   6.466  1.0834 -1.5250  1.1106
17411TIP3   OH273723   4.673   3.641  11.531 -0.2686 -0.2373  0.2195
17411TIP3    H173724   4.671   3.572  11.598  0.1989 -1.6737 -1.1949
17411TIP3    H273725   4.738   3.610  11.467  0.1689  1.6755 -0.3105
17412TIP3   OH273726   3.998   6.763  16.352  0.0124 -0.1735  0.2161
17412TIP3    H173727   3.920   6.768  16.407 -0.7208  0.5493 -0.8313
17412TIP3    H273728   4.048   6.842  16.374 -1.0645  0.9725 -1.2199
17413TIP3   OH273729   0.500   4.158   4.082 -0.0250 -0.5960  0.3840
17413TIP3    H173730   0.468   4.211   4.156 -2.3464 -1.7801  0.3256
17413TIP3    H273731   0.548   4.220   4.027 -1.5284  1.1773  0.9685
17414TIP3   OH273732   1.516   5.255   2.478 -0.1717 -0.3048 -0.1307
17414TIP3    H173733   1.531   5.342   2.513 -2.2360 -0.1284  0.4675
17414TIP3    H273734   1.423   5.238   2.495 -0.6191 -1.3485 -3.0026
17415TIP3   OH273735   2.044   1.290  13.513  0.1038 -0.7719  0.3397
17415TIP3    H173736   2.045   1.383  13.535 -0.8522 -0.5979 -0.2836
17415TIP3    H273737   1.977   1.252  13.571 -1.4200 -0.5630 -1.1951
17416TIP3   OH273738   5.725   3.793  14.126  0.1683 -0.0302 -0.2566
17416TIP3    H173739   5.701   3.886  14.126  1.6413  0.3762  0.1708
17416TIP3    H273740   5.641   3.747  14.118 -0.7489  1.3069  1.0411
17417TIP3   OH273741   4.723   3.763   4.469  0.1810  0.0261 -0.3728
17417TIP3    H173742   4.637   3.799   4.447 -0.5983 -1.4464  0.1524
17417TIP3    H273743   4.734   3.688   4.411  1.1167  0.1766 -0.4116
17418TIP3   OH273744   5.455   1.928  10.671 -0.5512  0.3251 -0.6208
17418TIP3    H173745   5.541   1.969  10.682 -0.1534 -0.4070 -0.9677
17418TIP3    H273746   5.409   1.946  10.753 -0.3550  1.3716 -0.7157
17419TIP3   OH273747   6.744   4.403   6.270  0.0286  0.5269 -0.0614
17419TIP3    H173748   6.712   4.398   6.360  0.0877  3.7781  0.2563
17419TIP3    H273749   6.786   4.318   6.255 -0.5058 -0.3452  2.7523
17420TIP3   OH273750   1.352   6.360  16.910 -0.1903  0.5816 -0.0553
17420TIP3    H173751   1.408   6.285  16.933 -1.4171 -0.1198  0.7950
17420TIP3    H273752   1.412   6.425  16.875  1.2483  0.1078  1.4145
17421TIP3   OH273753   2.618   3.506  13.598  0.3799 -0.9689 -0.2349
17421TIP3    H173754   2.678   3.536  13.666  1.1684  0.2416 -1.3948
17421TIP3    H273755   2.554   3.452  13.643  0.1561  0.7665  1.6399
17422TIP3   OH273756   5.225   6.568  14.150 -0.0825 -0.1839 -0.1189
17422TIP3    H173757   5.267   6.646  14.185 -0.0960  0.6082 -1.7663
17422TIP3    H273758   5.272   6.550  14.068 -1.1687 -0.9023 -0.6121
17423TIP3   OH273759   6.355   5.538   4.085 -0.8748  0.0376  0.4213
17423TIP3    H173760   6.260   5.531   4.088 -0.9355  0.9881  1.2226
17423TIP3    H273761   6.378   5.512   3.996 -1.9550  0.5313 -0.0207
17424TIP3   OH273762   5.945   6.497  15.368 -0.4384 -0.2407  0.9974
17424TIP3    H173763   5.883   6.530  15.303 -0.2485 -0.3965  0.7300
17424TIP3    H273764   5.965   6.408  15.337 -0.3785 -0.3296  1.2946
17425TIP3   OH273765   2.559   3.837   2.949 -0.2800 -0.1581 -0.2534
17425TIP3    H173766   2.501   3.762   2.945 -1.4144  0.6733  0.0093
17425TIP3    H273767   2.630   3.811   3.007  0.4217 -1.7143 -1.7298
17426TIP3   OH273768   1.252   0.861   5.118  0.6672  0.6135 -0.0818
17426TIP3    H173769   1.158   0.841   5.113  0.4458  1.3047  1.1050
17426TIP3    H273770   1.293   0.779   5.144  0.1930  0.7276  1.0418
17427TIP3   OH273771   3.273   5.158   4.991  0.8391  0.8724 -0.0047
17427TIP3    H173772   3.333   5.233   4.983  1.6564  0.5753  2.6334
17427TIP3    H273773   3.303   5.111   5.068 -0.5237 -1.4446 -0.7976
17428TIP3   OH273774   1.516   1.384   2.848  0.5445  0.1505 -0.4324
17428TIP3    H173775   1.546   1.420   2.764 -1.7291 -0.3345 -1.5191
17428TIP3    H273776   1.454   1.449   2.881 -2.0012 -1.6413 -1.3856
17429TIP3   OH273777   2.546   1.487  12.766  0.5742 -0.0518 -0.0853
17429TIP3    H173778   2.541   1.514  12.675 -1.2184 -1.4011 -0.4437
17429TIP3    H273779   2.490   1.548  12.814  1.2999  0.4888  0.0988
17430TIP3   OH273780   6.218   1.535  11.147  0.1821 -0.6106 -0.7279
17430TIP3    H173781   6.302   1.492  11.132  0.1341 -1.2055  0.5366
17430TIP3    H273782   6.153   1.472  11.117  0.1679  0.1462 -2.3983
17431TIP3   OH273783   5.812   3.305   5.120 -0.4029 -0.0890 -0.0137
17431TIP3    H173784   5.851   3.231   5.074  0.1619  0.6309 -0.7411
17431TIP3    H273785   5.718   3.297   5.103 -0.2024  0.2142 -1.4254
17432TIP3   OH273786   6.808   0.625   1.120  0.1059  0.2890 -0.1591
17432TIP3    H173787   6.827   0.534   1.099  1.2427  0.2744  0.8370
17432TIP3    H273788   6.758   0.621   1.202 -0.2596  0.5440 -0.3655
17433TIP3   OH273789   0.083   2.947   3.444 -0.3221 -0.8658 -0.4887
17433TIP3    H173790   0.064   2.993   3.526  0.7460  2.7260 -2.0398
17433TIP3    H273791   0.177   2.929   3.449 -0.7266 -3.0663  0.0899
17434TIP3   OH273792   2.732   1.976   5.312 -0.0636  0.2266 -0.0563
17434TIP3    H173793   2.677   2.034   5.261 -0.7644  1.8551  2.3870
17434TIP3    H273794   2.679   1.897   5.325  0.4564 -0.5793 -2.4362
17435TIP3   OH273795   3.791   0.174   0.549 -0.2972  0.2047 -0.3024
17435TIP3    H173796   3.854   0.217   0.606 -0.2372 -0.9191  0.5247
17435TIP3    H273797   3.842   0.104   0.506 -1.0627 -1.0974  0.8211
17436TIP3   OH273798   0.702   5.279  14.223  0.2658 -0.5542  0.5233
17436TIP3    H173799   0.607   5.290  14.221  0.3146  0.4743  2.2579
17436TIP3    H273800   0.716   5.187  14.199 -1.2119 -0.9551  1.0634
17437TIP3   OH273801   6.606   0.976  13.132 -0.2833 -0.3226  0.1714
17437TIP3    H173802   6.627   0.890  13.170 -2.0648 -0.3480  1.1736
17437TIP3    H273803   6.544   1.015  13.193 -0.3368  1.2532 -0.8320
17438TIP3   OH273804   2.037   5.648   2.478 -0.3105 -0.0280  0.1928
17438TIP3    H173805   2.017   5.687   2.563 -0.1176  2.5088 -0.8406
17438TIP3    H273806   2.130   5.665   2.465  0.1524 -2.1629  0.2616
17439TIP3   OH273807   2.931   4.703   2.058 -0.0432  0.5021 -0.2886
17439TIP3    H173808   2.918   4.628   2.000  2.5278 -1.0657  0.9855
17439TIP3    H273809   2.984   4.764   2.006  0.5334  0.0198 -0.2719
17440TIP3   OH273810   2.313   3.517  14.841 -1.2779  0.0832  0.1584
17440TIP3    H173811   2.306   3.508  14.936  1.3072 -0.3753  0.3676
17440TIP3    H273812   2.372   3.591  14.828  1.0230 -1.7930 -0.9381
17441TIP3   OH273813   5.144   2.695  10.833 -0.2073 -0.3828  0.5884
17441TIP3    H173814   5.199   2.619  10.812  0.3087  0.8888 -3.7481
17441TIP3    H273815   5.054   2.662  10.830  0.0724 -1.1223  0.1108
17442TIP3   OH273816   4.675   5.863   4.296  0.2242  0.0620  0.0263
17442TIP3    H173817   4.685   5.824   4.209  1.1642 -1.5053  0.7833
17442TIP3    H273818   4.619   5.939   4.282 -0.1366 -0.4923 -1.8516
17443TIP3   OH273819   3.438   6.050   1.120 -0.3096  0.0611  0.1099
17443TIP3    H173820   3.468   6.015   1.036 -1.3792  0.0116 -0.2651
17443TIP3    H273821   3.513   6.100   1.153 -0.0402  0.4866 -1.0929
17444TIP3   OH273822   1.040   6.690  14.582 -0.1240 -0.3733  0.0288
17444TIP3    H173823   1.102   6.661  14.649  0.0350 -1.3788 -0.5360
17444TIP3    H273824   1.056   6.784  14.574 -0.9460 -0.0027  2.2038
17445TIP3   OH273825   1.053   2.114  15.959  0.1794 -0.4184 -0.0099
17445TIP3    H173826   1.063   2.028  16.000  1.5734  0.0177  0.6185
17445TIP3    H273827   1.014   2.095  15.874 -1.2071 -1.5011  0.8256
17446TIP3   OH273828   3.770   1.807  13.610 -0.3826  0.5486 -0.0179
17446TIP3    H173829   3.800   1.724  13.647  2.2542  0.6871 -1.5602
17446TIP3    H273830   3.766   1.791  13.515 -0.4353  1.9874 -0.2822
17447TIP3   OH273831   0.925   5.760  12.056  0.2593  0.0131  0.2288
17447TIP3    H173832   1.001   5.788  12.108 -0.7016  0.7137  1.2872
17447TIP3    H273833   0.888   5.687  12.105  0.2501 -0.3510 -0.3090
17448TIP3   OH273834   5.221   0.263  13.578  0.6225  0.6877 -0.6386
17448TIP3    H173835   5.244   0.195  13.515 -1.2454 -0.1805 -0.4507
17448TIP3    H273836   5.125   0.264  13.578  0.5813  1.3619  1.4590
17449TIP3   OH273837   4.941   0.611   0.940  0.4044  0.3974  0.0155
17449TIP3    H173838   5.003   0.655   0.998  0.5011 -1.8531  1.7646
17449TIP3    H273839   4.991   0.539   0.901 -0.9419 -1.2913  1.2424
17450TIP3   OH273840   0.764   6.453  10.771 -0.1437  0.7951 -0.5733
17450TIP3    H173841   0.679   6.491  10.793  0.3964  1.9125 -0.2973
17450TIP3    H273842   0.808   6.521  10.720  0.8678  0.5474 -0.0729
17451TIP3   OH273843   6.411   1.084   5.268 -0.4077 -0.3343  0.4636
17451TIP3    H173844   6.363   1.037   5.336 -0.5927  1.2251  1.4727
17451TIP3    H273845   6.453   1.016   5.216  1.5021 -1.6104  3.3925
17452TIP3   OH273846   2.120   6.778   4.888  0.1222 -0.0647  0.5422
17452TIP3    H173847   2.107   6.750   4.798 -0.5730 -0.0929  0.6441
17452TIP3    H273848   2.056   6.849   4.901  0.8696  0.5907  0.7246
17453TIP3   OH273849   0.802   4.328   0.988  0.2263 -0.0205  0.3867
17453TIP3    H173850   0.735   4.396   0.985  1.3215  1.1594  1.6948
17453TIP3    H273851   0.754   4.248   1.009 -1.2906 -0.0245 -2.4927
17454TIP3   OH273852   4.945   0.143   1.717  0.5310  0.5557  0.1189
17454TIP3    H173853   4.941   0.108   1.806  0.5966  0.6073  0.1419
17454TIP3    H273854   4.862   0.117   1.677  0.4671  0.6036  0.2209
17455TIP3   OH273855   1.303   3.141   0.745 -0.1211  0.3639  0.1498
17455TIP3    H173856   1.308   3.127   0.839 -0.4657 -0.5371  0.0418
17455TIP3    H273857   1.357   3.219   0.729  0.5093  0.1064  0.9932
17456TIP3   OH273858   5.571   4.508  11.711 -0.0545  0.8614  0.6772
17456TIP3    H173859   5.504   4.447  11.741  1.2651 -1.7672 -1.2837
17456TIP3    H273860   5.641   4.501  11.776  1.1960 -1.8901 -0.8107
17457TIP3   OH273861   1.700   3.485   6.566 -0.9253  0.6403 -0.2524
17457TIP3    H173862   1.744   3.494   6.482 -0.6668 -0.1220 -0.2075
17457TIP3    H273863   1.769   3.464   6.628 -1.2853 -0.1834 -0.1104
17458TIP3   OH273864   3.587   5.104  16.575  0.3338  0.4553 -0.1988
17458TIP3    H173865   3.634   5.127  16.496 -1.1261  0.2867 -1.1611
17458TIP3    H273866   3.621   5.164  16.642  0.7297  1.4269 -1.2367
17459TIP3   OH273867   4.633   2.982  11.622  0.4551 -0.1010  0.0986
17459TIP3    H173868   4.725   3.008  11.622  1.5101 -3.3192  1.1122
17459TIP3    H273869   4.612   2.970  11.715 -0.9638  0.3820 -0.1336
17460TIP3   OH273870   4.359   5.764  11.675  0.1457  0.3624 -0.4934
17460TIP3    H173871   4.443   5.728  11.704 -1.4872 -1.2930  2.6570
17460TIP3    H273872   4.330   5.819  11.747 -1.1122  1.6491 -1.9079
17461TIP3   OH273873   4.026   5.525  15.565 -0.1968  0.0670  0.4486
17461TIP3    H173874   4.005   5.441  15.525  0.1640 -0.5036  1.4293
17461TIP3    H273875   4.121   5.534  15.552 -0.2076  0.2459  0.4917
17462TIP3   OH273876   4.674   0.958   1.338 -0.3292 -0.0837  0.1712
17462TIP3    H173877   4.617   0.924   1.269 -0.2170 -1.0118  0.5199
17462TIP3    H273878   4.713   0.880   1.378 -0.6698  0.4138  1.5292
17463TIP3   OH273879   0.800   1.937   0.672  0.1124  0.1441 -0.0484
17463TIP3    H173880   0.789   1.929   0.767 -1.4403 -1.6652 -0.3349
17463TIP3    H273881   0.889   1.905   0.656 -0.1769 -1.0691  0.6542
17464TIP3   OH273882   0.221   5.937   5.965 -0.2087  0.3181 -0.2401
17464TIP3    H173883   0.131   5.970   5.974 -0.5191 -0.7093  0.4811
17464TIP3    H273884   0.263   5.960   6.048  0.5117  1.6519 -0.9276
17465TIP3   OH273885   2.424   4.229   2.360 -0.4123 -0.1675  0.4437
17465TIP3    H173886   2.507   4.262   2.324  0.3970 -1.5090  1.0160
17465TIP3    H273887   2.357   4.270   2.306  0.6948 -0.9739 -1.6706
17466TIP3   OH273888   1.184   3.576   1.935  0.0178 -0.1143 -0.0384
17466TIP3    H173889   1.209   3.503   1.991 -0.3284 -1.4412 -1.5409
17466TIP3    H273890   1.239   3.567   1.858 -0.5061  0.8214 -0.5350
17467TIP3   OH273891   4.002   0.872  13.903 -0.6450  0.1336 -0.8327
17467TIP3    H173892   4.026   0.871  13.810 -2.2678  0.8598 -1.3128
17467TIP3    H273893   3.963   0.959  13.915 -4.3906 -1.4075 -0.6083
17468TIP3   OH273894   2.594   5.365   0.205  0.3172 -0.5253 -0.4325
17468TIP3    H173895   2.616   5.398   0.292  1.1391 -1.3793 -0.2982
17468TIP3    H273896   2.586   5.443   0.150 -2.1110  0.1975  0.7797
17469TIP3   OH273897   1.180   3.648  13.272  0.2875  0.1243  0.6599
17469TIP3    H173898   1.246   3.641  13.203 -0.0114  0.9960  0.2703
17469TIP3    H273899   1.128   3.725  13.247  0.0847  0.3629  1.7834
17470TIP3   OH273900   3.192   6.708  14.522 -0.2485 -0.0720 -0.1918
17470TIP3    H173901   3.255   6.672  14.460  0.5398  1.0568 -0.0705
17470TIP3    H273902   3.116   6.731  14.468 -1.1484 -2.6531 -0.1573
17471TIP3   OH273903   0.720   4.298   5.103 -0.3089 -0.4076 -0.1368
17471TIP3    H173904   0.797   4.294   5.158  1.1699  2.2902 -1.8051
17471TIP3    H273905   0.655   4.346   5.155  0.6668  1.0913 -0.2602
17472TIP3   OH273906   5.546   3.704  15.488  0.0167  0.4948  0.1431
17472TIP3    H173907   5.525   3.701  15.581 -0.5389  0.6430  0.0202
17472TIP3    H273908   5.642   3.706  15.486  0.2662 -3.2917  0.6411
17473TIP3   OH273909   6.216   3.794  15.225  0.1484 -0.0182 -0.4592
17473TIP3    H173910   6.206   3.744  15.145 -0.5285  0.2974 -0.5734
17473TIP3    H273911   6.281   3.861  15.204 -0.5834  0.5338 -0.9681
17474TIP3   OH273912   1.339   5.717  11.334  0.4713  0.6146  0.3059
17474TIP3    H173913   1.317   5.767  11.256  0.9883 -0.0661 -0.2947
17474TIP3    H273914   1.261   5.663  11.351 -0.1150  1.6387  0.9996
17475TIP3   OH273915   0.338   3.496   1.424 -0.0491 -0.1389 -0.1473
17475TIP3    H173916   0.384   3.503   1.340 -0.6836  0.9684 -0.4226
17475TIP3    H273917   0.405   3.514   1.490  0.1837  0.2036 -0.4748
17476TIP3   OH273918   2.979   2.548  15.103  0.0929 -0.1266 -0.3124
17476TIP3    H173919   2.977   2.477  15.167  2.5114  1.2523  1.4380
17476TIP3    H273920   3.020   2.510  15.026  0.9470 -0.7938  0.4485
17477TIP3   OH273921   2.229   5.987   5.896  0.0003  0.1068 -0.0619
17477TIP3    H173922   2.323   6.005   5.893 -0.2393  2.2754  2.0812
17477TIP3    H273923   2.198   6.011   5.809  1.1053  1.8590 -0.0310
17478TIP3   OH273924   1.241   1.132  11.569 -0.1350  0.1483 -0.2250
17478TIP3    H173925   1.272   1.085  11.491  1.0077  0.3042  0.1198
17478TIP3    H273926   1.182   1.071  11.613  2.5018 -1.6269  1.0501
17479TIP3   OH273927   6.740   5.469   0.531  1.2594 -0.1457  0.3808
17479TIP3    H173928   6.756   5.499   0.620  2.2613 -0.3664  0.2936
17479TIP3    H273929   6.793   5.390   0.522 -0.0295 -1.0033  0.0616
17480TIP3   OH273930   3.269   5.081   1.877 -0.1368 -0.0728  0.6925
17480TIP3    H173931   3.174   5.087   1.879 -0.0839  0.8015  1.3236
17480TIP3    H273932   3.299   5.161   1.920  0.9493  1.2747 -2.3331
17481TIP3   OH273933   1.056   2.729   1.903 -0.2688  0.1285 -0.1192
17481TIP3    H173934   1.006   2.728   1.822  1.4084  0.7023 -1.2257
17481TIP3    H273935   1.084   2.820   1.912  1.1164 -0.2945  0.0782
17482TIP3   OH273936   3.070   0.956   4.200  0.1075  0.5070 -0.6947
17482TIP3    H173937   3.145   0.947   4.142  0.8591  2.1750 -0.0548
17482TIP3    H273938   2.995   0.930   4.146  0.8267  1.5644 -2.2978
17483TIP3   OH273939   4.934   5.035   3.457  0.0904 -0.4197 -0.2069
17483TIP3    H173940   4.841   5.054   3.472  0.1517 -0.7792  0.6786
17483TIP3    H273941   4.933   4.952   3.409 -0.0658  0.0476 -1.0329
17484TIP3   OH273942   6.715   0.050   0.899 -0.3003 -0.2298  0.0576
17484TIP3    H173943   6.734   0.097   0.818  2.9960 -1.3475  0.0518
17484TIP3    H273944   6.699   0.119   0.963  0.2052  0.7602 -0.8520
17485TIP3   OH273945   3.531   1.403  13.410  0.0774 -0.0839  0.3325
17485TIP3    H173946   3.511   1.311  13.393 -0.2923  0.2486 -1.1331
17485TIP3    H273947   3.551   1.406  13.504 -1.1409 -1.4378  0.6730
17486TIP3   OH273948   4.136   0.400  14.890  0.3158 -0.5379 -0.2330
17486TIP3    H173949   4.065   0.373  14.948 -0.5244  0.4153 -0.7874
17486TIP3    H273950   4.116   0.358  14.806  0.4336 -0.3067 -0.3780
17487TIP3   OH273951   4.887   3.357  12.863  0.2942 -0.5413 -0.4802
17487TIP3    H173952   4.813   3.318  12.816  0.7029  0.7163 -2.3068
17487TIP3    H273953   4.892   3.446  12.828  2.1449 -0.3365  0.2240
17488TIP3   OH273954   3.846   0.986   5.012 -0.1507 -0.1202 -0.4133
17488TIP3    H173955   3.852   0.930   4.935  0.7463 -0.2091 -0.2925
17488TIP3    H273956   3.849   0.925   5.086  0.5318  0.0602 -0.2860
17489TIP3   OH273957   3.785   2.766   3.718 -0.1384  0.0346 -0.1440
17489TIP3    H173958   3.803   2.697   3.781 -0.4063  1.1776  1.2374
17489TIP3    H273959   3.791   2.723   3.632 -0.7372 -1.7758  0.6785
17490TIP3   OH273960   6.604   6.462  15.897  0.0776  0.6949  0.2841
17490TIP3    H173961   6.612   6.482  15.803 -0.0749  0.5342  0.2364
17490TIP3    H273962   6.523   6.412  15.903 -0.8003  2.0982  0.7237
17491TIP3   OH273963   6.835   0.194  12.976  0.2236  0.2770  0.2060
17491TIP3    H173964   6.762   0.249  12.949 -0.8646 -0.8920  0.7019
17491TIP3    H273965   6.910   0.226  12.925 -0.4142  2.0614  0.3377
17492TIP3   OH273966   6.316   3.323  13.071 -0.6903 -0.1122  0.2293
17492TIP3    H173967   6.259   3.395  13.097  0.6077  0.7898  0.6428
17492TIP3    H273968   6.372   3.309  13.147  0.7630  0.1496 -0.7660
17493TIP3   OH273969   3.933   2.221  14.379 -0.1830  0.4988  0.4092
17493TIP3    H173970   3.851   2.179  14.405  0.4451 -1.4807 -0.5740
17493TIP3    H273971   3.988   2.216  14.456 -0.4432  0.4039  0.5905
17494TIP3   OH273972   2.349   6.111   0.796  0.6238 -0.0521  0.3095
17494TIP3    H173973   2.425   6.158   0.832  0.4579  2.1664 -1.9444
17494TIP3    H273974   2.286   6.111   0.868  1.6731  0.7269  1.2832
17495TIP3   OH273975   3.160   0.789   5.905 -0.6083 -0.3134  0.2482
17495TIP3    H173976   3.084   0.748   5.864 -1.3273  1.3852 -0.1956
17495TIP3    H273977   3.235   0.754   5.857 -1.2688 -0.2871 -0.8392
17496TIP3   OH273978   3.371   0.372  14.281  0.3541 -0.4255 -0.4062
17496TIP3    H173979   3.457   0.409  14.262  0.3057 -0.5340 -0.8608
17496TIP3    H273980   3.310   0.443  14.264  0.3842 -0.1849  0.4306
17497TIP3   OH273981   4.830   4.951   3.105  0.0421  0.2025 -0.2202
17497TIP3    H173982   4.792   4.913   3.025  1.4757  0.8376 -1.2412
17497TIP3    H273983   4.754   4.982   3.155 -1.0075 -1.7732 -0.4854
17498TIP3   OH273984   0.858   4.672  15.920  0.1911  0.4148 -0.3439
17498TIP3    H173985   0.921   4.606  15.949  2.4496  3.0488  1.2965
17498TIP3    H273986   0.807   4.693  15.999  1.2391  2.3273 -0.1130
17499TIP3   OH273987   0.724   6.809   4.061 -0.1722  0.2917 -0.2614
17499TIP3    H173988   0.746   6.719   4.038  0.5445  0.3521  0.1518
17499TIP3    H273989   0.634   6.821   4.029  1.0344  0.7299 -4.0680
17500TIP3   OH273990   4.048   5.969  12.751 -0.4530  0.5037  0.5292
17500TIP3    H173991   4.102   5.910  12.699 -1.1966  0.8117 -0.6461
17500TIP3    H273992   4.111   6.023  12.800  0.2838  0.4230 -0.3099
17501TIP3   OH273993   0.583   2.169  12.628  0.0037 -0.3057 -0.0115
17501TIP3    H173994   0.643   2.102  12.594 -0.9203 -0.7332 -0.8734
17501TIP3    H273995   0.525   2.120  12.688 -1.3391 -0.5354 -1.4350
17502TIP3   OH273996   2.273   4.254  14.738  0.6252 -0.4251  0.3918
17502TIP3    H173997   2.259   4.249  14.833  0.1338 -0.6375  0.3095
17502TIP3    H273998   2.279   4.348  14.720 -0.9322 -0.3040  0.4046
17503TIP3   OH273999   0.089   6.742   0.549 -0.4444 -0.7940  0.6066
17503TIP3    H174000   0.157   6.710   0.609 -0.1223 -3.2646 -0.9697
17503TIP3    H274001   0.137   6.774   0.473 -0.9791 -0.7787  0.2721
17504TIP3   OH274002   3.421   5.287   1.052  0.7283  0.2580  0.7507
17504TIP3    H174003   3.344   5.343   1.041  0.8717  0.6103  1.4679
17504TIP3    H274004   3.492   5.348   1.070  1.5580  0.0834 -1.5919
17505TIP3   OH274005   6.839   3.965  11.450  0.2720  0.2455 -0.9809
17505TIP3    H174006   6.910   3.924  11.500 -0.1016 -0.9902 -1.4541
17505TIP3    H274007   6.838   4.056  11.482 -0.5371 -0.6855  1.9254
17506TIP3   OH274008   2.678   5.653   2.494 -0.1551 -0.0668 -0.0631
17506TIP3    H174009   2.652   5.566   2.464 -0.4537  0.5478 -1.6758
17506TIP3    H274010   2.596   5.697   2.515 -0.3743  1.1097 -3.0057
17507TIP3   OH274011   1.690   0.055   2.535  0.3477  0.0837 -0.6283
17507TIP3    H174012   1.677  -0.023   2.589  1.0166 -0.5401 -1.3552
17507TIP3    H274013   1.751   0.109   2.586 -0.3650  0.2901  0.0239
17508TIP3   OH274014   2.384   3.829  14.800 -0.0916 -0.0475 -0.2281
17508TIP3    H174015   2.356   3.791  14.717  0.2999 -0.8180 -0.0113
17508TIP3    H274016   2.385   3.924  14.783 -2.8779  0.0715 -0.2309
17509TIP3   OH274017   3.419   3.770   1.187 -0.2298  0.5657 -0.2229
17509TIP3    H174018   3.346   3.716   1.158  0.6618 -0.8556  0.0652
17509TIP3    H274019   3.447   3.818   1.109 -0.3547 -0.2145 -0.7512
17510TIP3   OH274020   3.521   4.254  15.681 -0.5248 -0.4880 -0.0853
17510TIP3    H174021   3.600   4.210  15.713 -0.7942 -0.0898  1.1590
17510TIP3    H274022   3.553   4.313  15.612  0.1158 -1.0984 -0.3157
17511TIP3   OH274023   1.616   4.115  13.261 -0.1145 -0.0863  0.4145
17511TIP3    H174024   1.687   4.074  13.312  0.0914 -0.1759  0.0586
17511TIP3    H274025   1.585   4.046  13.203 -1.7620 -0.6283  1.8344
17512TIP3   OH274026   4.520   1.044  10.924  0.2688  0.1100  0.7363
17512TIP3    H174027   4.612   1.049  10.898  0.0486 -1.3548 -0.4218
17512TIP3    H274028   4.487   1.134  10.912  1.0226  0.1929 -0.9335
17513TIP3   OH274029   0.851   3.322  12.810  0.2170 -0.2919  0.1646
17513TIP3    H174030   0.820   3.395  12.757 -0.6586 -1.6343 -1.2405
17513TIP3    H274031   0.921   3.282  12.758  0.8111 -0.3644  0.9933
17514TIP3   OH274032   6.270   3.680   6.436 -0.2585  0.3879  0.7371
17514TIP3    H174033   6.243   3.609   6.377 -0.3011  0.4820  0.6430
17514TIP3    H274034   6.252   3.760   6.387  3.6136  0.4685 -0.9155
17515TIP3   OH274035   2.153   1.727   5.308  0.4906  0.4054  0.5208
17515TIP3    H174036   2.156   1.717   5.403 -0.6374 -0.7400  0.4614
17515TIP3    H274037   2.172   1.820   5.294 -0.0025  0.7572  1.9135
17516TIP3   OH274038   4.401   5.934   4.334  0.2425 -0.2483 -0.5164
17516TIP3    H174039   4.379   5.948   4.242 -2.0162 -0.1652 -0.0249
17516TIP3    H274040   4.382   6.018   4.376  1.2596 -0.2823  0.0393
17517TIP3   OH274041   2.311   1.733   3.107  0.6528 -0.1046  0.2813
17517TIP3    H174042   2.338   1.809   3.055 -0.1003 -1.0147 -1.5679
17517TIP3    H274043   2.378   1.667   3.089 -0.4406 -0.9545 -0.9035
17518TIP3   OH274044   4.573   6.532  13.544 -0.2880  0.2640 -0.1773
17518TIP3    H174045   4.589   6.498  13.632 -0.9256 -1.8435 -0.8082
17518TIP3    H274046   4.658   6.566  13.516  0.3271 -0.4948  0.6835
17519TIP3   OH274047   5.410   4.631   0.090 -0.4484  0.1229  0.0736
17519TIP3    H174048   5.483   4.624   0.152  0.1698  1.2144 -0.5065
17519TIP3    H274049   5.332   4.626   0.145  0.0001 -1.9909  0.6156
17520TIP3   OH274050   4.078   0.226  14.682 -0.2666  0.3232 -0.0249
17520TIP3    H174051   4.046   0.265  14.601 -0.0763 -1.4258 -0.9978
17520TIP3    H274052   4.057   0.133  14.673  2.4237 -0.4223  0.5877
17521TIP3   OH274053   2.973   3.407  13.846  0.5303 -0.3803  0.2672
17521TIP3    H174054   2.940   3.495  13.829  1.1875  0.2494  2.0363
17521TIP3    H274055   3.009   3.378  13.762 -0.3460  0.7273 -0.5227
17522TIP3   OH274056   3.850   0.176   1.869 -0.2229  0.0095  0.6530
17522TIP3    H174057   3.791   0.250   1.856 -1.0048 -0.6497  0.4192
17522TIP3    H274058   3.927   0.197   1.816 -0.1091  1.0028  1.1762
17523TIP3   OH274059   6.796   1.193   4.729 -0.0444  0.1348  0.2462
17523TIP3    H174060   6.856   1.142   4.675 -0.1989 -2.3398  2.2288
17523TIP3    H274061   6.852   1.258   4.771  0.5054  0.4304 -0.8984
17524TIP3   OH274062   2.229   6.024   4.936 -0.0123  0.1475 -0.1894
17524TIP3    H174063   2.138   6.038   4.910  0.1410 -2.2661 -2.3971
17524TIP3    H274064   2.269   6.111   4.931 -1.3550  0.7104 -2.8631
17525TIP3   OH274065   4.166   5.802  12.246 -0.2733 -0.3189  0.1759
17525TIP3    H174066   4.139   5.894  12.251  0.1839 -0.2514  2.1455
17525TIP3    H274067   4.219   5.797  12.167  0.7704  1.4298  0.7257
17526TIP3   OH274068   0.601   4.294   2.545 -0.8071  0.3694 -0.0580
17526TIP3    H174069   0.571   4.241   2.619 -1.2957 -0.2653 -0.6968
17526TIP3    H274070   0.546   4.266   2.471  0.7076 -0.1436 -1.0387
17527TIP3   OH274071   4.292   0.160  14.215  0.5948  0.0890 -0.1579
17527TIP3    H174072   4.287   0.107  14.295  0.0941 -1.1347 -0.9591
17527TIP3    H274073   4.324   0.098  14.148 -0.0677  0.7887 -1.1446
17528TIP3   OH274074   6.351   4.216   2.911 -0.3277 -0.4586  0.4067
17528TIP3    H174075   6.444   4.201   2.930 -0.6782 -2.7734  0.5915
17528TIP3    H274076   6.306   4.145   2.956 -2.1388  0.1684 -0.3355
17529TIP3   OH274077   3.844   2.701  13.913  0.4571 -0.5447 -0.0601
17529TIP3    H174078   3.909   2.636  13.885 -0.0420 -0.6944 -0.8928
17529TIP3    H274079   3.763   2.676  13.868  0.7594  1.9073 -2.2431
17530TIP3   OH274080   6.162   1.894  10.358  0.1797  0.6187  0.0809
17530TIP3    H174081   6.073   1.928  10.365 -0.1572  0.0728 -1.2052
17530TIP3    H274082   6.208   1.956  10.301  0.0902 -0.0504 -0.7401
17531TIP3   OH274083   2.764   2.123   3.414  0.0805  0.6274  0.3725
17531TIP3    H174084   2.808   2.045   3.449  0.2997  0.3207 -0.5486
17531TIP3    H274085   2.792   2.194   3.470 -0.1012  0.0447  1.2225
17532TIP3   OH274086   4.695   1.037   3.332 -0.5797  0.4511 -0.5248
17532TIP3    H174087   4.781   1.000   3.309  0.9928  2.2503  1.9223
17532TIP3    H274088   4.672   1.091   3.257  0.4934  0.0627 -1.1628
17533TIP3   OH274089   1.961   1.448   5.504 -0.0992  0.5244 -0.2735
17533TIP3    H174090   2.003   1.501   5.436 -0.2557 -0.9401 -1.5821
17533TIP3    H274091   1.874   1.487   5.513  0.3902  1.5760  0.1016
17534TIP3   OH274092   3.281   2.622   5.207  0.0394  0.0276  0.5826
17534TIP3    H174093   3.249   2.702   5.164  0.5407  0.0027  0.1431
17534TIP3    H274094   3.312   2.567   5.135  0.3620 -0.2594  0.9344
17535TIP3   OH274095   2.210   4.340   5.567 -0.0177  0.3497 -0.2197
17535TIP3    H174096   2.245   4.331   5.656  0.3509 -2.3050 -0.5557
17535TIP3    H274097   2.163   4.258   5.551  0.4458  0.4876 -2.7107
17536TIP3   OH274098   1.269   5.705   5.228 -0.2151  0.5334  0.2149
17536TIP3    H174099   1.251   5.710   5.134  0.0923 -4.2708 -0.3661
17536TIP3    H274100   1.182   5.708   5.268 -0.9920 -2.7306 -0.8730
17537TIP3   OH274101   0.532   0.756  15.036 -0.3295  0.3562  0.1237
17537TIP3    H174102   0.454   0.742  15.090 -1.1890  1.1658 -0.8702
17537TIP3    H274103   0.539   0.851  15.028  0.5009  0.2822 -0.1830
17538TIP3   OH274104   5.762   5.309   1.582 -0.6981  0.4258  0.1314
17538TIP3    H174105   5.790   5.278   1.496  0.9068  0.3757  0.6461
17538TIP3    H274106   5.684   5.361   1.564  0.0545  1.0719 -1.4657
17539TIP3   OH274107   0.554   5.447  15.721  1.0820  0.0748 -0.2620
17539TIP3    H174108   0.572   5.526  15.668  0.6868 -0.3415 -1.0390
17539TIP3    H274109   0.459   5.447  15.731  1.1854  0.3635  0.8095
17540TIP3   OH274110   2.511   1.081   1.572 -0.0223  0.3705 -0.0780
17540TIP3    H174111   2.519   1.074   1.477 -0.4958  0.6846 -0.1428
17540TIP3    H274112   2.595   1.119   1.601  0.5096 -0.6345 -0.2605
17541TIP3   OH274113   1.275   5.993  14.588 -0.5650  0.1907  0.0104
17541TIP3    H174114   1.216   6.068  14.589  0.4242  0.9873  0.4596
17541TIP3    H274115   1.275   5.961  14.678 -1.1269 -0.4785 -0.2194
17542TIP3   OH274116   5.844   2.540   1.672 -0.0129  0.3312 -0.0967
17542TIP3    H174117   5.854   2.446   1.687  0.7426  0.1188 -1.7846
17542TIP3    H274118   5.868   2.580   1.756  0.7622 -0.9252  0.3000
17543TIP3   OH274119   0.985   4.137   4.250 -0.3455 -0.2123  0.0498
17543TIP3    H174120   0.936   4.115   4.171 -3.1924  2.7905  0.7670
17543TIP3    H274121   0.949   4.080   4.317 -0.7597 -0.0468 -0.0292
17544TIP3   OH274122   1.889   0.618   6.748 -0.0616  0.3724 -0.3443
17544TIP3    H174123   1.983   0.622   6.764 -0.2086  0.1049  0.6415
17544TIP3    H274124   1.870   0.525   6.737 -0.5867  0.1416  2.0273
17545TIP3   OH274125   4.822   6.111  15.362  0.8313  0.4491 -0.2341
17545TIP3    H174126   4.749   6.150  15.312 -0.2718 -0.6786  0.4509
17545TIP3    H274127   4.837   6.173  15.434 -0.5253 -0.0634  0.5227
17546TIP3   OH274128   5.447   0.344  11.914 -0.0031 -0.2074  0.6695
17546TIP3    H174129   5.372   0.401  11.930 -0.3989 -0.0811 -1.3139
17546TIP3    H274130   5.437   0.318  11.822  3.3114  1.2242 -0.2224
17547TIP3   OH274131   3.488   5.136  16.091 -0.3029  0.2200  0.6792
17547TIP3    H174132   3.509   5.190  16.015 -0.0222  0.1156  0.6815
17547TIP3    H274133   3.552   5.065  16.088 -0.0111  0.4527  1.2517
17548TIP3   OH274134   5.693   5.628   3.518  0.1020  0.1779  0.5203
17548TIP3    H174135   5.710   5.534   3.524 -0.4104 -0.0510 -1.0038
17548TIP3    H274136   5.717   5.663   3.603  1.3262 -1.1731  0.7567
17549TIP3   OH274137   0.067   5.271   3.649  0.5383 -0.1469  0.0280
17549TIP3    H174138   0.103   5.254   3.562  0.7504 -2.9961  0.5700
17549TIP3    H274139  -0.025   5.247   3.642  0.5665 -0.4341  0.5740
17550TIP3   OH274140   2.853   2.155  14.353  0.1869 -0.3292  0.1602
17550TIP3    H174141   2.806   2.234  14.326 -1.7018 -1.1554  0.8421
17550TIP3    H274142   2.844   2.154  14.448 -0.3001 -1.6485  0.1095
17551TIP3   OH274143   1.327   2.942  17.055 -0.0782 -0.4169  0.3228
17551TIP3    H174144   1.318   3.011  17.120  2.5167  0.8346 -0.5057
17551TIP3    H274145   1.337   2.862  17.106 -0.3171  0.2067  1.3770
17552TIP3   OH274146   5.697   5.887   1.419 -0.3610  0.2427  0.4262
17552TIP3    H174147   5.729   5.940   1.492  0.2286 -1.0965  1.1666
17552TIP3    H274148   5.735   5.929   1.341  0.1832  0.8372  0.9933
17553TIP3   OH274149   5.707   4.288  12.070 -0.1027 -0.5627  0.2798
17553TIP3    H174150   5.748   4.246  12.146 -0.2954  1.2988  1.4688
17553TIP3    H274151   5.701   4.380  12.094 -3.9845 -0.5255 -0.2397
17554TIP3   OH274152   3.845   1.630   0.042 -0.7190  0.0093 -0.3504
17554TIP3    H174153   3.753   1.652   0.050 -1.3693 -2.5497  0.1537
17554TIP3    H274154   3.854   1.595  -0.047 -0.5158 -0.7903 -0.0251
17555TIP3   OH274155   2.688   2.722   3.290  0.0566  0.2935  0.1963
17555TIP3    H174156   2.642   2.693   3.369 -0.5881 -3.4837 -1.3557
17555TIP3    H274157   2.769   2.760   3.322 -0.8433  0.2757  2.7090
17556TIP3   OH274158   6.406   5.526   5.563 -0.1604 -0.1266  0.2191
17556TIP3    H174159   6.367   5.439   5.564 -0.0365 -0.1912 -0.3677
17556TIP3    H274160   6.332   5.585   5.547  0.0478 -0.3011 -1.5972
17557TIP3   OH274161   3.465   5.681   1.523  0.4715  0.2245  0.2522
17557TIP3    H174162   3.424   5.685   1.609 -0.8649  0.2813 -0.3506
17557TIP3    H274163   3.463   5.772   1.492  0.4737  0.1258 -0.0376
17558TIP3   OH274164   1.004   5.919   0.323  0.2407  0.4750 -0.5581
17558TIP3    H174165   0.959   5.990   0.369  0.3884  1.1604 -1.4329
17558TIP3    H274166   1.082   5.900   0.375  0.3212  1.1223 -0.4430
17559TIP3   OH274167   4.371   3.948  15.460 -0.1396  0.1923  0.5812
17559TIP3    H174168   4.326   3.890  15.399 -0.4420 -1.7476  2.5071
17559TIP3    H274169   4.456   3.907  15.475 -0.0578  0.6393  1.4193
17560TIP3   OH274170   1.033   0.329  14.010  0.0580 -1.0794  0.3132
17560TIP3    H174171   1.059   0.330  13.918  0.1397 -1.6260  0.3249
17560TIP3    H274172   0.938   0.315  14.007  0.2878 -2.8734  0.3295
17561TIP3   OH274173   2.500   1.151   5.566  0.4179 -0.0725 -0.4688
17561TIP3    H174174   2.555   1.219   5.605 -0.7711 -0.5841  2.3599
17561TIP3    H274175   2.556   1.073   5.566  1.1585  0.4098 -1.9889
17562TIP3   OH274176   4.479   2.381  12.833 -0.3595 -0.4507  0.2977
17562TIP3    H174177   4.446   2.339  12.753 -0.6080 -1.3027  0.8255
17562TIP3    H274178   4.495   2.472  12.808  1.7163 -1.1830 -1.3389
17563TIP3   OH274179   3.536   0.884   2.237 -0.0152  0.1948  0.2762
17563TIP3    H174180   3.557   0.809   2.292 -1.2260 -0.3387  0.0461
17563TIP3    H274181   3.519   0.847   2.150  0.4390  0.8577 -0.1059
17564TIP3   OH274182   1.007   1.170   5.677  0.6636  0.4208  0.7774
17564TIP3    H174183   1.003   1.260   5.709  1.9843  0.6280  0.3968
17564TIP3    H274184   0.957   1.172   5.595  1.3744  1.0012  0.3471
17565TIP3   OH274185   6.433   0.801   5.423  0.3803  0.3757 -0.1119
17565TIP3    H174186   6.455   0.799   5.330  0.0926  0.3460 -0.1827
17565TIP3    H274187   6.386   0.719   5.437  0.8044  0.1778  0.1592
17566TIP3   OH274188   1.911   5.571  12.028  0.3747  0.3935  0.2011
17566TIP3    H174189   1.894   5.524  11.947  1.4431  1.8188 -0.9042
17566TIP3    H274190   1.931   5.502  12.092  0.0484 -0.7317 -0.8781
17567TIP3   OH274191   1.957   6.685  16.816  0.4404 -0.4276 -0.7092
17567TIP3    H174192   2.022   6.633  16.863  0.9147 -0.1232 -1.0227
17567TIP3    H274193   1.956   6.769  16.863 -1.0546 -1.0341  0.4289
17568TIP3   OH274194   2.640   0.913  16.880  0.3032  0.2524 -0.0679
17568TIP3    H174195   2.597   0.868  16.953 -0.3061  1.1773  0.1677
17568TIP3    H274196   2.571   0.921  16.814  0.5952  0.2445 -0.3722
17569TIP3   OH274197   0.415   6.571   3.915  0.2046 -0.9536  0.2424
17569TIP3    H174198   0.353   6.502   3.893 -0.1250 -0.6201  0.1253
17569TIP3    H274199   0.377   6.615   3.990 -0.6114  0.3921 -0.9006
17570TIP3   OH274200   0.796   2.054  16.195  0.1453  0.4845  0.2419
17570TIP3    H174201   0.803   1.963  16.226  0.9040 -0.1655 -1.7033
17570TIP3    H274202   0.702   2.070  16.193 -0.0258 -0.4220  0.2037
17571TIP3   OH274203   4.549   5.991   5.859  0.1256 -0.2077  0.0178
17571TIP3    H174204   4.522   5.905   5.825  1.0983 -0.8355  0.7956
17571TIP3    H274205   4.514   5.993   5.948 -0.9819  0.7470 -0.4117
17572TIP3   OH274206   2.980   5.895  12.446  0.3547 -0.3463  0.3709
17572TIP3    H174207   3.053   5.857  12.496  1.4561  2.3652  1.0195
17572TIP3    H274208   2.902   5.874  12.498  1.0124 -1.0328  1.1048
17573TIP3   OH274209   3.499   6.304  16.718 -0.2559 -0.6947  0.0458
17573TIP3    H174210   3.481   6.267  16.805 -1.1513  0.1073  0.2219
17573TIP3    H274211   3.583   6.266  16.693  0.5861 -0.0647  1.7423
17574TIP3   OH274212   1.479   2.747   4.039 -0.4050  0.1502 -0.0698
17574TIP3    H174213   1.385   2.744   4.021 -0.0219 -1.0654 -2.2132
17574TIP3    H274214   1.520   2.727   3.955  1.7714  0.0292  0.9545
17575TIP3   OH274215   5.176   0.322  16.573  0.5307  0.2982 -0.3526
17575TIP3    H174216   5.158   0.334  16.480 -1.2378  0.8467  0.0305
17575TIP3    H274217   5.100   0.275  16.607  1.1502  0.1061  0.8220
17576TIP3   OH274218   4.094   3.048   5.529 -0.3266  0.4274 -0.4340
17576TIP3    H174219   4.056   3.035   5.615  1.5562 -0.2546  0.3409
17576TIP3    H274220   4.021   3.082   5.475 -1.6970  0.2089  1.2092
17577TIP3   OH274221   4.747   5.380   6.133  0.9031  0.0352 -0.0264
17577TIP3    H174222   4.784   5.292   6.129 -2.8135 -1.6701 -2.1563
17577TIP3    H274223   4.694   5.379   6.213 -2.3271 -1.3543 -1.9613
17578TIP3   OH274224   0.942   1.943  13.491 -0.2076 -0.0459  0.6455
17578TIP3    H174225   1.032   1.974  13.503 -0.9131  2.4404 -0.0172
17578TIP3    H274226   0.930   1.940  13.396 -1.1746  0.7692  0.7305
17579TIP3   OH274227   3.688   1.619   5.672 -0.3956  0.1446  0.0022
17579TIP3    H174228   3.783   1.615   5.659 -0.3255  0.1532  0.4964
17579TIP3    H274229   3.654   1.648   5.587  0.1324  1.1156  0.1007
17580TIP3   OH274230   1.310   2.856  14.960  0.3808 -0.5421  0.5965
17580TIP3    H174231   1.288   2.912  15.034  0.1864 -0.7508  0.6951
17580TIP3    H274232   1.227   2.817  14.934  0.5552 -0.9598  0.6691
17581TIP3   OH274233   1.824   0.498  14.634  0.3652 -0.0082 -0.1032
17581TIP3    H174234   1.784   0.422  14.676  0.9777 -0.7049 -0.7628
17581TIP3    H274235   1.863   0.464  14.554  0.2394  1.0867 -0.6578
17582TIP3   OH274236   6.088   5.278  11.824 -0.3209  0.0175  0.0138
17582TIP3    H174237   6.154   5.249  11.762  0.1667  1.2483 -0.0762
17582TIP3    H274238   6.111   5.369  11.843 -0.8170 -0.1402  1.5239
17583TIP3   OH274239   1.965   3.058  16.298  0.0514  0.0925  0.1815
17583TIP3    H174240   1.946   3.122  16.367  0.3324 -0.4886  0.8120
17583TIP3    H274241   1.882   3.014  16.282  0.0884 -0.0982  0.4978
17584TIP3   OH274242   1.870   0.382   3.406  0.6119  0.3616  0.2293
17584TIP3    H174243   1.806   0.329   3.453  2.0780 -1.0559  0.7148
17584TIP3    H274244   1.824   0.464   3.388 -1.4068 -0.6812  0.3216
17585TIP3   OH274245   1.120   3.688   5.113 -0.1299  0.1021  0.3664
17585TIP3    H174246   1.056   3.752   5.080 -1.3768 -0.8463  0.8512
17585TIP3    H274247   1.113   3.693   5.208 -0.9299 -1.3684  0.4172
17586TIP3   OH274248   0.424   5.427  14.500  0.1600 -0.0020 -0.2922
17586TIP3    H174249   0.337   5.426  14.458  0.6168  1.4088 -1.3232
17586TIP3    H274250   0.447   5.334  14.508 -0.9731 -0.3713 -1.0170
17587TIP3   OH274251   4.640   5.792   3.358  0.2243 -1.0262 -0.3708
17587TIP3    H174252   4.552   5.822   3.383  0.9688  0.9136  0.0970
17587TIP3    H274253   4.625   5.734   3.284 -1.4377 -0.4689 -0.5158
17588TIP3   OH274254   3.151   3.500  14.625 -0.0681  0.3741 -0.4135
17588TIP3    H174255   3.059   3.488  14.601  0.2626 -2.9675 -0.5466
17588TIP3    H274256   3.178   3.413  14.655  2.5276  1.7430  1.5402
17589TIP3   OH274257   0.646   0.776   3.434 -0.2727 -0.1193  0.2018
17589TIP3    H174258   0.663   0.686   3.407 -2.4394 -0.0533 -1.6849
17589TIP3    H274259   0.684   0.830   3.364  1.8098  0.5701  1.7458
17590TIP3   OH274260   3.595   3.479  16.037  0.0917 -0.3560 -0.0920
17590TIP3    H174261   3.537   3.481  15.961 -2.3581 -2.3538  1.5245
17590TIP3    H274262   3.633   3.391  16.036  2.0864  0.4687 -0.3571
17591TIP3   OH274263   3.787   4.566   2.758  0.2085  0.3722  0.3560
17591TIP3    H174264   3.753   4.553   2.846  1.0261  1.4722  0.8556
17591TIP3    H274265   3.715   4.608   2.711  0.2713  1.1301  0.9212
17592TIP3   OH274266   3.030   6.593   0.574  0.5116 -0.3077 -0.2233
17592TIP3    H174267   3.006   6.609   0.482 -0.5678 -2.3744 -0.3350
17592TIP3    H274268   3.114   6.546   0.568  1.7249  1.6931 -0.0088
17593TIP3   OH274269   1.299   3.693  15.941  0.9138  0.0280 -0.2506
17593TIP3    H174270   1.373   3.743  15.975  1.5259 -0.2073 -1.1963
17593TIP3    H274271   1.333   3.603  15.933  0.7726  0.0706 -1.4062
17594TIP3   OH274272   1.174   2.236   2.176 -0.3379  0.0131 -0.0857
17594TIP3    H174273   1.224   2.155   2.191 -0.8474 -0.3715 -0.4388
17594TIP3    H274274   1.241   2.303   2.163  0.0905 -0.2683  0.6448
17595TIP3   OH274275   1.278   0.301  13.769  0.1533 -0.0188 -0.3203
17595TIP3    H174276   1.347   0.242  13.800 -0.5567 -0.7054 -0.0160
17595TIP3    H274277   1.207   0.243  13.742 -0.3025  0.6780 -0.6540
17596TIP3   OH274278   2.331   0.204  16.354 -0.3101  0.5607 -0.0932
17596TIP3    H174279   2.385   0.270  16.397 -0.3900  0.0552  0.8227
17596TIP3    H274280   2.338   0.127  16.411 -1.6269  0.3366 -0.1929
17597TIP3   OH274281   0.285   2.094  17.180 -0.3431  0.3653 -0.1117
17597TIP3    H174282   0.366   2.075  17.131  0.2919  2.6077 -0.0525
17597TIP3    H274283   0.286   2.032  17.253 -0.5376 -2.0427 -2.0277
17598TIP3   OH274284   4.289   6.453   4.552  0.0527 -0.1235 -0.6712
17598TIP3    H174285   4.196   6.437   4.543  0.4198 -1.8733 -1.7487
17598TIP3    H274286   4.305   6.534   4.503 -0.8350  0.0376 -0.6983
17599TIP3   OH274287   2.515   3.128   4.511 -0.0623  0.2046 -0.2552
17599TIP3    H174288   2.562   3.173   4.581  1.8379  0.0904 -1.3864
17599TIP3    H274289   2.523   3.035   4.533 -0.0601  0.2012 -0.2706
17600TIP3   OH274290   0.437   4.451   3.996  0.1684  0.4531 -1.5537
17600TIP3    H174291   0.532   4.437   3.989  0.5149  1.7715 -0.0825
17600TIP3    H274292   0.423   4.539   3.962 -0.2203  1.0007 -0.0870
17601TIP3   OH274293   5.801   5.571   1.358 -0.4958 -0.1596 -0.3252
17601TIP3    H174294   5.732   5.634   1.337  1.0015  0.6464 -3.4910
17601TIP3    H274295   5.858   5.617   1.420 -0.5571  0.8304 -0.9773
17602TIP3   OH274296   0.894   5.577  13.504  0.1016  0.0365 -0.0062
17602TIP3    H174297   0.912   5.593  13.411  4.1086  0.3046  0.6624
17602TIP3    H274298   0.805   5.610  13.516 -1.4234 -1.8357 -4.0949
17603TIP3   OH274299   1.190   2.615  15.353  0.0723 -0.3674 -0.5517
17603TIP3    H174300   1.160   2.690  15.302 -0.6491  0.1178  0.5496
17603TIP3    H274301   1.184   2.541  15.292  0.7082  0.4247 -1.6265
17604TIP3   OH274302   0.085   2.601   3.652 -0.7608 -0.1114  0.0341
17604TIP3    H174303   0.001   2.592   3.607 -0.5826 -1.1911 -0.1157
17604TIP3    H274304   0.136   2.525   3.623  0.7357  1.1590 -0.8571
17605TIP3   OH274305   0.808   3.522   1.864 -0.4328  0.6131  0.0431
17605TIP3    H174306   0.769   3.439   1.892  1.1136 -0.7501 -1.5703
17605TIP3    H274307   0.741   3.563   1.810 -0.8414 -0.1009 -0.0040
17606TIP3   OH274308   1.428   2.024  11.202 -0.2481  0.4577 -0.7757
17606TIP3    H174309   1.352   1.976  11.169  0.6380 -1.2172 -0.4822
17606TIP3    H274310   1.482   2.040  11.124 -0.5450  0.9972 -0.8739
17607TIP3   OH274311   2.858   1.226   2.762  0.1264 -0.0824 -0.0896
17607TIP3    H174312   2.917   1.168   2.810 -1.4648 -1.2998  0.5123
17607TIP3    H274313   2.811   1.168   2.702 -1.2646  0.6183  0.2859
17608TIP3   OH274314   1.450   6.739   3.554  0.3255 -0.2389  0.1937
17608TIP3    H174315   1.402   6.810   3.597  0.3371 -0.1681  0.0912
17608TIP3    H274316   1.401   6.660   3.576  2.0847 -0.6663  3.0391
17609TIP3   OH274317   0.543   1.987  12.858  0.1472 -0.4324 -0.4422
17609TIP3    H174318   0.630   1.969  12.892  0.1209 -0.4274 -0.3713
17609TIP3    H274319   0.517   1.906  12.813  0.9161  0.1737 -2.0244
17610TIP3   OH274320   5.275   5.432   5.362  0.2212 -0.0289 -0.3051
17610TIP3    H174321   5.298   5.486   5.286  0.2660 -1.1008 -1.0782
17610TIP3    H274322   5.354   5.429   5.415  0.6869 -0.5676 -1.0223
17611TIP3   OH274323   6.573   1.020   3.854  1.0953 -0.0172  0.3619
17611TIP3    H174324   6.478   1.032   3.864  0.7051 -1.4575 -1.2329
17611TIP3    H274325   6.594   0.950   3.916  1.0249 -0.0200  0.3835
17612TIP3   OH274326   0.866   4.299   3.222 -0.4575 -0.3132 -0.8540
17612TIP3    H174327   0.898   4.340   3.142 -0.1074  0.2814 -0.4138
17612TIP3    H274328   0.778   4.335   3.234 -0.5330 -0.4457 -0.9912
17613TIP3   OH274329   5.173   6.025   1.496 -0.2419  0.0180 -0.2440
17613TIP3    H174330   5.100   6.002   1.554 -0.4465 -1.1942 -0.9416
17613TIP3    H274331   5.189   5.945   1.446  0.9877  0.5481 -0.7286
17614TIP3   OH274332   5.374   0.675   5.660  0.3860 -0.0778 -0.0299
17614TIP3    H174333   5.315   0.749   5.675  0.8406  0.5522 -1.2363
17614TIP3    H274334   5.355   0.615   5.732 -0.2721  1.0272  0.7522
17615TIP3   OH274335   1.395   0.834  16.410  0.1334 -0.1984  0.6231
17615TIP3    H174336   1.329   0.903  16.411  0.1961 -0.1324  0.4256
17615TIP3    H274337   1.400   0.803  16.500 -1.4383 -1.4201  0.3354
17616TIP3   OH274338   2.328   0.530  16.125  0.2608  0.0361  0.3217
17616TIP3    H174339   2.301   0.567  16.209 -0.2859 -0.7072  0.4904
17616TIP3    H274340   2.410   0.485  16.143  0.3960  0.2963  0.3496
17617TIP3   OH274341   1.735   0.195   0.992  0.1897 -0.4516 -0.0258
17617TIP3    H174342   1.743   0.108   0.954  2.5767 -0.2443 -0.1284
17617TIP3    H274343   1.731   0.180   1.087 -2.0623 -0.7542 -0.1083
17618TIP3   OH274344   4.915   6.111   0.752  0.1427 -0.3594 -0.6497
17618TIP3    H174345   5.000   6.067   0.760  0.5507  0.4695 -0.2571
17618TIP3    H274346   4.911   6.168   0.829  0.1404  1.1063 -1.6911
17619TIP3   OH274347   6.586   1.766   3.396 -0.0577  0.2796 -0.1509
17619TIP3    H174348   6.593   1.676   3.429  1.9536  0.3446 -0.2732
17619TIP3    H274349   6.619   1.820   3.467 -1.0615  0.9316 -0.1604
17620TIP3   OH274350   5.077   5.192   3.643 -0.4936 -0.1033 -0.1405
17620TIP3    H174351   5.035   5.121   3.594  0.7633  0.3939 -2.0476
17620TIP3    H274352   5.170   5.170   3.641 -0.3260  0.3165  1.4801
17621TIP3   OH274353   6.818   0.356   4.156 -0.1390 -0.0056  0.0756
17621TIP3    H174354   6.790   0.317   4.238 -0.1557  0.5155  0.3222
17621TIP3    H274355   6.855   0.284   4.106 -0.4271 -0.3847  0.4101
17622TIP3   OH274356   5.628   0.307   5.382  0.2126  0.4854 -0.1339
17622TIP3    H174357   5.590   0.223   5.360  1.5399 -0.7254  1.8600
17622TIP3    H274358   5.556   0.356   5.423 -0.0216 -0.5823  0.7798
17623TIP3   OH274359   5.002   1.513   0.030  0.2029  0.0505 -0.2121
17623TIP3    H174360   4.945   1.536   0.103  1.4699 -0.0856  0.8506
17623TIP3    H274361   4.993   1.418   0.021  0.5623 -0.0258  0.2213
17624TIP3   OH274362   5.905   2.602  12.616 -0.2477 -0.3515 -0.0565
17624TIP3    H174363   5.828   2.581  12.563 -1.0398 -0.0010  0.9213
17624TIP3    H274364   5.876   2.591  12.707  0.3189  1.4818  0.3937
17625TIP3   OH274365   6.000   5.505  15.272  0.2887  0.3853 -0.6209
17625TIP3    H174366   6.014   5.590  15.231 -2.1344  2.8263  2.9913
17625TIP3    H274367   6.047   5.511  15.356 -0.7264 -1.4536  0.1323
17626TIP3   OH274368   3.191   2.241   0.220  0.1734 -0.3211 -0.8438
17626TIP3    H174369   3.140   2.304   0.170  1.1160  0.0202 -1.4118
17626TIP3    H274370   3.208   2.283   0.304  3.4539  1.6395 -2.2806
17627TIP3   OH274371   0.598   3.772  15.010 -0.1698  0.2924  0.2823
17627TIP3    H174372   0.555   3.857  15.012  1.6090  1.3051 -0.9935
17627TIP3    H274373   0.583   3.739  14.922  1.2217  0.5000 -0.0722
17628TIP3   OH274374   1.869   0.542  11.000  0.1194  0.3937 -0.2816
17628TIP3    H174375   1.904   0.623  11.037 -0.4876 -0.5157  2.5419
17628TIP3    H274376   1.934   0.515  10.935  1.3605  2.0654  0.1995
17629TIP3   OH274377   4.799   1.119  13.385 -0.0098  0.3798  0.8006
17629TIP3    H174378   4.746   1.088  13.312  1.2993  1.4286 -0.6573
17629TIP3    H274379   4.736   1.154  13.447 -1.1604 -0.5879  0.2179
17630TIP3   OH274380   2.015   2.345   0.130  0.4111  0.0111  0.1017
17630TIP3    H174381   1.919   2.347   0.136  0.4296 -0.8891  1.1965
17630TIP3    H274382   2.033   2.284   0.059  0.1988  2.3848 -2.1232
17631TIP3   OH274383   4.626   2.068  14.971 -0.1254  0.4150  0.0284
17631TIP3    H174384   4.555   2.110  14.921  0.0450  0.4563 -0.1793
17631TIP3    H274385   4.609   2.093  15.061 -1.5803 -1.2803  0.2767
17632TIP3   OH274386   4.188   0.380  16.348  0.2017  0.2781 -0.7502
17632TIP3    H174387   4.213   0.431  16.424 -1.1095  0.4938 -0.4516
17632TIP3    H274388   4.252   0.404  16.281  0.9928  0.5436  0.0799
17633TIP3   OH274389   1.494   4.406  15.949  0.2664 -0.0690  0.3606
17633TIP3    H174390   1.545   4.429  16.026  0.1144  1.3286  0.0614
17633TIP3    H274391   1.559   4.395  15.879  0.4056 -1.3521  0.6663
17634TIP3   OH274392   1.263   6.272   4.960  0.5057  0.1620 -0.8563
17634TIP3    H174393   1.270   6.249   5.053  1.0936  1.2851 -0.6063
17634TIP3    H274394   1.317   6.350   4.950 -0.7120  0.9240 -1.8336
17635TIP3   OH274395   0.255   5.913   3.327  0.2889  0.0706 -0.1160
17635TIP3    H174396   0.295   5.860   3.396  0.6359 -0.1597 -0.4841
17635TIP3    H274397   0.171   5.870   3.309  0.0967  0.2629  0.3170
17636TIP3   OH274398   5.019   5.629   1.280 -0.6179  0.3460 -0.8799
17636TIP3    H174399   5.080   5.572   1.234 -0.0684  0.0466  0.1910
17636TIP3    H274400   4.938   5.623   1.229 -0.7397 -1.8184 -0.5319
17637TIP3   OH274401   0.971   4.637   4.063 -0.0808 -0.1660  0.3192
17637TIP3    H174402   0.961   4.643   4.158  1.0723 -0.6758  0.4903
17637TIP3    H274403   1.038   4.702   4.042 -1.2625  0.8750 -0.3378
17638TIP3   OH274404   5.131   0.358   4.967 -0.4597  0.7600  0.0758
17638TIP3    H174405   5.183   0.330   5.043 -0.4309  1.1409  0.1981
17638TIP3    H274406   5.069   0.287   4.953  0.1164  0.2801 -0.0930
17639TIP3   OH274407   3.569   1.070   3.464 -0.1848  0.2684  0.2454
17639TIP3    H174408   3.563   1.102   3.374 -2.1939 -2.1643 -0.6241
17639TIP3    H274409   3.638   1.003   3.462  0.7337  1.1626  0.8977
17640TIP3   OH274410   3.755   5.018  12.250  0.1374  0.0817  0.3796
17640TIP3    H174411   3.838   4.975  12.272  0.5714  1.0275  0.6666
17640TIP3    H274412   3.765   5.043  12.158  0.5430  0.9952  0.6655
17641TIP3   OH274413   4.658   6.109   4.768  0.1076  0.2358 -0.0376
17641TIP3    H174414   4.728   6.070   4.820  1.7567  0.2295 -2.1192
17641TIP3    H274415   4.656   6.201   4.796  1.0269  0.2532  0.0035
17642TIP3   OH274416   0.069   2.955  11.796  0.0129  0.0484  0.1157
17642TIP3    H174417   0.108   2.886  11.849  2.0140  1.9574  1.2599
17642TIP3    H274418   0.086   2.927  11.705  1.0007 -0.8350  0.5499
17643TIP3   OH274419   0.110   3.639  15.316  0.0517 -0.4347  0.4660
17643TIP3    H174420   0.156   3.562  15.283 -0.7884 -0.7444 -0.0004
17643TIP3    H274421   0.065   3.675  15.240 -2.0982 -1.2869  1.2821
17644TIP3   OH274422   0.909   2.788  16.582 -0.4469  0.3229 -0.1387
17644TIP3    H174423   0.863   2.704  16.582 -0.3945  0.2949 -0.2474
17644TIP3    H274424   0.889   2.827  16.497 -1.8558  1.1701  0.5275
17645TIP3   OH274425   3.288   3.568  11.117 -0.1388  0.5144  0.1682
17645TIP3    H174426   3.277   3.649  11.167  0.5200  0.6557  0.0946
17645TIP3    H274427   3.369   3.529  11.151 -0.9486 -0.6121  0.8796
17646TIP3   OH274428   2.773   2.675   5.793 -0.4681  0.3349 -0.1824
17646TIP3    H174429   2.809   2.652   5.879 -0.9770  1.2421  0.2933
17646TIP3    H274430   2.699   2.732   5.813 -0.8252  0.2503 -1.2210
17647TIP3   OH274431   1.289   4.316  16.129  0.1394  0.4381 -0.3346
17647TIP3    H174432   1.352   4.347  16.064  1.9135 -0.0162  1.0736
17647TIP3    H274433   1.262   4.395  16.176 -0.0735  0.5890 -0.7058
17648TIP3   OH274434   6.106   0.281  14.025 -0.0616 -0.0771 -0.6140
17648TIP3    H174435   6.174   0.228  13.984  1.3937  0.7631  0.5881
17648TIP3    H274436   6.119   0.369  13.988  0.8825  0.5548  1.0753
17649TIP3   OH274437   5.762   5.401   2.263 -0.3815  0.0453  0.2754
17649TIP3    H174438   5.732   5.463   2.196  1.1402 -0.2775 -0.7251
17649TIP3    H274439   5.770   5.455   2.342  1.1990  1.2353 -0.6456
17650TIP3   OH274440   5.852   1.037   2.813  0.1233  0.4523  0.1784
17650TIP3    H174441   5.768   1.081   2.805  0.5163  1.3746  0.9769
17650TIP3    H274442   5.860   0.986   2.733 -1.6982 -0.5533  0.5679
17651TIP3   OH274443   4.821   2.170  11.278 -0.1886  0.3869 -0.1605
17651TIP3    H174444   4.760   2.229  11.323 -0.1974 -0.5573  1.1384
17651TIP3    H274445   4.858   2.223  11.207  1.4293  2.6742  2.1955
17652TIP3   OH274446   5.395   6.040  14.768  0.0805  0.0432  0.0725
17652TIP3    H174447   5.316   6.012  14.815  0.1520  1.9237  1.4220
17652TIP3    H274448   5.363   6.107  14.707  0.5063  0.1999  0.0218
17653TIP3   OH274449   5.988   5.783  16.094  0.9660 -0.0577 -0.7290
17653TIP3    H174450   5.946   5.704  16.061  0.7437 -0.8531  1.3275
17653TIP3    H274451   6.073   5.754  16.127  0.2674  0.1748  1.4725
17654TIP3   OH274452   4.272   0.412   5.418 -0.2677  0.2235  0.3369
17654TIP3    H174453   4.285   0.478   5.486 -2.8501  1.1112  0.0634
17654TIP3    H274454   4.346   0.424   5.359  1.6167 -0.0416  2.4818
17655TIP3   OH274455   3.036   6.146  10.971 -0.4264  0.4686 -0.0462
17655TIP3    H174456   3.074   6.234  10.977  1.8693 -0.3147 -1.6934
17655TIP3    H274457   3.107   6.092  10.938 -2.2094 -1.7499 -0.4586
17656TIP3   OH274458   2.989   5.815   5.855  0.0375 -0.6816  0.2646
17656TIP3    H174459   3.083   5.817   5.873 -0.3323 -2.2719  2.9174
17656TIP3    H274460   2.966   5.722   5.857 -1.8037 -0.2562  1.2217
17657TIP3   OH274461   3.119   3.876  15.960  0.1595  0.0030  0.9725
17657TIP3    H174462   3.033   3.889  16.001 -0.4128  0.9963 -0.4768
17657TIP3    H274463   3.160   3.962  15.962  0.5493 -0.1688  0.4098
17658TIP3   OH274464   6.560   1.276   3.728 -0.4130  0.1338 -0.1194
17658TIP3    H174465   6.580   1.191   3.767 -2.5518 -0.1492  0.4867
17658TIP3    H274466   6.580   1.265   3.635  1.5420 -0.2453  0.2989
17659TIP3   OH274467   3.460   0.007  14.293 -0.0113 -0.5023 -0.6028
17659TIP3    H174468   3.540   0.052  14.263 -0.3154  0.3031 -0.2378
17659TIP3    H274469   3.465   0.012  14.388  0.7230 -2.6462 -0.4879
17660TIP3   OH274470   2.806   1.257  11.720  0.0499  0.8459 -0.0731
17660TIP3    H174471   2.714   1.253  11.745 -0.4019 -1.3549 -1.7868
17660TIP3    H274472   2.848   1.186  11.770  0.1387 -0.2163 -1.5776
17661TIP3   OH274473   4.475   0.789   0.853 -0.3977  0.0066 -0.0391
17661TIP3    H174474   4.477   0.745   0.938  1.4517  0.3494  0.1362
17661TIP3    H274475   4.567   0.797   0.828 -0.8960 -0.5117 -2.3131
17662TIP3   OH274476   5.637   6.088  14.367  0.3361  0.2356 -0.4185
17662TIP3    H174477   5.720   6.109  14.324  0.4057 -0.0344 -0.4160
17662TIP3    H274478   5.651   6.002  14.407  0.1082  0.2598 -0.2816
17663TIP3   OH274479   4.362   1.369  12.094 -0.4263  0.2207 -0.3109
17663TIP3    H174480   4.273   1.346  12.068 -0.6663  1.6432 -0.8195
17663TIP3    H274481   4.372   1.460  12.069  1.4480 -0.1162 -0.9616
17664TIP3   OH274482   6.708   3.667  12.873 -0.0878 -0.7020 -0.0742
17664TIP3    H174483   6.653   3.653  12.950  2.5583 -0.9181  1.9271
17664TIP3    H274484   6.700   3.760  12.854 -1.2731 -0.7706  0.0075
17665TIP3   OH274485   1.204   6.759  15.667 -0.4630  0.4263  0.4891
17665TIP3    H174486   1.123   6.790  15.708  0.0115  0.8770  1.0966
17665TIP3    H274487   1.204   6.664  15.682 -0.5358  0.5188  1.1195
17666TIP3   OH274488   0.200   3.302  16.840  0.1589  0.3056 -0.1392
17666TIP3    H174489   0.267   3.267  16.781 -0.0894 -0.9111  0.2736
17666TIP3    H274490   0.152   3.365  16.786  1.5739  1.1630 -0.4548
17667TIP3   OH274491   3.692   4.721  13.158  0.1574 -0.0185  0.3657
17667TIP3    H174492   3.783   4.736  13.181  0.3742  0.1199 -0.5419
17667TIP3    H274493   3.664   4.802  13.116  0.0003 -0.5148 -0.5091
17668TIP3   OH274494   0.643   3.017   4.598 -0.4002 -0.3162 -0.0982
17668TIP3    H174495   0.630   2.942   4.540  0.6802  0.0802 -0.8947
17668TIP3    H274496   0.704   3.074   4.550 -1.1464  1.0513  0.4970
17669TIP3   OH274497   0.779   0.368  11.477 -0.2840  0.4467 -0.2406
17669TIP3    H174498   0.720   0.411  11.539 -0.3976 -0.5436  0.3695
17669TIP3    H274499   0.739   0.380  11.392 -2.3043 -1.6563  0.3271
17670TIP3   OH274500   2.793   4.869  14.451  0.7237  0.4948  0.3461
17670TIP3    H174501   2.855   4.898  14.518 -0.3388 -0.3835  1.7663
17670TIP3    H274502   2.721   4.932  14.456 -0.0959 -0.4656  1.1966
17671TIP3   OH274503   5.355   1.145  15.680  0.0757  0.2106 -0.1007
17671TIP3    H174504   5.272   1.100  15.664 -0.7560  1.9389 -0.9960
17671TIP3    H274505   5.331   1.238  15.682  1.9212  0.7170  0.1848
17672TIP3   OH274506   0.503   5.090  15.230 -0.2148  0.2957  0.0620
17672TIP3    H174507   0.586   5.067  15.188 -0.7689  0.2724 -1.0471
17672TIP3    H274508   0.465   5.157  15.173 -2.6875 -2.2997 -1.5609
17673TIP3   OH274509   4.096   3.486   3.053  0.1507 -0.1183 -0.1374
17673TIP3    H174510   4.091   3.398   3.091  2.7518  0.3934  1.5926
17673TIP3    H274511   4.020   3.532   3.089  1.3195 -0.3216  2.8494
17674TIP3   OH274512   2.684   0.153  13.560 -0.1191 -0.2933  1.0476
17674TIP3    H174513   2.734   0.080  13.596  1.1420 -0.0426 -0.1154
17674TIP3    H274514   2.732   0.179  13.481 -1.1940  1.0282  0.7834
17675TIP3   OH274515   6.376   2.566   4.610  0.1914 -0.1554 -0.3937
17675TIP3    H174516   6.361   2.602   4.697  0.8347  0.7521 -0.6378
17675TIP3    H274517   6.421   2.483   4.626  2.0338  0.8883  0.1169
17676TIP3   OH274518   3.405   2.682  13.380 -0.4972  0.3260  0.1059
17676TIP3    H174519   3.380   2.738  13.306 -0.5762 -0.8158 -0.7719
17676TIP3    H274520   3.334   2.617  13.385  1.1797 -1.7316 -1.0967
17677TIP3   OH274521   2.701   3.430  17.114 -0.1988  0.6727 -0.1112
17677TIP3    H174522   2.691   3.512  17.066  0.5314  1.1287  0.4963
17677TIP3    H274523   2.611   3.402  17.132 -0.4597  1.0314 -0.8272
17678TIP3   OH274524   0.148   4.230  15.761 -0.3045  0.1978  0.0649
17678TIP3    H174525   0.193   4.194  15.838  1.8124  0.2235 -1.1048
17678TIP3    H274526   0.061   4.254  15.794 -0.1257 -1.5208  2.0033
17679TIP3   OH274527   4.128   2.907   0.286  1.2390 -0.2207 -0.5269
17679TIP3    H174528   4.164   2.992   0.309  1.2068 -0.8049  2.0662
17679TIP3    H274529   4.065   2.925   0.216  2.8196  1.5169 -1.5803
17680TIP3   OH274530   6.674   4.517  14.494  0.0285  0.8256  0.4963
17680TIP3    H174531   6.642   4.461  14.564 -0.4974  1.2482  0.5965
17680TIP3    H274532   6.650   4.472  14.413  0.4863  0.4226  0.5819
17681TIP3   OH274533   0.577   4.561  10.723  0.6372 -0.0778  0.3056
17681TIP3    H174534   0.510   4.524  10.666  1.2719 -2.1897  0.8504
17681TIP3    H274535   0.652   4.578  10.664  0.7710 -0.8385  0.2541
17682TIP3   OH274536   4.449   2.403  10.560 -0.0907  0.2403 -0.3314
17682TIP3    H174537   4.545   2.404  10.561  0.0287 -2.2071 -2.0722
17682TIP3    H274538   4.425   2.486  10.517  1.1372  1.4276  1.1493
17683TIP3   OH274539   0.804   5.265   4.054  0.4862 -0.2660 -0.0633
17683TIP3    H174540   0.820   5.173   4.030  0.6779 -0.1221 -0.4945
17683TIP3    H274541   0.777   5.306   3.972  0.0586 -0.0131  0.2024
17684TIP3   OH274542   5.208   6.616   3.115 -0.4177 -0.7056 -0.2837
17684TIP3    H174543   5.115   6.621   3.093 -0.7618 -1.0624  1.0325
17684TIP3    H274544   5.223   6.691   3.173  0.1563 -0.5677 -0.5970
17685TIP3   OH274545   6.815   0.716   3.418 -0.5102 -0.2110 -0.0809
17685TIP3    H174546   6.862   0.778   3.363  1.3956 -2.2516 -0.9411
17685TIP3    H274547   6.767   0.770   3.481  0.0084  2.1031 -1.5609
17686TIP3   OH274548   1.522   0.651  11.395 -0.1290 -0.0288  0.2340
17686TIP3    H174549   1.547   0.586  11.328  1.5414 -0.8982  1.6130
17686TIP3    H274550   1.463   0.711  11.349  1.1572 -0.4143 -2.1113
17687TIP3   OH274551   6.682   3.992   1.234 -0.5930  0.3724  0.4959
17687TIP3    H174552   6.715   4.022   1.149  1.9743 -0.7038  1.0277
17687TIP3    H274553   6.593   3.961   1.215 -0.2440  0.5415 -1.7173
17688TIP3   OH274554   5.404   0.493   5.859 -0.1430  0.7879 -0.1527
17688TIP3    H174555   5.445   0.472   5.943  1.4024  0.2689 -1.0045
17688TIP3    H274556   5.342   0.421   5.845 -2.0498  1.9951  1.5284
17689TIP3   OH274557   3.095   3.727   4.588 -0.1291 -0.4808 -0.1878
17689TIP3    H174558   3.088   3.806   4.534  1.0166  0.0039  0.3106
17689TIP3    H274559   3.166   3.748   4.649  0.1332 -1.8787  0.0061
17690TIP3   OH274560   4.003   3.611   1.310  0.4115 -0.1970 -0.1234
17690TIP3    H174561   3.994   3.584   1.219  0.8471 -0.2997 -0.1356
17690TIP3    H274562   3.961   3.697   1.313  1.4277  0.3368 -0.6819
17691TIP3   OH274563   2.983   2.770  16.434 -0.5497  0.6800 -0.6407
17691TIP3    H174564   2.998   2.675  16.437 -1.3887  0.4626 -2.3779
17691TIP3    H274565   2.924   2.787  16.508 -0.4636 -0.1590 -0.3683
17692TIP3   OH274566   3.209   0.365   4.498 -0.0598 -0.1341  0.5754
17692TIP3    H174567   3.179   0.339   4.411  0.6557  1.3108 -0.1414
17692TIP3    H274568   3.159   0.311   4.558 -1.1676 -0.5848 -0.7089
17693TIP3   OH274569   6.843   6.685   5.794  0.5242  0.5263 -0.2924
17693TIP3    H174570   6.919   6.729   5.757  3.0847 -2.4981  0.9079
17693TIP3    H274571   6.828   6.610   5.737 -0.4300  0.1103  0.4673
17694TIP3   OH274572   4.191   0.490   2.757 -0.0943  0.0420 -0.2879
17694TIP3    H174573   4.216   0.582   2.749  1.8704 -0.4572 -0.1778
17694TIP3    H274574   4.213   0.466   2.847  2.1659 -1.2630 -1.1065
17695TIP3   OH274575   5.800   1.629  12.947 -0.1780  0.3057  0.4074
17695TIP3    H174576   5.704   1.626  12.954 -0.3353  0.6919 -1.1434
17695TIP3    H274577   5.831   1.584  13.025 -1.6481 -0.4204  0.6141
17696TIP3   OH274578   4.274   1.608  11.260 -0.2606 -0.0662 -0.0079
17696TIP3    H174579   4.299   1.672  11.328 -1.5459  1.3254 -0.7934
17696TIP3    H274580   4.354   1.594  11.210  0.0187  1.0838  0.0848
17697TIP3   OH274581   5.000   2.844  16.867  0.6680 -0.5360 -0.7863
17697TIP3    H174582   5.069   2.779  16.866  0.8510 -0.3540 -0.3505
17697TIP3    H274583   5.038   2.919  16.914  0.2604 -0.3488 -0.7486
17698TIP3   OH274584   5.428   2.653   3.149  0.3240  0.2664 -0.0680
17698TIP3    H174585   5.380   2.732   3.175 -1.4357 -0.7448 -0.1460
17698TIP3    H274586   5.483   2.682   3.076 -0.1046  1.4669  0.0646
17699TIP3   OH274587   0.160   2.180   6.275  0.5419 -0.2214  0.2735
17699TIP3    H174588   0.072   2.183   6.238  1.1282  0.6375 -1.1276
17699TIP3    H274589   0.190   2.270   6.271  1.4559 -0.4937  0.8301
17700TIP3   OH274590   3.828   6.393  16.585  0.1287 -0.5332  0.3423
17700TIP3    H174591   3.799   6.434  16.503  1.4137 -0.7150 -0.2279
17700TIP3    H274592   3.917   6.426  16.597  0.1553 -0.9623  1.3748
17701TIP3   OH274593   2.124   1.354   0.404 -0.2356  0.0545 -0.0817
17701TIP3    H174594   2.079   1.271   0.388  0.5799 -0.6713  1.2187
17701TIP3    H274595   2.143   1.388   0.316 -0.3666 -1.2620 -0.6468
17702TIP3   OH274596   3.917   4.571   3.051  0.1516 -0.1944 -0.0706
17702TIP3    H174597   3.936   4.651   3.002  2.1997 -0.5806  0.0296
17702TIP3    H274598   3.983   4.569   3.120 -0.8148 -1.2172  0.8715
17703TIP3   OH274599   6.249   2.256  11.414 -0.1811 -0.2846  0.7725
17703TIP3    H174600   6.209   2.187  11.466 -0.8670  0.1221  0.7983
17703TIP3    H274601   6.176   2.299  11.370  0.3574 -0.4844 -0.3693
17704TIP3   OH274602   4.651   5.007   4.985  0.5188  0.0163  0.5014
17704TIP3    H174603   4.738   4.967   4.981 -0.2238 -1.5805 -1.1825
17704TIP3    H274604   4.603   4.956   5.050  0.4401  0.0566  0.4761
17705TIP3   OH274605   6.245   4.746   4.100  0.7044 -0.3035  0.1866
17705TIP3    H174606   6.235   4.651   4.088  0.0084 -0.2283  0.1315
17705TIP3    H274607   6.169   4.772   4.152 -0.7011  0.6565 -2.1634
17706TIP3   OH274608   1.231   3.942   2.146  0.1371 -0.3945 -0.3265
17706TIP3    H174609   1.237   3.962   2.240  0.6695 -0.3895 -0.3564
17706TIP3    H274610   1.141   3.915   2.133  0.3973 -1.7056  0.4517
17707TIP3   OH274611   4.788   5.341   0.359 -1.0522 -0.5283 -0.0430
17707TIP3    H174612   4.822   5.382   0.439 -1.0025  1.0942 -0.8610
17707TIP3    H274613   4.743   5.263   0.390 -1.0411  0.0714  1.5815
17708TIP3   OH274614   6.545   2.839  13.970  0.0677 -0.2664 -0.2662
17708TIP3    H174615   6.627   2.868  13.930 -0.6909  1.7956 -0.4820
17708TIP3    H274616   6.554   2.861  14.062 -0.4654  0.5820 -0.4054
17709TIP3   OH274617   1.121   0.251   5.386  0.3972  0.4071  0.1871
17709TIP3    H174618   1.204   0.280   5.424  0.2983 -1.2196  1.7895
17709TIP3    H274619   1.056   0.272   5.454 -0.3167  0.4715 -0.5023
17710TIP3   OH274620   1.208   1.757   2.563 -0.2427 -1.0970 -0.6171
17710TIP3    H174621   1.150   1.831   2.546  1.0693  0.5871  1.7065
17710TIP3    H274622   1.284   1.773   2.507 -0.0151 -0.7345 -0.2095
17711TIP3   OH274623   1.520   2.313   6.002 -0.8348  0.1700 -0.0719
17711TIP3    H174624   1.528   2.408   6.011  0.2612  0.0090  1.0010
17711TIP3    H274625   1.439   2.290   6.047 -0.4395  0.4747  0.8138
17712TIP3   OH274626   0.381   3.390  14.463  0.5332 -0.1925 -0.2380
17712TIP3    H174627   0.387   3.442  14.382  1.6591 -1.3545 -0.9322
17712TIP3    H274628   0.400   3.300  14.436  1.1325 -0.5845  1.3634
17713TIP3   OH274629   6.382   0.049  13.955  0.0812  0.2550 -0.0167
17713TIP3    H174630   6.377   0.143  13.974 -1.5153  0.1923 -0.0002
17713TIP3    H274631   6.451   0.041  13.889  1.5960  1.1826  1.3815
17714TIP3   OH274632   0.964   4.532  15.579  0.4139  0.6940  0.3187
17714TIP3    H174633   0.980   4.452  15.628  2.3177  1.5546  1.1746
17714TIP3    H274634   1.009   4.601  15.628 -0.9535  2.2737 -0.5227
17715TIP3   OH274635   2.255   3.553   3.374  0.2040  0.0230  0.0325
17715TIP3    H174636   2.311   3.482   3.341  0.9717  0.4001  0.5059
17715TIP3    H274637   2.214   3.589   3.295 -0.5284 -1.1953 -0.1856
17716TIP3   OH274638   5.592   2.625  11.972  0.1482  0.6375 -0.2628
17716TIP3    H174639   5.572   2.640  11.880 -0.1305 -0.9943 -0.4953
17716TIP3    H274640   5.671   2.571  11.972 -0.9165 -1.0054  0.3518
17717TIP3   OH274641   6.442   2.769  12.711  0.5780 -0.9513  0.8715
17717TIP3    H174642   6.353   2.739  12.732  0.3784 -0.2848  1.0040
17717TIP3    H274643   6.438   2.790  12.618  0.7855 -1.5605  0.7217
17718TIP3   OH274644   6.324   5.034   3.241 -0.4528 -0.2305 -0.8622
17718TIP3    H174645   6.375   5.114   3.239  0.2675 -0.6404 -0.0270
17718TIP3    H274646   6.374   4.975   3.298 -2.1135 -0.4631  0.4549
17719TIP3   OH274647   1.016   4.436  15.987 -0.3307  0.1281 -0.1684
17719TIP3    H174648   1.025   4.450  16.082  1.0249  2.2550 -0.5335
17719TIP3    H274649   1.098   4.393  15.962 -0.6134 -0.2721 -0.4098
17720TIP3   OH274650   4.245   4.442  13.552 -0.2338  0.0089  0.0048
17720TIP3    H174651   4.233   4.495  13.473 -2.2368  1.1640  1.0123
17720TIP3    H274652   4.176   4.377  13.548 -0.7275  0.4431  1.0605
17721TIP3   OH274653   4.957   5.064   2.096 -0.5714 -0.6826  0.5547
17721TIP3    H174654   4.932   5.154   2.114  1.9451 -0.2739  2.6076
17721TIP3    H274655   4.893   5.011   2.143 -0.3556  0.1347  1.8079
17722TIP3   OH274656   0.155   0.172   0.035  0.2890  0.2536  0.4486
17722TIP3    H174657   0.201   0.177  -0.049 -0.1454 -1.6106  0.0566
17722TIP3    H274658   0.063   0.180   0.012  0.2430  1.2419  0.9352
17723TIP3   OH274659   3.776   3.958  12.767 -0.5153  0.3084 -0.9575
17723TIP3    H174660   3.707   4.022  12.751 -0.1262  1.0733  0.3513
17723TIP3    H274661   3.770   3.938  12.860 -0.1169 -0.9757 -1.1914
17724TIP3   OH274662   3.143   5.465   1.335  0.2692 -0.5028  0.3844
17724TIP3    H174663   3.181   5.381   1.311  0.4278 -0.8192  1.7127
17724TIP3    H274664   3.089   5.447   1.411 -0.6588  0.3852 -0.0372
17725TIP3   OH274665   1.135   0.191  15.220 -0.0487  0.3731 -0.0289
17725TIP3    H174666   1.191   0.180  15.297  1.8043 -0.3033 -1.3699
17725TIP3    H274667   1.164   0.274  15.181 -1.1247  0.8247  0.0982
17726TIP3   OH274668   5.016   4.737   2.914  0.6083 -0.1283 -0.0806
17726TIP3    H174669   4.993   4.755   3.005 -0.4838 -2.0197  0.0557
17726TIP3    H274670   5.017   4.824   2.872 -1.8932  0.5294  1.0599
17727TIP3   OH274671   2.412   0.167   4.021 -0.0963  0.0789 -0.1760
17727TIP3    H174672   2.456   0.082   4.027 -0.0414 -0.0225 -1.6228
17727TIP3    H274673   2.480   0.227   3.992 -0.4891  0.2821 -0.7017
17728TIP3   OH274674   3.815   5.862  14.598  0.2523 -0.0064  0.9361
17728TIP3    H174675   3.796   5.769  14.588  0.5949  0.1200 -1.6647
17728TIP3    H274676   3.850   5.870  14.686  0.9936 -2.4985  0.9424
17729TIP3   OH274677   5.579   1.902  11.165  0.3215  0.6452  0.1234
17729TIP3    H174678   5.569   1.991  11.199  2.0234  0.3597  1.5161
17729TIP3    H274679   5.602   1.914  11.072 -0.7323  1.5825 -0.0367
17730TIP3   OH274680   3.867   3.082  14.805  0.0559  0.3383 -1.7177
17730TIP3    H174681   3.927   3.020  14.763 -0.4037 -0.7421 -0.8286
17730TIP3    H274682   3.869   3.159  14.748  1.6494  0.0179 -2.1498
17731TIP3   OH274683   6.222   6.769  12.301 -0.0171 -0.0580  0.4706
17731TIP3    H174684   6.311   6.799  12.322 -0.0468 -0.3244  0.9956
17731TIP3    H274685   6.229   6.734  12.212  0.9563 -2.2166  1.3283
17732TIP3   OH274686   1.116   2.751  12.548 -0.4249  0.2284  0.2463
17732TIP3    H174687   1.114   2.845  12.566 -1.0114  0.2869 -0.0812
17732TIP3    H274688   1.209   2.729  12.545 -0.2857  0.7011  0.7988
17733TIP3   OH274689   0.515   1.989  11.108  0.7402  0.1409  0.7001
17733TIP3    H174690   0.473   1.919  11.059 -1.8574  1.3657  0.9911
17733TIP3    H274691   0.514   2.064  11.049  0.0158  0.9170  1.6569
17734TIP3   OH274692   3.009   6.155   4.351  0.5712 -0.4207 -0.4747
17734TIP3    H174693   3.100   6.127   4.353  0.4709 -0.7510 -0.4276
17734TIP3    H274694   2.970   6.103   4.280  0.7261  0.6681 -1.3940
17735TIP3   OH274695   2.869   6.826  12.713  0.6836 -0.5504 -0.2626
17735TIP3    H174696   2.926   6.770  12.661  0.7653 -0.5602 -0.1613
17735TIP3    H274697   2.790   6.836  12.659  1.1868  0.2962 -0.8533
17736TIP3   OH274698   1.303   4.728  14.116 -0.0221 -0.3786 -0.0512
17736TIP3    H174699   1.315   4.661  14.049  0.8258 -0.6621  0.3756
17736TIP3    H274700   1.340   4.808  14.078 -0.6844 -0.2385 -0.4095
17737TIP3   OH274701   2.664   5.586   4.505  0.2408 -0.5769  0.3907
17737TIP3    H174702   2.663   5.670   4.459 -1.3915  0.0191  1.4312
17737TIP3    H274703   2.574   5.553   4.497  0.7529 -2.0448  0.3543
17738TIP3   OH274704   6.452   2.684   1.740  0.4571  0.0115  0.1713
17738TIP3    H174705   6.446   2.780   1.745 -0.3251 -0.0852  1.5993
17738TIP3    H274706   6.370   2.657   1.699  1.2572  0.0031 -1.5005
17739TIP3   OH274707   6.162   3.941  12.329  0.4402  0.6430  0.4024
17739TIP3    H174708   6.246   3.895  12.330  0.6223  0.8053 -1.5988
17739TIP3    H274709   6.155   3.980  12.416  0.9806 -1.8468  1.6592
17740TIP3   OH274710   3.347   3.318   5.360 -0.6598 -0.4614  0.5183
17740TIP3    H174711   3.363   3.257   5.432 -1.4152  0.4352  1.4685
17740TIP3    H274712   3.408   3.390   5.375 -0.4301 -0.5267 -0.0681
17741TIP3   OH274713   3.058   2.871  13.027 -0.3690 -0.3258  0.4419
17741TIP3    H174714   3.148   2.882  13.057 -0.3048 -0.0290  0.1461
17741TIP3    H274715   3.017   2.956  13.046 -0.0652  0.2179 -1.2073
17742TIP3   OH274716   4.331   1.927  11.120  0.2581  0.2290  0.1876
17742TIP3    H174717   4.392   1.939  11.193 -1.2841 -1.4911  1.8373
17742TIP3    H274718   4.374   1.863  11.063  0.8663  0.5477  0.2798
17743TIP3   OH274719   5.303   4.705   5.635  0.1257  0.0910  0.0275
17743TIP3    H174720   5.238   4.654   5.588 -0.5110  0.8218  0.0944
17743TIP3    H274721   5.271   4.796   5.630  1.2876  0.5100 -0.2061
17744TIP3   OH274722   5.134   3.573  14.463  0.4122 -0.2108  0.1297
17744TIP3    H174723   5.139   3.664  14.433 -0.2058  0.3090  1.5208
17744TIP3    H274724   5.049   3.566  14.507  1.6070 -0.6207  2.5736
17745TIP3   OH274725   6.129   0.721  15.857  0.1709  0.1812 -0.1869
17745TIP3    H174726   6.170   0.635  15.848  4.7311  2.0524 -0.1671
17745TIP3    H274727   6.090   0.739  15.771 -0.7014 -1.7697 -0.2342
17746TIP3   OH274728   1.205   5.706  16.034  0.1300 -0.4155  0.4499
17746TIP3    H174729   1.296   5.708  16.004 -0.7288  1.0500 -2.4383
17746TIP3    H274730   1.180   5.798  16.041 -0.9107 -0.7777  2.0935
17747TIP3   OH274731   5.642   6.367   4.319  0.7410  0.1776  0.4691
17747TIP3    H174732   5.705   6.295   4.319  2.6242  1.7279  0.0281
17747TIP3    H274733   5.598   6.361   4.234  1.5777  0.0860  0.0335
17748TIP3   OH274734   2.963   6.370   0.832 -0.1789 -0.4529  0.1788
17748TIP3    H174735   3.059   6.377   0.833 -0.3121  2.8877  0.1437
17748TIP3    H274736   2.941   6.368   0.739 -0.1682 -2.5635  0.1711
17749TIP3   OH274737   0.244   5.314  16.500  0.2100  0.5014  0.2832
17749TIP3    H174738   0.330   5.331  16.540  0.0493  2.3397 -0.0547
17749TIP3    H274739   0.264   5.271  16.417  0.8187  0.8864  0.2223
17750TIP3   OH274740   1.156   6.516   3.376  0.6147  0.4160 -0.1484
17750TIP3    H174741   1.187   6.513   3.467  1.4827 -2.0049 -0.4609
17750TIP3    H274742   1.066   6.483   3.381  0.3815  1.0625 -0.0690
17751TIP3   OH274743   5.784   3.133  15.273  0.1666 -0.2454 -0.8389
17751TIP3    H174744   5.689   3.144  15.266  0.1457  1.0958  0.9337
17751TIP3    H274745   5.798   3.038  15.263 -1.5280 -0.6763  0.4127
17752TIP3   OH274746   3.283   0.305  11.865 -0.2790 -0.0970 -0.2921
17752TIP3    H174747   3.257   0.281  11.953 -0.9497 -0.4251 -0.5750
17752TIP3    H274748   3.220   0.261  11.808 -0.8717  1.4417 -0.8646
17753TIP3   OH274749   0.708   1.801  12.364 -0.0715  0.3363 -0.1592
17753TIP3    H174750   0.702   1.889  12.326 -0.5852  0.2115 -0.3826
17753TIP3    H274751   0.733   1.745  12.291 -0.6429  0.1602 -0.2257
17754TIP3   OH274752   3.021   3.485   2.098 -0.4859  0.5770 -0.0703
17754TIP3    H174753   2.952   3.509   2.160 -0.2036 -0.5316  0.7204
17754TIP3    H274754   2.973   3.448   2.023 -0.8120 -2.4264  1.4403
17755TIP3   OH274755   4.568   2.448  11.907  0.1437 -0.1902  0.4223
17755TIP3    H174756   4.618   2.481  11.832 -2.8554  3.3455 -0.2956
17755TIP3    H274757   4.575   2.517  11.972 -1.2875 -1.0084  1.4964
17756TIP3   OH274758   4.700   3.661   3.397 -0.6622  0.2346 -0.5636
17756TIP3    H174759   4.614   3.625   3.415  0.2520 -1.3181  1.0192
17756TIP3    H274760   4.748   3.652   3.480  0.9835  1.1216 -1.3673
17757TIP3   OH274761   5.589   0.761   4.117 -0.0681 -0.1186 -0.0518
17757TIP3    H174762   5.523   0.691   4.116 -0.7410  0.5062 -0.0092
17757TIP3    H274763   5.569   0.813   4.039  0.0455  0.3696  0.2406
17758TIP3   OH274764   5.376   0.798   1.063  0.6872 -0.0207  0.7799
17758TIP3    H174765   5.471   0.791   1.053  0.7146  0.2417  0.8455
17758TIP3    H274766   5.361   0.890   1.086  0.1098  0.9221 -2.7657
17759TIP3   OH274767   2.366   3.785   2.425  0.4123 -0.3877  0.0089
17759TIP3    H174768   2.357   3.718   2.358  0.0841 -0.6151  0.2799
17759TIP3    H274769   2.428   3.848   2.387 -0.3990 -0.0789 -0.8557
17760TIP3   OH274770   4.458   2.571  16.532  0.4224 -0.1230 -0.1561
17760TIP3    H174771   4.366   2.551  16.548 -0.0469  2.0319  0.1704
17760TIP3    H274772   4.492   2.600  16.617  2.2641 -3.5259  0.4602
17761TIP3   OH274773   0.199   0.320  13.217 -0.0084 -0.0204 -0.0137
17761TIP3    H174774   0.210   0.336  13.310 -0.1059 -1.0884  0.1884
17761TIP3    H274775   0.194   0.408  13.178 -1.4593  0.4465  1.1493
17762TIP3   OH274776   4.617   6.558  15.897 -0.4663  0.3583  0.6615
17762TIP3    H174777   4.573   6.499  15.958  2.1512  0.5119  2.8816
17762TIP3    H274778   4.638   6.636  15.948 -0.6445  1.7374 -1.2405
17763TIP3   OH274779   0.418   1.614  15.687 -0.0802  0.1957 -0.3174
17763TIP3    H174780   0.511   1.620  15.665  0.2629 -0.4883  0.8747
17763TIP3    H274781   0.400   1.690  15.742 -0.1267  0.0980 -0.1969
17764TIP3   OH274782   5.354   5.230  12.250  0.3187  0.1406  0.2091
17764TIP3    H174783   5.296   5.180  12.193 -1.5943  0.7498  1.5393
17764TIP3    H274784   5.330   5.204  12.339 -1.1560  3.6336  1.0186
17765TIP3   OH274785   0.384   0.985  17.177  0.2466  0.4490  0.6342
17765TIP3    H174786   0.316   1.027  17.231 -2.3585  0.1189 -2.1208
17765TIP3    H274787   0.392   1.042  17.100  0.0205 -1.6419 -1.0087
17766TIP3   OH274788   5.327   5.816   2.051  0.4077  0.0711  0.5530
17766TIP3    H174789   5.323   5.747   1.984  0.7803 -2.0861  2.6271
17766TIP3    H274790   5.420   5.840   2.054  0.2319  0.9522 -0.3870
17767TIP3   OH274791   2.515   0.222  12.289  0.0084  0.1956  1.0549
17767TIP3    H174792   2.463   0.267  12.356  2.0929  0.5341  2.5427
17767TIP3    H274793   2.577   0.289  12.259 -1.2436  0.2348 -1.7303
17768TIP3   OH274794   1.805   4.902  12.873  0.0214 -0.2843 -0.1533
17768TIP3    H174795   1.755   4.822  12.891 -1.4215  0.3655 -1.0500
17768TIP3    H274796   1.772   4.966  12.937  1.1487 -0.3738  0.5441
17769TIP3   OH274797   4.052   0.631  14.040  0.6812 -0.4433 -0.1758
17769TIP3    H174798   4.148   0.635  14.045  0.5882  0.5545  1.3232
17769TIP3    H274799   4.028   0.708  13.989  0.6737 -1.0250 -1.0910
17770TIP3   OH274800   6.193   0.313   4.188  0.7521 -0.5912  0.2813
17770TIP3    H174801   6.148   0.311   4.272 -1.3847  1.1671 -0.7046
17770TIP3    H274802   6.249   0.390   4.192  0.7745 -0.5998  0.1493
17771TIP3   OH274803   2.636   0.044   0.331  0.4916 -0.0231 -0.3426
17771TIP3    H174804   2.583   0.089   0.397  1.1442 -0.1191  0.2530
17771TIP3    H274805   2.685   0.114   0.288  0.7283 -0.0538 -0.1232
17772TIP3   OH274806   3.239   6.542  13.950  0.0695 -0.0348 -0.5159
17772TIP3    H174807   3.242   6.635  13.930 -2.3560  0.0171 -1.0244
17772TIP3    H274808   3.328   6.510  13.937  0.3863  1.6785 -3.0133
17773TIP3   OH274809   1.930   2.907   4.408 -0.2482  0.5129 -0.4299
17773TIP3    H174810   1.970   2.841   4.351 -1.7547 -0.0982 -0.8339
17773TIP3    H274811   1.842   2.873   4.427 -1.5273  2.9115 -1.5645
17774TIP3   OH274812   2.322   2.933  12.826 -0.3704  0.8508  0.1555
17774TIP3    H174813   2.293   2.933  12.735 -1.4958  2.7058  0.4652
17774TIP3    H274814   2.416   2.953  12.821 -0.2220  0.0001 -0.6285
17775TIP3   OH274815   1.864   1.875   4.433 -0.5530  0.4233  0.3088
17775TIP3    H174816   1.850   1.787   4.398  0.5304  1.4976 -3.3234
17775TIP3    H274817   1.959   1.889   4.424  0.1589  0.4174  5.3014
17776TIP3   OH274818   0.636   0.838  14.407 -0.0505  1.1949  0.3710
17776TIP3    H174819   0.719   0.872  14.442  1.3690 -1.1372 -0.5468
17776TIP3    H274820   0.584   0.819  14.485  1.1580  0.6040  1.0661
17777TIP3   OH274821   2.323   5.504   1.873 -0.0501 -0.7772  0.4573
17777TIP3    H174822   2.372   5.451   1.936  0.8869 -1.4733 -0.8090
17777TIP3    H274823   2.285   5.441   1.812 -0.4170 -0.0851 -0.0528
17778TIP3   OH274824   4.266   4.760   0.081 -0.3102 -0.3091 -0.1786
17778TIP3    H174825   4.174   4.761   0.108 -0.3818 -0.3953 -0.4109
17778TIP3    H274826   4.263   4.737  -0.012 -0.1828  1.4786 -0.6648
17779TIP3   OH274827   4.599   2.347   4.551 -0.5392  0.8237 -0.0535
17779TIP3    H174828   4.536   2.283   4.520  1.4274 -1.0477 -0.3637
17779TIP3    H274829   4.599   2.416   4.484 -1.0672  0.0540 -0.8567
17780TIP3   OH274830   3.998   4.653   2.614  0.0454  0.0370  0.1273
17780TIP3    H174831   3.938   4.638   2.687  1.1249  0.9982  1.2636
17780TIP3    H274832   4.073   4.597   2.632  0.4114  0.4353 -0.1405
17781TIP3   OH274833   1.751   6.383   6.183 -0.1291 -0.5526 -0.4833
17781TIP3    H174834   1.802   6.458   6.211 -0.2525  0.1257 -1.9773
17781TIP3    H274835   1.810   6.308   6.193  0.1209 -0.2247  0.6527
17782TIP3   OH274836   4.258   3.571   0.521 -0.5209  0.1553 -0.0140
17782TIP3    H174837   4.191   3.522   0.474 -1.0975  1.7029 -0.8877
17782TIP3    H274838   4.222   3.584   0.608 -1.1495  0.5470 -0.3269
17783TIP3   OH274839   2.705   5.105   4.641 -0.0862 -0.3064  0.3623
17783TIP3    H174840   2.664   5.101   4.554  1.6686 -0.7764 -0.4972
17783TIP3    H274841   2.706   5.015   4.672  0.2017 -0.2841  0.4209
17784TIP3   OH274842   4.528   1.150   5.594  0.3694  0.0204 -0.8521
17784TIP3    H174843   4.526   1.058   5.571 -1.5490  0.3702 -2.4041
17784TIP3    H274844   4.440   1.167   5.629  1.4842  0.7398  1.8843
17785TIP3   OH274845   3.602   5.068   3.143 -0.1069 -0.3345  0.4057
17785TIP3    H174846   3.692   5.100   3.148  0.0418 -0.8791  1.7135
17785TIP3    H274847   3.611   4.972   3.149 -0.7753 -0.3813  0.7106
17786TIP3   OH274848   1.393   3.708  13.856  0.2428 -0.3055  0.3687
17786TIP3    H174849   1.368   3.673  13.771 -0.0391 -1.5807  0.9478
17786TIP3    H274850   1.489   3.708  13.855  0.2482  0.6647 -0.3160
17787TIP3   OH274851   3.738   2.696  10.677 -0.3417 -0.1669  0.0127
17787TIP3    H174852   3.829   2.696  10.649 -0.4692  1.4819 -0.5474
17787TIP3    H274853   3.718   2.605  10.698  1.3160 -0.6029 -0.2227
17788TIP3   OH274854   6.408   1.857   4.836 -0.3256 -0.3854 -0.0370
17788TIP3    H174855   6.409   1.763   4.855 -1.1226 -0.4330 -0.1816
17788TIP3    H274856   6.488   1.872   4.785 -0.5725 -1.1312 -0.6601
17789TIP3   OH274857   6.096   4.094  12.104  0.0466  0.1030  0.3148
17789TIP3    H174858   6.001   4.085  12.103  0.2169 -2.9473 -0.9553
17789TIP3    H274859   6.122   4.061  12.190  0.0504 -2.8863 -0.7052
17790TIP3   OH274860   2.805   1.527  15.847  0.6265  0.0807 -0.0017
17790TIP3    H174861   2.876   1.580  15.810  0.9340  0.1425  0.6547
17790TIP3    H274862   2.749   1.505  15.772  1.6928 -0.5209 -0.6468
17791TIP3   OH274863   2.619   0.369  16.847 -0.5272  0.0706  0.1747
17791TIP3    H174864   2.708   0.337  16.834 -1.2220 -2.0311  0.0753
17791TIP3    H274865   2.563   0.295  16.821 -2.2552  0.6283  1.9787
17792TIP3   OH274866   3.444   4.624   3.693  0.0929 -0.2477 -0.0543
17792TIP3    H174867   3.439   4.718   3.675  0.2808 -0.3751 -0.7870
17792TIP3    H274868   3.518   4.615   3.754  0.2028  0.0505 -0.1447
17793TIP3   OH274869   5.401   3.207   0.836  0.1747 -0.4618  0.1918
17793TIP3    H174870   5.368   3.117   0.831  1.7822 -1.0396 -0.6342
17793TIP3    H274871   5.496   3.197   0.842  0.3520  1.1838  0.3354
17794TIP3   OH274872   2.379   5.904   0.337  0.3316 -0.1410 -0.6074
17794TIP3    H174873   2.457   5.898   0.282 -0.1530 -1.1062 -1.2110
17794TIP3    H274874   2.410   5.880   0.425  1.2887  2.2126 -0.2096
17795TIP3   OH274875   2.614   2.824  17.058 -0.4689 -0.8348 -0.0693
17795TIP3    H174876   2.710   2.823  17.057 -0.3644  0.3451  2.3974
17795TIP3    H274877   2.590   2.732  17.068  0.5568 -0.9353  2.0299
17796TIP3   OH274878   3.162   4.786  15.685  0.4145  0.1818 -0.0984
17796TIP3    H174879   3.201   4.866  15.720 -0.2980  1.0453 -1.1793
17796TIP3    H274880   3.142   4.808  15.594  2.0719 -1.9169 -1.0530
17797TIP3   OH274881   0.570   5.911   2.067 -0.0940  0.2216  0.5075
17797TIP3    H174882   0.622   5.920   2.146  2.5245  0.1022 -1.0787
17797TIP3    H274883   0.523   5.828   2.078  1.1729 -0.4031  1.4378
17798TIP3   OH274884   6.224   4.700   2.860 -0.9974 -0.1140  0.4007
17798TIP3    H174885   6.160   4.649   2.909  0.1978 -1.3271  0.7710
17798TIP3    H274886   6.215   4.669   2.770 -0.1969 -1.1194  0.6426
17799TIP3   OH274887   4.549   2.892   2.021  0.2537 -0.2669  0.1792
17799TIP3    H174888   4.613   2.958   2.048  0.5903  1.2221 -3.6951
17799TIP3    H274889   4.464   2.933   2.040  0.4722  0.9609 -1.3004
17800TIP3   OH274890   5.530   1.224   3.366 -0.2333  0.7320  0.8426
17800TIP3    H174891   5.498   1.208   3.277 -0.2111 -0.1276  0.9785
17800TIP3    H274892   5.549   1.318   3.368 -0.8260  0.8762  0.1378
17801TIP3   OH274893   2.490   2.070  13.112 -0.4606 -0.5249 -0.4500
17801TIP3    H174894   2.569   2.051  13.062  0.3180  1.4155 -0.0565
17801TIP3    H274895   2.419   2.060  13.050  0.4576  1.6025 -1.9778
17802TIP3   OH274896   0.995   2.689  13.998  0.0505 -0.2581 -0.1124
17802TIP3    H174897   1.029   2.605  14.028  1.5139  0.2176 -0.3394
17802TIP3    H274898   0.907   2.670  13.966  0.3130 -1.6727 -0.0571
17803TIP3   OH274899   5.920   6.701   4.609  0.3005  0.0055 -0.0185
17803TIP3    H174900   5.848   6.724   4.667  0.6146  1.0375 -0.0189
17803TIP3    H274901   5.879   6.687   4.523  0.1853  1.4691 -0.2251
17804TIP3   OH274902   0.453   4.816   4.213 -0.7299 -0.0155 -0.3810
17804TIP3    H174903   0.388   4.747   4.226  0.3148 -1.2919 -1.4987
17804TIP3    H274904   0.536   4.768   4.202  0.1280  1.4578 -0.5909
17805TIP3   OH274905   5.683   1.434  12.240 -0.4575  0.3380  0.2470
17805TIP3    H174906   5.658   1.442  12.332  0.0382  0.4502  0.3748
17805TIP3    H274907   5.632   1.500  12.194 -0.6646  0.3176  0.4508
17806TIP3   OH274908   5.095   4.122  12.538 -0.8992  0.1892  0.5093
17806TIP3    H174909   5.135   4.203  12.570 -0.5719 -0.5793  2.1502
17806TIP3    H274910   5.019   4.109  12.595 -0.4367 -1.1213  0.8553
17807TIP3   OH274911   3.637   0.322  13.521  0.6133  0.4114 -0.1714
17807TIP3    H174912   3.575   0.395  13.525  0.2467  0.2864 -2.4188
17807TIP3    H274913   3.583   0.244  13.513  1.0413  0.0762  0.1296
17808TIP3   OH274914   5.294   4.001  16.477  0.1394 -0.3030 -0.0940
17808TIP3    H174915   5.287   4.085  16.433  2.9794 -0.3320 -0.7725
17808TIP3    H274916   5.345   4.018  16.556  0.2983 -1.2831  0.0374
17809TIP3   OH274917   6.241   5.518   4.818 -0.4859  0.2872  0.2536
17809TIP3    H174918   6.270   5.607   4.800  0.5719  0.0663  0.8116
17809TIP3    H274919   6.305   5.462   4.775 -0.6970 -0.2086  0.5686
17810TIP3   OH274920   6.266   4.987  10.913  0.2363 -0.3352 -0.7545
17810TIP3    H174921   6.222   4.973  10.829  0.2346 -0.4044 -0.7412
17810TIP3    H274922   6.316   5.067  10.900  1.5102 -1.1947 -1.3436
17811TIP3   OH274923   3.537   3.504   5.600  0.4651 -0.2286 -0.1305
17811TIP3    H174924   3.541   3.448   5.677 -0.7266  0.1579  0.2398
17811TIP3    H274925   3.516   3.591   5.634 -0.1471 -0.0607 -0.8742
17812TIP3   OH274926   0.391   1.988   1.355 -0.6336 -0.2952 -0.0886
17812TIP3    H174927   0.420   2.079   1.348 -0.8944 -0.0869  1.1834
17812TIP3    H274928   0.306   1.994   1.400 -2.6331 -0.9098 -3.4538
17813TIP3   OH274929   4.945   4.288   1.431  0.4137 -0.2873  0.5709
17813TIP3    H174930   4.945   4.257   1.521  0.1482  1.1636  1.1049
17813TIP3    H274931   4.876   4.237   1.388 -0.1946 -0.2584  1.4812
17814TIP3   OH274932   4.303   2.165   1.876 -0.3865 -0.6501  0.0343
17814TIP3    H174933   4.284   2.145   1.784  0.4553  0.0598 -0.3149
17814TIP3    H274934   4.253   2.245   1.894  0.0501 -0.3532 -0.0489
17815TIP3   OH274935   2.277   1.578   3.377  0.1392 -0.1785 -0.3048
17815TIP3    H174936   2.281   1.673   3.369 -0.3970 -0.2704 -2.1745
17815TIP3    H274937   2.311   1.545   3.294 -0.4452 -1.6034 -0.0158
17816TIP3   OH274938   5.372   1.182   2.838  0.3880  0.9870  0.1097
17816TIP3    H174939   5.457   1.205   2.875  0.5617  0.6127 -0.0444
17816TIP3    H274940   5.388   1.175   2.744  0.5513 -0.5973  0.2332
17817TIP3   OH274941   1.351   3.031  12.856 -0.2805  0.2259  0.2333
17817TIP3    H174942   1.445   3.028  12.871 -0.3689 -3.0333  0.9045
17817TIP3    H274943   1.313   3.041  12.944 -0.6192  2.9920 -0.1586
17818TIP3   OH274944   0.661   2.849   5.015  0.3410 -0.8851  0.1399
17818TIP3    H174945   0.722   2.778   5.033  0.0909 -1.0259  0.4294
17818TIP3    H274946   0.596   2.843   5.084  0.6184 -0.0360  0.4927
17819TIP3   OH274947   6.682   1.817  14.127 -0.2244  0.1945 -0.0628
17819TIP3    H174948   6.756   1.756  14.123 -0.1887  0.2462 -0.1898
17819TIP3    H274949   6.629   1.794  14.051 -0.9303 -0.6050  0.6424
17820TIP3   OH274950   1.563   0.534  14.066  0.6525  0.1849 -0.1292
17820TIP3    H174951   1.548   0.440  14.053  1.4023  0.0741 -0.2281
17820TIP3    H274952   1.549   0.573  13.980  1.6784 -0.0243 -0.4045
17821TIP3   OH274953   0.777   3.491  15.451  0.4291  0.1167 -0.2129
17821TIP3    H174954   0.763   3.559  15.516  0.0057  3.1146 -3.1825
17821TIP3    H274955   0.705   3.429  15.465 -0.2172  1.1795  1.4500
17822TIP3   OH274956   3.718   4.577  16.862  0.8968 -0.3731  0.2308
17822TIP3    H174957   3.699   4.484  16.871  2.6336 -0.6352  1.7296
17822TIP3    H274958   3.789   4.580  16.797  1.3710 -0.1768  0.7529
17823TIP3   OH274959   6.805   0.618   3.751 -0.2693  0.3607 -0.5049
17823TIP3    H174960   6.872   0.652   3.810 -0.8655  0.2768  0.2376
17823TIP3    H274961   6.746   0.692   3.736  0.0387  0.4657 -1.2449
17824TIP3   OH274962   2.163   2.597   5.437  0.5675  0.1710  0.1844
17824TIP3    H174963   2.120   2.512   5.442 -2.8884  1.6933 -0.1218
17824TIP3    H274964   2.179   2.622   5.528 -2.7814  1.0052  0.7055
17825TIP3   OH274965   4.549   5.631  11.835  0.4086 -0.1075  0.1635
17825TIP3    H174966   4.611   5.661  11.902 -0.9502  1.6594  0.6897
17825TIP3    H274967   4.538   5.538  11.854  0.8570  0.1192  1.7643
17826TIP3   OH274968   1.349   5.425  16.329  0.3466  0.2666  0.1597
17826TIP3    H174969   1.311   5.500  16.283  1.9367  0.3342 -1.1309
17826TIP3    H274970   1.318   5.434  16.419 -1.7655  0.8957 -0.5660
17827TIP3   OH274971   1.794   3.490  12.665 -0.1843  0.5969 -0.3078
17827TIP3    H174972   1.854   3.554  12.703  0.1854  1.8812 -2.8387
17827TIP3    H274973   1.850   3.418  12.635 -0.5581 -0.8460  2.1385
17828TIP3   OH274974   6.223   6.519   1.314 -0.1308  0.2647 -0.0263
17828TIP3    H174975   6.228   6.487   1.224 -0.6879  0.9186 -0.3004
17828TIP3    H274976   6.289   6.469   1.362  0.9491  0.6881 -1.0362
17829TIP3   OH274977   5.560   2.556  13.253  0.3619  0.1146  0.0365
17829TIP3    H174978   5.646   2.530  13.285  0.4773 -1.6786 -1.5569
17829TIP3    H274979   5.577   2.595  13.167 -0.3489  0.4165  0.0257
17830TIP3   OH274980   1.090   3.128   1.348 -0.3797  0.5330 -0.4733
17830TIP3    H174981   1.165   3.177   1.314 -1.0601  2.2881  0.4471
17830TIP3    H274982   1.123   3.088   1.429 -0.1147  0.3332 -0.6783
17831TIP3   OH274983   3.521   5.776   2.491  0.0505 -0.3660  0.6006
17831TIP3    H174984   3.571   5.694   2.486 -0.9272 -0.9135 -1.7372
17831TIP3    H274985   3.430   5.748   2.476 -0.2924  1.1274 -0.2441
17832TIP3   OH274986   5.584   6.222   2.045 -0.6922 -0.0945 -0.0171
17832TIP3    H174987   5.551   6.191   2.129  0.0390  0.6159  0.5508
17832TIP3    H274988   5.680   6.222   2.055 -0.6039  0.2314 -0.7597
17833TIP3   OH274989   3.145   1.878   5.799 -0.0722 -0.0875 -0.1375
17833TIP3    H174990   3.220   1.914   5.847  0.2602 -0.2947 -0.4971
17833TIP3    H274991   3.092   1.835   5.866  1.8612 -2.9720 -0.2890
17834TIP3   OH274992   2.149   2.655  12.799 -0.4909  0.5418  0.4763
17834TIP3    H174993   2.177   2.741  12.829  0.9041 -0.3455  1.8688
17834TIP3    H274994   2.138   2.665  12.704  1.3844  1.8146  0.3380
17835TIP3   OH274995   4.135   3.901   4.335 -0.2098  0.5642  0.0493
17835TIP3    H174996   4.142   3.813   4.372 -0.8006  1.3159  2.1018
17835TIP3    H274997   4.202   3.952   4.381  0.2383  1.1668 -1.2333
17836TIP3   OH274998   5.649   1.389  16.309  0.2430 -0.1250 -0.0624
17836TIP3    H174999   5.666   1.483  16.307  0.5932 -0.1715  0.5985
17836TIP3    H275000   5.666   1.363  16.400  1.0440 -0.9873 -0.4394
17837TIP3   OH275001   5.562   3.687   3.720  0.6558 -0.4027  0.1690
17837TIP3    H175002   5.629   3.684   3.788  1.0949 -1.8310 -0.2904
17837TIP3    H275003   5.599   3.744   3.652  0.0828  1.2788  1.2328
17838TIP3   OH275004   0.468   6.510  11.676 -0.1243 -0.4671 -0.2246
17838TIP3    H175005   0.500   6.469  11.596 -0.4698 -0.9262 -0.1345
17838TIP3    H275006   0.417   6.442  11.719 -1.4958  0.3265 -0.5316
17839TIP3   OH275007   1.853   0.276   0.558  0.0109  0.2929  0.8788
17839TIP3    H175008   1.864   0.184   0.583  0.8457  0.1448 -0.0023
17839TIP3    H275009   1.940   0.314   0.569  0.1484  0.4807 -0.7506
17840TIP3   OH275010   1.805   6.177  11.560 -0.1652  0.1675  0.1811
17840TIP3    H175011   1.824   6.265  11.594  0.0569  0.7421 -1.3476
17840TIP3    H275012   1.889   6.131  11.563  0.1869  0.7066 -0.9296
17841TIP3   OH275013   3.522   6.284  14.602  0.3112 -0.7471 -0.2011
17841TIP3    H175014   3.449   6.318  14.549  1.5315 -0.7487 -1.9842
17841TIP3    H275015   3.574   6.361  14.623  0.3742 -0.8856  0.1551
17842TIP3   OH275016   6.502   4.143   6.017  0.2943 -0.0080  0.5742
17842TIP3    H175017   6.559   4.070   6.042  1.1023  0.2538 -0.4286
17842TIP3    H275018   6.422   4.130   6.069  0.1145 -2.0263 -0.1219
17843TIP3   OH275019   6.758   3.495  11.139 -0.0487  0.0440  0.2724
17843TIP3    H175020   6.664   3.514  11.143 -0.0581 -0.1926  1.5733
17843TIP3    H275021   6.799   3.563  11.192  0.7419  1.2510 -1.7481
17844TIP3   OH275022   4.974   2.910   1.471  0.1824  0.0951  0.0939
17844TIP3    H175023   4.907   2.976   1.456 -0.8375 -0.7232  0.8887
17844TIP3    H275024   5.056   2.953   1.449 -0.3005  2.1032  1.9830
17845TIP3   OH275025   3.116   4.236   2.109 -0.1477 -0.2332 -0.7523
17845TIP3    H175026   3.029   4.252   2.072 -1.3337 -0.4245  1.7243
17845TIP3    H275027   3.114   4.144   2.135  0.5917 -0.0893 -0.1758
17846TIP3   OH275028   6.175   6.478   2.644  0.4285 -0.3072  0.4886
17846TIP3    H175029   6.112   6.429   2.591  1.5041  0.8490 -2.0051
17846TIP3    H275030   6.130   6.491   2.728 -0.8717 -3.2951  0.4119
17847TIP3   OH275031   0.628   2.308   3.127  0.2002  0.1222 -0.0730
17847TIP3    H175032   0.695   2.254   3.086 -0.6197 -0.5538 -0.5410
17847TIP3    H275033   0.637   2.394   3.085  0.7127  0.0122 -0.1875
17848TIP3   OH275034   1.240   5.934   6.484 -0.1814  0.4357  0.6110
17848TIP3    H175035   1.171   5.945   6.549 -1.2802  0.1949 -0.4962
17848TIP3    H275036   1.293   6.014   6.492  0.0287  0.1712  2.1450
17849TIP3   OH275037   3.469   1.785   0.413 -0.4039  0.3847 -0.2794
17849TIP3    H175038   3.384   1.748   0.393 -0.9342  1.1902  0.4206
17849TIP3    H275039   3.521   1.770   0.334 -0.1643 -2.9082  0.3769
17850TIP3   OH275040   4.701   6.627   5.656  0.3031  0.0393  0.0703
17850TIP3    H175041   4.715   6.534   5.674 -0.3269 -0.4525 -1.7915
17850TIP3    H275042   4.632   6.652   5.718  0.9569 -0.5247  1.0660
17851TIP3   OH275043   6.170   6.659  11.760 -0.1913 -0.1175  0.5891
17851TIP3    H175044   6.118   6.735  11.735  3.0855  2.3466  0.6594
17851TIP3    H275045   6.168   6.601  11.684  0.3376  1.8796 -1.0083
17852TIP3   OH275046   6.433   0.335  14.041 -0.5377  0.3031 -0.1892
17852TIP3    H175047   6.434   0.377  13.955 -1.4690 -1.3591 -1.0769
17852TIP3    H275048   6.392   0.400  14.099  0.5205  1.6252 -0.8691
17853TIP3   OH275049   0.857   2.558  11.529 -0.1441 -0.3556  0.6222
17853TIP3    H175050   0.855   2.505  11.608 -1.1961 -1.5460 -0.1648
17853TIP3    H275051   0.940   2.604  11.533  0.3321 -1.2722  1.8470
17854TIP3   OH275052   4.584   0.529   2.354 -0.5712 -0.1755 -0.1192
17854TIP3    H175053   4.557   0.521   2.263  0.8592  1.2499 -0.6998
17854TIP3    H275054   4.676   0.554   2.351 -0.5677  0.2042  1.7115
17855TIP3   OH275055   0.232   5.387   3.376  0.0730 -0.5821 -0.0898
17855TIP3    H175056   0.149   5.339   3.372  0.0715 -0.5536 -0.4281
17855TIP3    H275057   0.248   5.413   3.286  0.6099 -0.8479 -0.0709
17856TIP3   OH275058   6.661   5.597  15.117 -0.6896  0.2251  0.2919
17856TIP3    H175059   6.717   5.543  15.173 -2.1515 -0.5484  1.0648
17856TIP3    H275060   6.673   5.686  15.149 -0.3698 -0.0212  0.8593
17857TIP3   OH275061   0.621   1.064   4.715  0.0244  0.0715  0.0570
17857TIP3    H175062   0.679   1.091   4.786 -0.8198  1.0548  0.3960
17857TIP3    H275063   0.543   1.031   4.758  0.5229 -1.7663 -0.3875
17858TIP3   OH275064   3.750   0.381   4.402  0.0468 -0.5730 -0.1287
17858TIP3    H175065   3.758   0.286   4.408  1.2463 -0.4315  1.0752
17858TIP3    H275066   3.677   0.403   4.460  1.1697 -0.6139  1.3649
17859TIP3   OH275067   1.037   1.142   1.732  0.1410 -0.1214  0.5485
17859TIP3    H175068   1.103   1.080   1.763 -0.9645 -0.9246  1.4075
17859TIP3    H275069   0.956   1.090   1.729 -0.9654  1.4299  1.9097
17860TIP3   OH275070   1.914   3.316   2.580 -0.2016  0.0165 -0.3153
17860TIP3    H175071   1.866   3.325   2.497 -2.5385 -0.1975  0.9396
17860TIP3    H275072   1.875   3.383   2.637 -0.0440 -1.1644  1.2244
17861TIP3   OH275073   2.099   5.953   0.342 -0.1930 -0.0194  0.1379
17861TIP3    H175074   2.182   5.952   0.296 -0.8975  0.4038 -1.2002
17861TIP3    H275075   2.038   5.996   0.282 -1.1995  0.4207  1.4052
17862TIP3   OH275076   5.988   4.502  13.118 -0.2014 -0.2963 -0.3605
17862TIP3    H175077   6.072   4.542  13.140  0.2344  0.2568 -2.8102
17862TIP3    H275078   5.926   4.541  13.180  1.0692  0.4652  0.4741
17863TIP3   OH275079   1.790   6.488   3.015 -0.4899 -0.0656  0.0406
17863TIP3    H175080   1.874   6.532   3.005 -0.2874 -0.5262 -0.2863
17863TIP3    H275081   1.792   6.417   2.951 -0.9748 -0.3089  0.2923
17864TIP3   OH275082   2.853   0.644   2.270 -0.5748 -0.3255  0.1048
17864TIP3    H175083   2.791   0.716   2.283  0.8406  0.6005  2.3355
17864TIP3    H275084   2.839   0.616   2.180 -0.2334  3.6946 -1.3944
17865TIP3   OH275085   4.634   1.536   3.284  0.6613  0.0077 -0.1770
17865TIP3    H175086   4.544   1.558   3.305  0.3638  0.4894 -1.7901
17865TIP3    H275087   4.630   1.500   3.195  1.9070 -1.1066  0.1742
17866TIP3   OH275088   4.056   6.464   4.364  0.0113 -0.4316  0.3780
17866TIP3    H175089   4.029   6.556   4.358  1.6328  0.1325  1.3469
17866TIP3    H275090   3.992   6.425   4.424 -0.6250  0.0745  0.0478
17867TIP3   OH275091   2.276   5.284   1.144 -0.4759  0.2325 -0.0929
17867TIP3    H175092   2.299   5.192   1.159  0.6384  0.9354  3.2889
17867TIP3    H275093   2.193   5.280   1.097 -1.2899 -2.5384  1.3472
17868TIP3   OH275094   1.122   1.374  13.083 -0.1143  0.2826  0.5534
17868TIP3    H175095   1.049   1.433  13.102 -0.3601  0.2980 -0.4228
17868TIP3    H275096   1.081   1.291  13.061  0.1072  0.5075 -0.8091
17869TIP3   OH275097   0.091   5.247   4.408  0.0407 -0.0119 -0.1164
17869TIP3    H175098   0.066   5.306   4.479  2.0673  0.4170  0.3008
17869TIP3    H275099   0.016   5.188   4.399 -1.5611  1.8511  0.2443
17870TIP3   OH275100   6.255   5.621   1.226  0.0969  0.2408  0.1235
17870TIP3    H175101   6.349   5.631   1.237  0.1085  0.4345 -0.1562
17870TIP3    H275102   6.223   5.598   1.314  0.5631 -1.0714 -0.0295
17871TIP3   OH275103   4.527   4.354  11.199  0.0916  0.4586 -0.1065
17871TIP3    H175104   4.564   4.442  11.194  1.4397  0.0209  1.4132
17871TIP3    H275105   4.567   4.306  11.126 -1.7059  1.4200 -1.8048
17872TIP3   OH275106   3.705   3.673  10.110  0.0336  0.3430 -0.7479
17872TIP3    H175107   3.790   3.716  10.095 -0.1573  0.1287 -2.6884
17872TIP3    H275108   3.683   3.633  10.026 -1.9974  0.3698 -0.2824
17873TIP3   OH275109   2.384   0.010  14.860 -0.6468 -0.4497  0.4219
17873TIP3    H175110   2.289   0.008  14.864 -0.7163 -4.5315  1.2052
17873TIP3    H275111   2.413  -0.046  14.933  2.4146  1.2090  0.6721
17874TIP3   OH275112   2.821   0.094  17.033  0.4078 -0.2197 -0.1952
17874TIP3    H175113   2.871   0.028  16.984  0.1683 -0.4804 -0.0867
17874TIP3    H275114   2.869   0.104  17.115  1.1337  0.6311 -0.7029
17875TIP3   OH275115   4.201   6.596  16.791  0.1420  0.2026 -0.0907
17875TIP3    H175116   4.152   6.672  16.822  2.5326  2.8901 -2.2624
17875TIP3    H275117   4.156   6.569  16.711 -0.9085 -0.9795  0.8633
17876TIP3   OH275118   2.211   0.684   5.213  0.2518 -0.4359  0.1490
17876TIP3    H175119   2.160   0.610   5.183 -0.2880 -0.1898  0.4460
17876TIP3    H275120   2.149   0.739   5.261  0.4796  0.5672 -0.6741
17877TIP3   OH275121   6.435   1.382  11.085 -0.8966  0.2160  0.5604
17877TIP3    H175122   6.482   1.446  11.033  1.0754 -3.2541 -2.4405
17877TIP3    H275123   6.492   1.365  11.160  0.7915 -1.0189 -0.9194
17878TIP3   OH275124   0.974   3.596   4.188  0.1005 -0.1870 -0.2093
17878TIP3    H175125   0.963   3.612   4.094  0.4942  0.7044 -0.1149
17878TIP3    H275126   1.015   3.676   4.221 -1.6859  0.2694  1.0566
17879TIP3   OH275127   5.444   2.543  11.104 -0.2243  0.5019  0.1215
17879TIP3    H175128   5.424   2.467  11.158  0.3246  0.9144  0.9249
17879TIP3    H275129   5.537   2.532  11.081 -0.5652  0.0906 -1.1432
17880TIP3   OH275130   2.938   4.137  15.753 -0.3742  0.0631  0.3160
17880TIP3    H175131   2.916   4.230  15.742  1.8597  0.6107 -0.0518
17880TIP3    H275132   3.017   4.138  15.808  0.7184 -1.5023 -1.1479
17881TIP3   OH275133   2.294   6.196  13.601  0.4170  0.0013 -0.2910
17881TIP3    H175134   2.230   6.264  13.577 -1.2934 -0.5612  2.2598
17881TIP3    H275135   2.331   6.226  13.684  0.9380 -1.3385 -0.0158
17882TIP3   OH275136   5.165   3.201  16.545  0.0027 -0.0245  0.4195
17882TIP3    H175137   5.071   3.193  16.528  0.0719  0.6765 -0.3248
17882TIP3    H275138   5.207   3.155  16.472  0.2707  1.7269 -0.5796
17883TIP3   OH275139   0.793   1.748   2.382 -0.0516  0.4001  0.1923
17883TIP3    H175140   0.865   1.800   2.419 -0.0721  1.2496 -0.9079
17883TIP3    H275141   0.833   1.663   2.364  0.4685  0.6056  0.3344
17884TIP3   OH275142   3.578   5.479  16.302  0.1666 -0.7213 -0.7777
17884TIP3    H175143   3.503   5.444  16.349 -0.4647 -0.2272 -1.4066
17884TIP3    H275144   3.654   5.434  16.341 -0.5755 -2.5726 -1.3382
17885TIP3   OH275145   2.623   4.020  11.385  0.5627  0.9410  0.0215
17885TIP3    H175146   2.547   4.012  11.443 -0.9228  1.0926 -1.8187
17885TIP3    H275147   2.693   3.976  11.432 -1.3098 -1.5926  0.7001
17886TIP3   OH275148   0.154   4.052  14.903  0.7372 -0.2508 -0.0307
17886TIP3    H175149   0.223   4.112  14.875 -0.5703  0.8311 -1.0333
17886TIP3    H275150   0.152   4.060  14.998  1.5735  0.1751 -0.0426
17887TIP3   OH275151   3.175   2.637   4.849 -0.8214  0.1868  0.0727
17887TIP3    H175152   3.090   2.606   4.817 -0.8137 -1.8089  1.7911
17887TIP3    H275153   3.214   2.561   4.892  0.9666  1.6084  1.1137
17888TIP3   OH275154   4.804   1.076  16.537  0.2246  0.2905  0.2732
17888TIP3    H175155   4.895   1.048  16.531  0.0872  0.0964 -1.4082
17888TIP3    H275156   4.804   1.166  16.504 -0.1750  0.3160  0.3330
17889TIP3   OH275157   4.129   2.356  13.922 -0.4894 -0.1682 -0.4566
17889TIP3    H175158   4.076   2.384  13.997  0.0936  0.7214 -0.3666
17889TIP3    H275159   4.219   2.355  13.955 -0.2992 -0.4201 -0.9653
17890TIP3   OH275160   0.785   3.031  11.982 -0.0795 -0.5020 -0.5229
17890TIP3    H175161   0.816   3.086  12.053 -0.8419  0.0476 -0.6075
17890TIP3    H275162   0.719   3.084  11.937 -0.6755 -1.3965 -0.7337
17891TIP3   OH275163   3.760   5.144  13.307 -0.0020  0.3298  0.2786
17891TIP3    H175164   3.742   5.209  13.375 -0.2685  0.7706 -0.2031
17891TIP3    H275165   3.700   5.072  13.326 -0.9446  0.9682 -0.1935
17892TIP3   OH275166   4.521   2.293   3.815 -0.4771  0.5094 -0.1194
17892TIP3    H175167   4.487   2.315   3.728  1.9354  1.2996 -0.9650
17892TIP3    H275168   4.524   2.376   3.861 -1.0408  0.2103  0.4679
17893TIP3   OH275169   6.067   5.350  16.301 -0.2510  0.0224 -0.2481
17893TIP3    H175170   6.061   5.261  16.266 -2.5380  0.3375 -0.8051
17893TIP3    H275171   6.053   5.341  16.395 -0.8964 -0.1870 -0.3593
17894TIP3   OH275172   0.167   2.660   2.962  0.5628  0.3290  0.0078
17894TIP3    H175173   0.091   2.603   2.958  0.0879  0.9940 -1.3842
17894TIP3    H275174   0.153   2.714   3.040 -0.1432  0.1139  0.0362
17895TIP3   OH275175   3.081   0.331   1.928  0.4327  0.1580  0.3038
17895TIP3    H175176   3.080   0.246   1.972  0.0492  0.3204  0.6109
17895TIP3    H275177   3.018   0.323   1.857 -1.3185  0.9027  1.7103
17896TIP3   OH275178   1.056   2.919  16.938 -0.5883 -0.0780  0.6280
17896TIP3    H175179   1.020   2.834  16.910  1.2036 -0.3135 -1.2192
17896TIP3    H275180   1.135   2.896  16.986  0.1523  0.5389 -0.2773
17897TIP3   OH275181   0.309   2.141  15.459 -0.2689 -0.5651 -0.4374
17897TIP3    H175182   0.402   2.124  15.474 -0.1015  0.0937 -0.6994
17897TIP3    H275183   0.267   2.124  15.543  0.1775 -0.2260 -0.1423
17898TIP3   OH275184   4.375   2.187  16.735 -0.1228 -0.2344 -0.0517
17898TIP3    H175185   4.410   2.112  16.687  0.8921 -0.1661  0.5574
17898TIP3    H275186   4.280   2.177  16.729 -0.0207 -2.0145  0.6858
17899TIP3   OH275187   4.949   1.232   0.019  0.0211  0.2060  0.7099
17899TIP3    H175188   5.004   1.169   0.067  0.8833 -1.7515 -2.5140
17899TIP3    H275189   4.861   1.218   0.054  0.8039 -0.0077  2.7268
17900TIP3   OH275190   6.240   2.721  13.624 -0.0834  0.6918  0.6024
17900TIP3    H175191   6.164   2.719  13.682  0.0543  0.7003  0.7846
17900TIP3    H275192   6.232   2.642  13.572  0.1075  0.3788  1.0394
17901TIP3   OH275193   2.721   0.266  12.577  0.2991  0.6823  0.2084
17901TIP3    H175194   2.742   0.217  12.497  2.2703  1.3269  0.2886
17901TIP3    H275195   2.685   0.200  12.637  0.4664 -0.1504 -0.5932
17902TIP3   OH275196   2.434   3.044   0.497  0.0703 -0.1500  0.3942
17902TIP3    H175197   2.399   3.096   0.424  0.0775  1.3051  1.3923
17902TIP3    H275198   2.365   2.981   0.515  0.1129 -0.6174 -0.9320
17903TIP3   OH275199   5.879   4.265   0.445 -0.6011  0.2613 -0.2475
17903TIP3    H175200   5.931   4.283   0.523 -1.2165  1.9261 -0.1691
17903TIP3    H275201   5.936   4.212   0.390  0.6428  0.8212  0.4473
17904TIP3   OH275202   6.159   3.837  15.492  0.1116  0.1046  0.1713
17904TIP3    H175203   6.199   3.808  15.410 -0.5553 -1.8396  0.4902
17904TIP3    H275204   6.125   3.758  15.532  1.1584  0.8460  2.7737
17905TIP3   OH275205   2.863   3.144  13.735 -0.2181 -0.2519 -0.4085
17905TIP3    H175206   2.935   3.148  13.673 -0.3581  0.6728 -0.5294
17905TIP3    H275207   2.876   3.219  13.793 -0.6531 -0.5159  0.0427
17906TIP3   OH275208   5.978   5.309  13.935 -0.4555  0.6986  0.3669
17906TIP3    H175209   5.957   5.337  13.846  1.1834  2.1401  0.3749
17906TIP3    H275210   6.062   5.352  13.954 -0.2620 -0.4095  2.2318
17907TIP3   OH275211   3.605   4.737  15.536  0.1556 -0.5379  0.7809
17907TIP3    H175212   3.628   4.645  15.545  1.2030 -0.2764  0.8422
17907TIP3    H275213   3.517   4.743  15.575  0.2627 -1.4133  1.1895
17908TIP3   OH275214   2.192   1.445  14.487  0.3024  0.3178 -0.2386
17908TIP3    H175215   2.255   1.514  14.470  0.7601  1.0447  3.5169
17908TIP3    H275216   2.113   1.491  14.515 -1.1602 -0.6515 -2.4765
17909TIP3   OH275217   4.131   3.930  12.960 -0.1362  0.2902  0.2088
17909TIP3    H175218   4.061   3.987  12.992 -1.8756 -1.5522 -0.1648
17909TIP3    H275219   4.127   3.940  12.864 -0.0800 -0.0546  0.1707
17910TIP3   OH275220   0.928   4.890  15.348  0.2190 -0.6372  0.8020
17910TIP3    H175221   0.981   4.891  15.428  1.1892  1.3597  0.2031
17910TIP3    H275222   0.947   4.974  15.306 -1.1368 -1.1622 -0.9721
17911TIP3   OH275223   5.640   2.845   3.970 -0.4580  0.3918 -0.6514
17911TIP3    H175224   5.613   2.755   3.987  1.3241  0.0521  0.7553
17911TIP3    H275225   5.614   2.862   3.880 -1.4823 -1.2742 -0.7029
17912TIP3   OH275226   1.339   0.605   5.618  0.3619 -0.3635  0.3961
17912TIP3    H175227   1.322   0.532   5.559 -1.9327  0.6007 -0.2500
17912TIP3    H275228   1.372   0.565   5.698 -1.3416 -2.1763  0.2491
17913TIP3   OH275229   1.621   5.474   4.859 -0.9777 -0.3120 -0.4580
17913TIP3    H175230   1.614   5.565   4.888 -1.1028 -0.3151 -0.4785
17913TIP3    H275231   1.687   5.476   4.790 -0.1821 -0.4086  0.2711
17914TIP3   OH275232   0.723   4.237  13.373  0.3317 -0.2190 -0.4055
17914TIP3    H175233   0.736   4.156  13.324 -1.1004 -0.4364 -0.4620
17914TIP3    H275234   0.779   4.226  13.451  1.5533 -0.4573 -1.2900
17915TIP3   OH275235   3.121   4.403  13.989 -0.8776 -0.5351 -0.0783
17915TIP3    H175236   3.026   4.407  13.996 -0.9475 -0.0855 -1.0280
17915TIP3    H275237   3.140   4.433  13.900  0.1333 -0.9203 -0.0165
17916TIP3   OH275238   2.501   0.810  16.169 -0.0507 -0.3808 -0.1433
17916TIP3    H175239   2.555   0.758  16.109  0.3495 -1.5622  1.1899
17916TIP3    H275240   2.460   0.745  16.226  0.3388  0.7388  1.4789
17917TIP3   OH275241   6.791   5.956  13.880 -0.3659  0.2612 -0.9695
17917TIP3    H175242   6.742   6.037  13.897 -0.7321 -0.1615  0.0735
17917TIP3    H275243   6.738   5.887  13.919  0.6646 -0.3091 -0.5223
17918TIP3   OH275244   3.424   0.650  14.909 -0.3674  0.1094  0.6926
17918TIP3    H175245   3.424   0.587  14.837 -0.5968  2.2774 -1.3144
17918TIP3    H275246   3.513   0.687  14.909 -0.0676 -0.5352  2.1987
17919TIP3   OH275247   2.693   0.432  12.230 -0.1656  0.2093  0.2283
17919TIP3    H175248   2.697   0.475  12.316  1.8146  1.4201 -0.4093
17919TIP3    H275249   2.713   0.501  12.167 -1.9775 -0.5708 -1.2954
17920TIP3   OH275250   6.331   2.779   4.174 -0.3215 -0.0089 -0.4403
17920TIP3    H175251   6.308   2.868   4.199  0.3638 -0.2545  1.2372
17920TIP3    H275252   6.289   2.724   4.240  0.1776 -0.8411 -0.7948
17921TIP3   OH275253   3.931   6.524   4.628 -0.4911 -0.3650 -0.1884
17921TIP3    H175254   3.851   6.532   4.680 -1.5367 -0.6382 -1.6887
17921TIP3    H275255   3.956   6.432   4.636 -0.5501 -0.3684 -0.0429
17922TIP3   OH275256   3.970   0.660   5.517  0.4132 -0.2369  0.3703
17922TIP3    H175257   4.062   0.633   5.523  0.5141  0.2640  1.1358
17922TIP3    H275258   3.928   0.589   5.468  1.2175 -0.4354 -0.0490
17923TIP3   OH275259   6.642   6.690   0.131  0.1044  0.1471 -0.4162
17923TIP3    H175260   6.731   6.668   0.103  0.4521  1.6492 -0.5745
17923TIP3    H275261   6.654   6.762   0.194 -1.0813  1.7941 -1.9821
17924TIP3   OH275262   2.576   1.872   1.815  0.2825  0.4325  0.0760
17924TIP3    H175263   2.528   1.954   1.804  0.5429  0.5449 -0.2290
17924TIP3    H275264   2.548   1.840   1.901 -0.7538  0.2197 -0.3183
17925TIP3   OH275265   0.779   3.147   4.376  0.1859  0.0212 -0.1352
17925TIP3    H175266   0.784   3.243   4.376 -0.5155  0.0708 -1.0696
17925TIP3    H275267   0.738   3.125   4.293  1.8927 -1.1940 -0.7070
17926TIP3   OH275268   1.955   6.733   5.209 -0.3969 -0.2360 -0.1905
17926TIP3    H175269   1.937   6.827   5.204 -0.7234 -0.0850  2.4736
17926TIP3    H275270   1.870   6.692   5.193 -0.7542  0.0505  0.8394
17927TIP3   OH275271   5.439   2.715  11.464  0.2951 -0.1563  0.3240
17927TIP3    H175272   5.386   2.782  11.420  0.5464 -0.0035  0.2536
17927TIP3    H275273   5.490   2.674  11.395 -0.3318 -0.8657  0.2720
17928TIP3   OH275274   6.354   1.040  12.356 -0.6309 -0.2283  0.6361
17928TIP3    H175275   6.396   1.113  12.400  1.0646  0.6184 -2.1625
17928TIP3    H275276   6.310   1.079  12.280 -0.1243 -1.9926 -0.6443
17929TIP3   OH275277   4.696   4.028  15.837  0.3274  0.2562  0.9112
17929TIP3    H175278   4.746   3.970  15.779 -0.5381  0.7249 -0.3650
17929TIP3    H275279   4.681   3.977  15.916 -0.0086 -1.0951  0.0099
17930TIP3   OH275280   4.865   4.870   3.740 -0.0306 -0.3125 -0.0304
17930TIP3    H175281   4.939   4.888   3.798 -0.7274  0.9780  0.4833
17930TIP3    H275282   4.829   4.788   3.773 -1.2901  1.0868  2.3512
17931TIP3   OH275283   5.731   2.288   2.760  0.5392  0.3184  0.0913
17931TIP3    H175284   5.671   2.331   2.699  0.4742  0.5887  0.3427
17931TIP3    H275285   5.678   2.219   2.800  1.1183 -1.1858 -1.5844
17932TIP3   OH275286   4.060   6.068  12.256 -0.0404 -0.1674  0.2707
17932TIP3    H175287   3.999   6.084  12.328  1.5522 -0.6579  1.8004
17932TIP3    H275288   4.039   6.136  12.192 -0.6738  1.1321  1.7755
17933TIP3   OH275289   2.742   0.074  15.280 -0.1730  0.5143  0.3691
17933TIP3    H175290   2.651   0.056  15.255 -0.4446 -1.8370  2.6768
17933TIP3    H275291   2.735   0.107  15.369  1.3092 -1.3776  1.2297
17934TIP3   OH275292   4.684   6.493  16.231  0.2622 -0.1241 -0.2957
17934TIP3    H175293   4.667   6.421  16.291  0.1907 -0.1990 -0.4053
17934TIP3    H275294   4.618   6.559  16.252  1.8782  1.0058  1.5391
17935TIP3   OH275295   2.040   0.090   1.152 -0.2326 -0.5643 -0.0785
17935TIP3    H175296   2.016   0.005   1.114  0.2275 -0.4993 -0.5304
17935TIP3    H275297   1.966   0.114   1.207  0.1447 -1.8541  1.0576
17936TIP3   OH275298   1.938   1.061  14.944 -0.1136  0.2541 -0.1265
17936TIP3    H175299   1.936   0.996  15.014  0.2425  0.8061  0.3989
17936TIP3    H275300   1.886   1.021  14.873  0.6197 -0.8678 -0.0562
17937TIP3   OH275301   2.141   3.705  14.591 -0.0143  0.3906  0.2828
17937TIP3    H175302   2.158   3.798  14.604 -0.6557  0.2727  2.2419
17937TIP3    H275303   2.046   3.699  14.581  0.0980  0.0121 -0.7348
17938TIP3   OH275304   3.582   0.859  16.090 -0.0608 -0.1530  0.1431
17938TIP3    H175305   3.503   0.812  16.064 -0.0451 -1.1337  1.7297
17938TIP3    H275306   3.550   0.946  16.118 -0.3506  0.0504 -0.7824
17939TIP3   OH275307   2.283   2.950  10.367 -0.3165 -0.6390  0.4413
17939TIP3    H175308   2.310   2.878  10.424 -0.5069 -0.3299  0.9203
17939TIP3    H275309   2.355   3.013  10.371 -1.1544  0.2668  1.8573
17940TIP3   OH275310   5.016   3.884  14.049 -0.0923 -0.0417  0.1512
17940TIP3    H175311   5.108   3.908  14.052 -0.0532 -0.1038 -0.4949
17940TIP3    H275312   4.969   3.963  14.075  0.0887  0.4017 -0.8151
17941TIP3   OH275313   2.512   4.321   5.148 -0.0799  0.0280 -0.4080
17941TIP3    H175314   2.586   4.275   5.108  0.3946  1.1978 -0.9236
17941TIP3    H275315   2.454   4.252   5.177  0.5891 -0.8973 -1.2076
17942TIP3   OH275316   5.143   5.970   3.384 -0.0883  0.4580 -0.2931
17942TIP3    H175317   5.125   6.064   3.379 -0.6650  0.2925 -2.1801
17942TIP3    H275318   5.062   5.932   3.416 -0.3869  0.4757 -1.0081
17943TIP3   OH275319   3.441   0.688   0.443 -0.6607  0.4142 -0.0730
17943TIP3    H175320   3.364   0.718   0.491 -0.8364  1.1762 -0.8108
17943TIP3    H275321   3.462   0.603   0.482 -0.5693  1.1738  1.5795
17944TIP3   OH275322   0.864   3.753  16.396  0.6690  0.1589  0.1202
17944TIP3    H175323   0.823   3.760  16.482  0.3669 -1.2434  0.1191
17944TIP3    H275324   0.887   3.661  16.388 -0.1798  0.0520 -1.6689
17945TIP3   OH275325   2.425   4.501  16.504  0.2569 -1.0799  0.5756
17945TIP3    H175326   2.506   4.488  16.555  1.3646 -1.8888 -1.2830
17945TIP3    H275327   2.452   4.488  16.413 -1.5629  0.7042 -0.2899
17946TIP3   OH275328   1.883   2.838  11.332 -0.1977  0.4109 -0.6066
17946TIP3    H175329   1.949   2.907  11.340  2.1507 -1.7923  0.6067
17946TIP3    H275330   1.924   2.773  11.274 -0.7085 -1.5688  1.1295
17947TIP3   OH275331   4.744   0.740   1.471 -0.3037  0.0908 -0.0607
17947TIP3    H175332   4.812   0.674   1.486 -0.2970 -0.2666 -1.5105
17947TIP3    H275333   4.695   0.743   1.553  0.5156 -0.7477  0.4883
17948TIP3   OH275334   0.658   6.811  14.671 -0.5269 -0.0762  0.4238
17948TIP3    H175335   0.632   6.852  14.753 -0.2454  2.1470 -0.5022
17948TIP3    H275336   0.650   6.882  14.606  1.7490 -0.9931 -0.9921
17949TIP3   OH275337   0.507   1.821   6.244 -0.0841  0.2437 -0.1760
17949TIP3    H175338   0.506   1.915   6.227 -1.2044  0.1771 -0.5575
17949TIP3    H275339   0.569   1.811   6.316  0.8684  1.1356 -0.8354
17950TIP3   OH275340   0.717   4.817  14.422 -0.2070  0.2509 -0.1477
17950TIP3    H175341   0.694   4.737  14.376  2.1244 -0.5707 -0.0016
17950TIP3    H275342   0.752   4.875  14.355 -0.7740  0.7165 -0.0570
17951TIP3   OH275343   2.354   4.075  15.987 -0.1165  0.0395 -0.8170
17951TIP3    H175344   2.417   4.093  15.918 -0.8137 -0.0517 -1.4932
17951TIP3    H275345   2.404   4.028  16.054  0.9632  1.5577 -0.4914
17952TIP3   OH275346   6.612   6.045   4.482  0.1922 -0.0874  0.2094
17952TIP3    H175347   6.624   5.991   4.404 -2.9195 -0.2719 -0.2358
17952TIP3    H275348   6.592   6.132   4.448  2.0784  0.6929  0.9131
17953TIP3   OH275349   4.540   3.109  15.455 -0.1202 -0.4356  0.2914
17953TIP3    H175350   4.634   3.103  15.472 -0.1061  0.8068  0.7969
17953TIP3    H275351   4.514   3.021  15.430  0.9983 -1.0151  1.0964
17954TIP3   OH275352   6.294   4.698  15.739 -0.2005  0.0531 -0.6318
17954TIP3    H175353   6.259   4.783  15.766  1.5793  0.4492  0.6081
17954TIP3    H275354   6.323   4.711  15.649  0.7571  1.0188 -0.2091
17955TIP3   OH275355   6.469   2.987  11.652  0.0247 -0.1208  0.0498
17955TIP3    H175356   6.409   3.057  11.624  0.2870 -0.4554 -1.3972
17955TIP3    H275357   6.545   3.033  11.687 -1.1016  0.3166  2.0773
17956TIP3   OH275358   2.335   4.435   3.948 -0.1124 -0.1365  0.3197
17956TIP3    H175359   2.409   4.487   3.979  0.1532  0.1653 -0.7775
17956TIP3    H275360   2.267   4.500   3.928 -0.5775 -0.3899  1.0352
17957TIP3   OH275361   6.144   4.394  15.498  0.1030  1.2359  0.3550
17957TIP3    H175362   6.135   4.490  15.501  1.4086  1.3531  2.3825
17957TIP3    H275363   6.084   4.362  15.565 -0.7398  0.5699 -0.6998
17958TIP3   OH275364   1.890   3.366   1.128 -0.2034 -0.2399 -0.4065
17958TIP3    H175365   1.893   3.407   1.042  0.5451 -1.9938 -1.2474
17958TIP3    H275366   1.803   3.389   1.162 -0.2830  0.9771 -1.3368
17959TIP3   OH275367   2.487   4.463  13.952  0.1379  0.0878 -0.3377
17959TIP3    H175368   2.505   4.384  13.901 -3.0265 -0.5849 -0.5948
17959TIP3    H275369   2.447   4.523  13.889  0.0905  0.8975  0.4523
17960TIP3   OH275370   3.899   5.229   4.829  0.3316 -0.0965  0.0637
17960TIP3    H175371   3.941   5.192   4.752  2.1732 -2.0245  1.8515
17960TIP3    H275372   3.962   5.294   4.861 -0.0526  0.1323  0.3630
17961TIP3   OH275373   3.041   3.807  10.171  0.0314  0.8500 -0.2320
17961TIP3    H175374   3.092   3.883  10.197  0.4413  0.7336 -0.6776
17961TIP3    H275375   2.951   3.830  10.193  0.2352  1.1830  0.2710
17962TIP3   OH275376   2.859   6.329  14.988 -0.2802 -0.0431 -0.0299
17962TIP3    H175377   2.893   6.241  15.003 -0.0031 -0.2209 -1.5659
17962TIP3    H275378   2.836   6.331  14.895  1.0826  1.9597 -0.3836
17963TIP3   OH275379   0.652   2.504   6.066  0.3004  0.6730 -0.0462
17963TIP3    H175380   0.732   2.556   6.071  1.1323 -0.5812  0.3841
17963TIP3    H275381   0.680   2.422   6.025 -0.2517 -0.6698  2.1098
17964TIP3   OH275382   4.560   5.420   4.016  0.0964 -0.1379 -0.5683
17964TIP3    H175383   4.530   5.480   4.084  0.3283  0.2021 -0.7597
17964TIP3    H275384   4.546   5.468   3.934  0.1749 -0.3918 -0.7311
17965TIP3   OH275385   5.154   0.010   4.139  0.0984 -0.1263  0.1781
17965TIP3    H175386   5.089  -0.014   4.205  0.0055 -1.3542 -0.3311
17965TIP3    H275387   5.237  -0.024   4.173  0.2915  0.4616  0.3055
17966TIP3   OH275388   0.605   5.632   1.581 -0.4729  0.6726  0.5249
17966TIP3    H175389   0.587   5.652   1.672  0.4130 -1.7229  1.3251
17966TIP3    H275390   0.601   5.536   1.576  0.6772  0.6548 -1.6654
17967TIP3   OH275391   0.772   4.599  14.680 -0.5893 -0.0115 -0.4928
17967TIP3    H175392   0.687   4.642  14.671 -0.9581 -0.8014 -0.9568
17967TIP3    H275393   0.751   4.514  14.719  0.0930  0.1268  0.1994
17968TIP3   OH275394   3.437   2.380   2.728 -0.2218 -0.1500 -0.3008
17968TIP3    H175395   3.503   2.341   2.671  1.1349  1.5056  0.0582
17968TIP3    H275396   3.378   2.426   2.669 -1.2482 -1.8354 -0.6451
17969TIP3   OH275397   4.560   3.782   1.576 -0.3221  0.7148  0.5317
17969TIP3    H175398   4.553   3.874   1.550  2.2166  0.6015 -0.9287
17969TIP3    H275399   4.635   3.749   1.527 -1.6965 -2.4282  0.2602
17970TIP3   OH275400   3.446   6.394   3.154 -0.4987 -0.2176  0.0777
17970TIP3    H175401   3.383   6.463   3.177 -1.1482 -0.3571 -1.2132
17970TIP3    H275402   3.521   6.442   3.118 -0.7668 -0.1566 -0.4051
17971TIP3   OH275403   5.985   0.000  15.437  0.1980 -0.0748  0.1639
17971TIP3    H175404   6.042   0.076  15.426  2.3237 -1.6973 -0.5515
17971TIP3    H275405   5.977  -0.037  15.349 -0.9862 -0.6088  0.4710
17972TIP3   OH275406   4.733   2.805  12.454  0.1921  0.2745 -0.0844
17972TIP3    H175407   4.664   2.803  12.388 -0.3869 -0.6065  0.5318
17972TIP3    H275408   4.814   2.800  12.404 -0.2431 -0.5782 -0.7332
17973TIP3   OH275409   6.113   5.822   4.591 -0.0185  0.0429 -0.3310
17973TIP3    H175410   6.186   5.876   4.562 -0.4049  0.4700 -0.5276
17973TIP3    H275411   6.125   5.739   4.546  0.9423 -0.2758  0.4734
17974TIP3   OH275412   1.788   2.082  15.235 -0.2089  0.6636  0.1767
17974TIP3    H175413   1.862   2.122  15.189 -0.4081  1.6591  0.6904
17974TIP3    H275414   1.819   2.069  15.325 -0.3340  0.1525  0.1513
17975TIP3   OH275415   2.824   4.852   3.122 -0.0319 -0.0809  0.3069
17975TIP3    H175416   2.888   4.805   3.068  0.3204 -0.4792  1.0471
17975TIP3    H275417   2.831   4.811   3.208  1.4751  2.3594  1.4662
17976TIP3   OH275418   6.124   6.210  15.580 -0.3612 -0.1813 -0.7879
17976TIP3    H175419   6.034   6.179  15.570 -0.1397 -1.1977  0.1057
17976TIP3    H275420   6.117   6.280  15.645 -0.3958 -0.9582  0.0694
17977TIP3   OH275421   3.719   6.564  12.384 -0.0082 -0.3400  0.2003
17977TIP3    H175422   3.715   6.471  12.406  0.4436 -0.6988 -1.1451
17977TIP3    H275423   3.634   6.583  12.344 -0.4336  0.0610  1.2411
17978TIP3   OH275424   5.823   2.728   2.627  0.7201 -0.0783  0.3213
17978TIP3    H175425   5.814   2.813   2.669  1.4811  0.9477 -1.5225
17978TIP3    H275426   5.910   2.698   2.652  0.4406 -0.3598  0.9949
17979TIP3   OH275427   2.669   4.575   5.358 -0.0351 -0.6691 -0.5261
17979TIP3    H175428   2.737   4.520   5.395  0.6778  1.1222  0.9986
17979TIP3    H275429   2.587   4.534   5.386  0.4408 -1.6125 -0.4768
17980TIP3   OH275430   2.144   3.545   4.555  0.0540 -0.0445 -0.2826
17980TIP3    H175431   2.088   3.574   4.482  0.5361  2.2173  0.1944
17980TIP3    H275432   2.233   3.547   4.519  0.1898  0.0542  0.0595
17981TIP3   OH275433   1.862   2.127   4.652 -0.0799 -0.0555 -0.3779
17981TIP3    H175434   1.934   2.150   4.594 -1.6686  1.7683 -1.7794
17981TIP3    H275435   1.891   2.156   4.739  0.8035  0.8459 -0.9463
17982TIP3   OH275436   0.302   1.032   3.091  0.1730 -0.0616 -0.1050
17982TIP3    H175437   0.395   1.036   3.113 -0.2590 -0.1766  1.9405
17982TIP3    H275438   0.298   0.971   3.017  1.7356  0.1253 -0.3871
17983TIP3   OH275439   6.309   4.459   4.306  0.9441  0.2623  0.0828
17983TIP3    H175440   6.337   4.488   4.219 -0.6245  0.1499 -0.4827
17983TIP3    H275441   6.353   4.519   4.367  0.8375  1.3322 -0.8636
17984TIP3   OH275442   1.165   5.343  14.392 -0.6218  0.0448  0.4293
17984TIP3    H175443   1.206   5.423  14.424  0.0902 -1.0536  2.4437
17984TIP3    H275444   1.232   5.275  14.405 -1.7811 -1.1643  0.3123
17985TIP3   OH275445   4.737   4.261   3.360  0.3491 -0.1630 -0.1833
17985TIP3    H175446   4.765   4.351   3.342 -1.4342  0.4579 -0.0152
17985TIP3    H275447   4.733   4.256   3.455 -3.0546  0.8116 -0.1511
17986TIP3   OH275448   5.563   1.790   2.219  0.1618 -0.5740 -0.4840
17986TIP3    H175449   5.546   1.702   2.185  0.3585 -0.4634 -0.8736
17986TIP3    H275450   5.568   1.779   2.314 -0.1372 -0.9291 -0.5068
17987TIP3   OH275451   2.212   4.562  16.681 -0.2314  0.0309  0.6119
17987TIP3    H175452   2.276   4.536  16.615  0.3346  0.1029  1.1214
17987TIP3    H275453   2.129   4.530  16.648 -0.2225  1.4265 -0.9195
17988TIP3   OH275454   5.549   0.748  11.280  0.5782 -0.5431 -0.1289
17988TIP3    H175455   5.570   0.811  11.349  0.8143  0.1122 -0.7910
17988TIP3    H275456   5.610   0.675  11.294  0.6045 -0.4280  0.3668
17989TIP3   OH275457   4.071   2.535   2.561  0.1172 -0.1034  0.4654
17989TIP3    H175458   4.022   2.470   2.510  1.2649  2.0117 -3.7942
17989TIP3    H275459   4.162   2.521   2.536  0.4903  2.4057  0.2170
17990TIP3   OH275460   4.117   1.295   2.893 -0.4373  0.0960 -0.1708
17990TIP3    H175461   4.094   1.339   2.811 -0.1217  1.6602  0.5425
17990TIP3    H275462   4.143   1.366   2.952 -0.6355 -0.9931  1.2863
17991TIP3   OH275463   6.266   4.372   2.178 -0.3459  0.5287 -0.2556
17991TIP3    H175464   6.248   4.444   2.118 -2.0801  0.6964  0.4299
17991TIP3    H275465   6.187   4.363   2.230  0.2377 -1.1791  0.4092
17992TIP3   OH275466   5.107   5.970  16.492  0.3330  0.2029 -0.6959
17992TIP3    H175467   5.122   5.891  16.545  0.7446  0.1807 -0.8425
17992TIP3    H275468   5.032   6.012  16.534  0.6556  0.1911 -0.0811
17993TIP3   OH275469   5.572   5.597  16.816 -0.5982 -0.3552  0.2922
17993TIP3    H175470   5.607   5.624  16.731 -2.2036 -1.0105 -0.6289
17993TIP3    H275471   5.642   5.545  16.856 -0.3252 -1.2241 -1.2602
17994TIP3   OH275472   6.040   6.604  11.393  0.0509  0.6414 -0.7444
17994TIP3    H175473   6.084   6.687  11.408  0.5941  0.1755  0.3188
17994TIP3    H275474   6.106   6.549  11.350 -0.6388  1.0712 -2.4650
17995TIP3   OH275475   1.433   2.512  12.709  0.0751 -0.0947 -0.1628
17995TIP3    H175476   1.492   2.437  12.705 -1.0365 -1.1581  1.9238
17995TIP3    H275477   1.449   2.552  12.794  0.4695  1.9476 -1.1439
17996TIP3   OH275478   1.393   4.659  10.492  0.2581  0.6729  0.0805
17996TIP3    H175479   1.335   4.619  10.426  1.9790 -0.5666 -0.7760
17996TIP3    H275480   1.478   4.617  10.477  0.9399  1.0618  2.5096
17997TIP3   OH275481   1.567   3.186   1.098 -0.4604 -0.1585  0.2477
17997TIP3    H175482   1.649   3.167   1.051 -0.1370  1.1244  0.2537
17997TIP3    H275483   1.595   3.206   1.188 -1.0038 -1.8327  0.8325
17998TIP3   OH275484   6.123   2.471   4.819 -0.1711  0.1459  0.2235
17998TIP3    H175485   6.106   2.427   4.902 -4.0403  2.1893  0.7727
17998TIP3    H275486   6.197   2.528   4.836 -1.1580  0.8587  2.5007
17999TIP3   OH275487   3.899   3.119  13.121  1.1744 -0.2083  0.0740
17999TIP3    H175488   3.944   3.065  13.185  0.4841 -1.9759 -0.8817
17999TIP3    H275489   3.917   3.077  13.037  2.1183  2.0851 -0.9527
18000TIP3   OH275490   5.822   1.784   1.051 -0.3004 -0.0957  0.7164
18000TIP3    H175491   5.860   1.870   1.068 -0.9703  0.2909  0.2764
18000TIP3    H275492   5.897   1.724   1.054  0.1002  0.4296  1.4976
18001TIP3   OH275493   4.204   2.819   1.297 -0.0983 -0.6990  1.3081
18001TIP3    H175494   4.219   2.824   1.391  0.6359 -0.8103  1.2037
18001TIP3    H275495   4.164   2.733   1.283 -1.5234 -0.1284  1.6739
18002TIP3   OH275496   4.192   3.181   5.249  0.0015 -0.1837  0.2165
18002TIP3    H175497   4.137   3.234   5.191  0.1056 -2.1609 -1.8343
18002TIP3    H275498   4.129   3.127   5.297  0.0177 -1.1218 -0.7727
18003TIP3   OH275499   5.930   4.256  14.171 -0.1583  0.5803  0.3503
18003TIP3    H175500   5.964   4.235  14.084 -2.5345 -3.1637  0.0940
18003TIP3    H275501   5.865   4.324  14.155 -0.2964  0.2091 -0.7556
18004TIP3   OH275502   5.143   2.290  11.920 -0.0999 -0.2627 -0.1565
18004TIP3    H175503   5.205   2.360  11.941 -1.1679  1.0180 -1.1489
18004TIP3    H275504   5.067   2.335  11.883 -1.8094 -1.7357  1.3491
18005TIP3   OH275505   4.026   2.918  15.586 -0.1750  0.4225  0.1179
18005TIP3    H175506   3.961   2.955  15.646 -2.1905 -2.0982 -0.3443
18005TIP3    H275507   4.022   2.823  15.603  1.5066 -0.0394 -1.7810
18006TIP3   OH275508   3.764   6.266  11.193  0.5210  0.2536 -0.1442
18006TIP3    H175509   3.826   6.320  11.145  1.9831 -0.2598  1.0770
18006TIP3    H275510   3.814   6.233  11.267 -0.7622 -1.5418 -0.0233
18007TIP3   OH275511   3.230   5.250  11.472 -0.6396 -0.8084  0.3397
18007TIP3    H175512   3.180   5.192  11.414  1.2824 -3.1227  0.8552
18007TIP3    H275513   3.201   5.225  11.560  0.4286 -1.2565  0.5800
18008TIP3   OH275514   3.890   1.852  16.281 -0.0427  0.5723  0.2702
18008TIP3    H175515   3.801   1.877  16.254 -0.4598  0.5734  1.5659
18008TIP3    H275516   3.931   1.935  16.307 -0.0051  0.4518  0.6069
18009TIP3   OH275517   1.091   6.767  15.384 -0.5696  0.7710  0.3393
18009TIP3    H175518   1.085   6.852  15.428 -0.0885  1.3759 -0.7211
18009TIP3    H275519   1.003   6.729  15.393 -0.4551  0.7982  1.9179
18010TIP3   OH275520   2.936   0.059   2.514 -0.0523 -0.0216 -0.0781
18010TIP3    H175521   2.999   0.010   2.461  0.2842 -1.1445  1.2727
18010TIP3    H275522   2.859   0.066   2.459  1.4437  2.0715 -2.0817
18011TIP3   OH275523   5.680   2.512   2.497 -0.2885  0.1906  0.6881
18011TIP3    H175524   5.619   2.489   2.568 -0.5962  0.4892  0.5246
18011TIP3    H275525   5.735   2.581   2.534  2.6393 -2.6821  2.2356
18012TIP3   OH275526   4.889   0.069   6.152  0.6721  0.6390  0.5005
18012TIP3    H175527   4.960   0.126   6.183  1.9321 -0.8122  0.3789
18012TIP3    H275528   4.832   0.128   6.102  0.9216  2.1525  1.9064
18013TIP3   OH275529   4.857   6.638  13.472 -0.5112 -0.1254  0.5198
18013TIP3    H175530   4.908   6.658  13.394  0.8064 -0.2916  1.3020
18013TIP3    H275531   4.828   6.723  13.505 -1.2595 -0.0698 -0.2528
18014TIP3   OH275532   3.931   5.599   5.722 -0.4003 -0.0322  0.4858
18014TIP3    H175533   3.850   5.575   5.767 -0.5570  0.9758  0.7793
18014TIP3    H275534   3.919   5.567   5.633 -1.9097  1.6305  0.0195
18015TIP3   OH275535   4.182   0.719  12.112 -0.1353  0.2030 -0.0216
18015TIP3    H175536   4.256   0.744  12.057 -1.9683  1.4676 -2.0709
18015TIP3    H275537   4.134   0.800  12.127 -2.4013 -0.9206 -0.8050
18016TIP3   OH275538   3.188   1.241   1.110  0.0481  0.1547  0.0546
18016TIP3    H175539   3.224   1.258   1.197 -0.1658 -1.9792  0.6188
18016TIP3    H275540   3.259   1.263   1.050  0.8503 -0.0443  0.8991
18017TIP3   OH275541   2.453   5.260   4.662 -0.0832  0.4023 -0.1107
18017TIP3    H175542   2.402   5.340   4.648  0.1161  0.9433  1.9317
18017TIP3    H275543   2.536   5.277   4.618 -0.3659  0.9469 -0.4513
18018TIP3   OH275544   2.622   2.974   0.142 -0.0357  0.4929 -0.2365
18018TIP3    H175545   2.602   2.969   0.048 -0.2762  0.2466 -0.1754
18018TIP3    H275546   2.557   2.916   0.182 -0.7223  1.5475  0.2004
18019TIP3   OH275547   5.214   6.316   3.113 -0.1411 -0.1194 -0.2072
18019TIP3    H175548   5.210   6.408   3.138 -0.6350 -0.0974 -0.3560
18019TIP3    H275549   5.126   6.296   3.081 -0.1154 -0.7116  0.0717
18020TIP3   OH275550   1.777   5.086  15.312  0.6738 -0.7124  0.4375
18020TIP3    H175551   1.838   5.131  15.370 -1.5773  1.0871  1.5668
18020TIP3    H275552   1.808   4.995  15.311  2.5584 -0.1698  2.0009
18021TIP3   OH275553   5.478   5.452  14.560  0.5989  0.2288 -0.0300
18021TIP3    H175554   5.505   5.528  14.611 -0.2097  0.7104 -0.3120
18021TIP3    H275555   5.418   5.486  14.494  0.7339 -0.5560 -0.5825
18022TIP3   OH275556   0.282   2.817  15.689 -0.1916  0.0885 -0.5356
18022TIP3    H175557   0.321   2.870  15.619  0.5313  0.4409  0.1190
18022TIP3    H275558   0.194   2.853  15.700  0.8482  2.4147  1.0916
18023TIP3   OH275559   4.009   0.299   0.173  0.3180  0.0218  0.3268
18023TIP3    H175560   3.933   0.332   0.221  0.2302 -0.9820  0.9108
18023TIP3    H275561   4.084   0.340   0.215  0.1177  0.8424 -0.1066
18024TIP3   OH275562   1.754   1.188   0.081  0.1496  0.0955 -0.2905
18024TIP3    H175563   1.739   1.263   0.139  0.8140 -0.2646  0.3634
18024TIP3    H275564   1.833   1.212   0.032  0.7109 -0.4183  0.3458
18025TIP3   OH275565   5.650   0.945  13.238  0.4255  0.1865  0.8617
18025TIP3    H175566   5.600   0.884  13.291  0.3926 -0.6356 -0.0869
18025TIP3    H275567   5.741   0.931  13.264  0.8137 -2.6127 -1.5323
18026TIP3   OH275568   6.668   4.851  14.255 -0.3522 -0.6251 -0.2742
18026TIP3    H175569   6.734   4.792  14.294 -0.0902 -1.0583 -1.3385
18026TIP3    H275570   6.624   4.890  14.330  0.4511 -1.0896  0.4611
18027TIP3   OH275571   3.895   6.709  12.530 -0.1915 -0.0905 -0.0692
18027TIP3    H175572   3.860   6.792  12.562 -0.6092 -0.1142 -0.4692
18027TIP3    H275573   3.829   6.676  12.469  0.5642 -0.0812 -0.9079
18028TIP3   OH275574   1.774   3.677   2.396 -0.1897  0.1486 -0.1103
18028TIP3    H175575   1.829   3.745   2.435  0.0130 -0.3429  0.4717
18028TIP3    H275576   1.793   3.682   2.302  0.6882  0.1405  0.0576
18029TIP3   OH275577   3.657   0.029  12.609 -0.0994 -0.3182  0.7049
18029TIP3    H175578   3.604   0.087  12.554  0.8936  0.4351  0.5051
18029TIP3    H275579   3.692   0.086  12.678  1.2514 -0.5530  0.2543
18030TIP3   OH275580   5.915   3.742   3.582  0.3381  0.4632  0.2845
18030TIP3    H175581   5.833   3.766   3.540 -0.5283 -0.7054  1.2540
18030TIP3    H275582   5.919   3.647   3.577  0.5900  0.3389  2.0925
18031TIP3   OH275583   5.569   2.883   4.825 -0.3429  0.1557 -0.4686
18031TIP3    H175584   5.590   2.835   4.904 -2.1356  0.1791  0.0607
18031TIP3    H275585   5.525   2.820   4.768  1.3908 -0.0105 -1.7204
18032TIP3   OH275586   3.795   6.194  12.941 -0.0188  0.2807 -0.1442
18032TIP3    H175587   3.750   6.270  12.977 -1.6672 -0.5065 -0.4909
18032TIP3    H275588   3.797   6.130  13.012  2.3188  0.9569  0.5072
18033TIP3   OH275589   4.961   5.781  16.945  0.1524  0.4656  0.4414
18033TIP3    H175590   4.895   5.831  16.994 -0.1507  0.0784  0.4352
18033TIP3    H275591   4.993   5.716  17.008 -1.2820 -0.9948 -0.2672
18034TIP3   OH275592   0.327   2.412  13.744  0.3807 -0.3328  0.1746
18034TIP3    H175593   0.235   2.419  13.768  0.0848 -0.8069 -0.7518
18034TIP3    H275594   0.349   2.497  13.706  0.7683  0.3122  1.7852
18035TIP3   OH275595   6.771   6.589   3.564 -0.5192  0.0614 -0.4358
18035TIP3    H175596   6.687   6.626   3.591 -0.5118 -0.5206  0.4055
18035TIP3    H275597   6.759   6.495   3.567  0.2721 -0.0364  0.0704
18036TIP3   OH275598   1.151   2.895   1.064  0.2179  0.3161  0.0657
18036TIP3    H175599   1.203   2.972   1.041 -1.7677  2.8933  3.2595
18036TIP3    H275600   1.193   2.860   1.143 -1.2151  0.7650  1.0713
18037TIP3   OH275601   6.065   5.705   1.810  0.5281  0.3236 -0.2562
18037TIP3    H175602   6.017   5.674   1.733  0.2893  0.7594 -0.2859
18037TIP3    H275603   6.114   5.629   1.841 -1.2128 -0.5024  0.5789
18038TIP3   OH275604   6.629   5.935   0.436 -0.1061  0.0896 -0.0129
18038TIP3    H175605   6.680   5.881   0.375 -1.4149 -2.2722  0.8488
18038TIP3    H275606   6.670   5.920   0.521  0.3747  1.6521  0.0626
18039TIP3   OH275607   5.170   0.033   1.433  0.3918  0.3189  0.0989
18039TIP3    H175608   5.229  -0.008   1.495  1.2441 -0.3851 -1.1384
18039TIP3    H275609   5.083  -0.001   1.456  0.8720 -0.9107  0.1137
18040TIP3   OH275610   6.232   6.283   2.117 -1.0473  0.0081  0.4218
18040TIP3    H175611   6.202   6.228   2.190 -0.9680 -0.6386 -0.0201
18040TIP3    H275612   6.325   6.297   2.134 -0.8890 -0.6440  0.1480
18041TIP3   OH275613   1.051   5.139   5.639 -0.1399 -0.1618 -0.1540
18041TIP3    H175614   0.985   5.206   5.658 -1.0084 -0.5465 -1.6500
18041TIP3    H275615   1.089   5.118   5.724 -0.0387  2.0053  0.3905
18042TIP3   OH275616   0.178   2.130  14.865  0.4439  0.3584 -0.5975
18042TIP3    H175617   0.176   2.215  14.820  2.1571  0.2662 -0.9399
18042TIP3    H275618   0.113   2.138  14.934 -1.5869  0.8674 -2.4471
18043TIP3   OH275619   0.584   0.231   0.978 -0.3752 -0.7610  0.2241
18043TIP3    H175620   0.563   0.207   1.068  1.1677 -1.7382  0.3585
18043TIP3    H275621   0.546   0.161   0.925 -0.3414 -0.7604  0.1989
18044TIP3   OH275622   1.257   2.940  16.103  0.3686 -0.4409  0.0278
18044TIP3    H175623   1.210   2.943  16.020 -0.3881  0.3671  0.4611
18044TIP3    H275624   1.302   2.855  16.103 -0.5100 -0.9202 -0.7214
18045TIP3   OH275625   2.403   5.070  13.893 -0.1800  0.5943  0.4860
18045TIP3    H175626   2.312   5.068  13.864 -0.1302  1.4981  0.2203
18045TIP3    H275627   2.414   4.989  13.943 -0.3741 -0.8194 -1.6318
18046TIP3   OH275628   4.421   4.977  12.518  0.1902  0.2949 -0.3822
18046TIP3    H175629   4.516   4.969  12.512  0.1324 -1.3587  0.2768
18046TIP3    H275630   4.388   4.898  12.474 -0.7823 -0.3967  1.5016
18047TIP3   OH275631   3.160   3.652   3.805 -0.2246 -0.6827  0.2951
18047TIP3    H175632   3.179   3.648   3.711 -1.2137 -0.5402  0.0708
18047TIP3    H275633   3.186   3.567   3.839  0.5785 -0.5683 -0.0169
18048TIP3   OH275634   1.387   1.872  11.442 -0.4329  0.0465 -0.0960
18048TIP3    H175635   1.405   1.903  11.353 -0.3411 -0.2523 -0.1814
18048TIP3    H275636   1.472   1.877  11.487  0.3601 -3.0745 -1.0094
18049TIP3   OH275637   6.842   2.408   3.889  0.4069 -0.7389 -0.0665
18049TIP3    H175638   6.831   2.473   3.819  2.2977  0.6926  0.8661
18049TIP3    H275639   6.805   2.450   3.966 -2.0605 -2.4789 -0.1824
18050TIP3   OH275640   4.364   0.676   0.171  0.6076 -0.7785 -0.7813
18050TIP3    H175641   4.301   0.637   0.233  0.6473  0.9251  0.4101
18050TIP3    H275642   4.392   0.603   0.116 -0.9680 -1.9652 -0.0985
18051TIP3   OH275643   5.969   1.981  12.594 -0.1717 -0.0811 -0.6225
18051TIP3    H175644   5.916   1.916  12.548  0.2745 -0.1830 -1.0046
18051TIP3    H275645   5.930   2.065  12.570  1.0157 -0.0076 -2.5365
18052TIP3   OH275646   0.671   1.432  15.442 -0.0411  0.1485 -0.1702
18052TIP3    H175647   0.689   1.487  15.519 -0.4610  0.9756 -0.6569
18052TIP3    H275648   0.584   1.397  15.457 -0.2108  0.4831 -0.3685
18053TIP3   OH275649   5.865   5.016   4.776  0.8348  0.3522  0.6056
18053TIP3    H175650   5.952   5.048   4.754  0.8105  0.7450  1.0746
18053TIP3    H275651   5.821   5.008   4.691  0.9515  1.2708  0.4423
18054TIP3   OH275652   4.113   5.268   5.382 -0.2438 -0.6941 -0.0328
18054TIP3    H175653   4.104   5.238   5.472 -0.0424  1.5090  0.7635
18054TIP3    H275654   4.024   5.265   5.347 -0.4362 -0.8481  0.4604
18055TIP3   OH275655   5.350   0.422  15.505 -0.0409 -0.0074 -0.5793
18055TIP3    H175656   5.315   0.406  15.417 -1.3440  0.8161 -0.2284
18055TIP3    H275657   5.423   0.360  15.513  0.0117 -0.2036 -2.1767
18056TIP3   OH275658   4.027   3.243   2.202  0.1244 -0.3768  0.2928
18056TIP3    H175659   3.961   3.237   2.134  0.4204 -0.8888  0.0462
18056TIP3    H275660   4.018   3.161   2.252  0.2331 -0.2238  0.5663
18057TIP3   OH275661   2.240   5.435   0.287 -0.6090 -0.2114 -0.0532
18057TIP3    H175662   2.327   5.461   0.317  0.3722 -0.1340 -2.6670
18057TIP3    H275663   2.202   5.516   0.251 -1.6651 -0.3104  0.8021
18058TIP3   OH275664   0.716   4.002  13.295  0.0839  0.0811 -0.0623
18058TIP3    H175665   0.663   3.999  13.215 -0.5020 -1.8660  0.3565
18058TIP3    H275666   0.668   3.949  13.358  1.6710 -0.2906  0.8842
18059TIP3   OH275667   5.164   4.407   2.378 -0.2027 -0.1841  0.2491
18059TIP3    H175668   5.259   4.418   2.376  0.0283 -1.9140  0.5780
18059TIP3    H275669   5.134   4.471   2.443  0.7683  0.0801  0.4506
18060TIP3   OH275670   4.808   2.786   3.775 -0.0282 -0.2710 -0.0771
18060TIP3    H175671   4.879   2.828   3.726  0.7972 -1.3320  0.1945
18060TIP3    H275672   4.812   2.825   3.862 -1.5257  1.6534 -0.7775
18061TIP3   OH275673   1.312   2.495   5.212 -0.0714 -0.0859  0.1860
18061TIP3    H175674   1.325   2.470   5.120  2.1404 -1.0533  0.6966
18061TIP3    H275675   1.361   2.576   5.221  0.0221 -0.1897  0.5978
18062TIP3   OH275676   0.830   6.130   4.984  0.2765  0.0048 -0.2620
18062TIP3    H175677   0.897   6.084   5.035 -2.3927 -1.2876  2.3667
18062TIP3    H275678   0.825   6.217   5.024  0.4422  0.1439 -0.5392
18063TIP3   OH275679   2.704   5.487  15.658  0.0235  0.3390 -0.5122
18063TIP3    H175680   2.785   5.513  15.615  2.3282 -1.2481  2.4955
18063TIP3    H275681   2.667   5.420  15.601  1.9083 -0.3116 -1.0358
18064TIP3   OH275682   3.051   2.551  16.925  0.0816 -0.5054 -0.0123
18064TIP3    H175683   3.061   2.588  16.837  0.0539  0.4101  0.3542
18064TIP3    H275684   3.140   2.532  16.953  0.3767  1.6583  0.7534
18065TIP3   OH275685   1.454   3.417  15.467 -0.3055 -0.1175 -0.3612
18065TIP3    H175686   1.396   3.379  15.533  0.8671 -0.9079  0.2459
18065TIP3    H275687   1.409   3.403  15.384 -0.6837 -1.3485  0.0285
18066TIP3   OH275688   2.966   1.040  13.871  0.2000  0.1673 -0.0327
18066TIP3    H175689   2.883   1.084  13.855  0.0254 -0.1645 -0.0309
18066TIP3    H275690   2.944   0.947  13.878  0.5119  0.1232  0.3887
18067TIP3   OH275691   4.220   2.049  11.542 -0.1461 -0.5581  0.1099
18067TIP3    H175692   4.185   1.995  11.612 -0.8981  0.0043  0.1751
18067TIP3    H275693   4.145   2.070  11.487  0.3613 -0.6325 -0.6308
18068TIP3   OH275694   1.289   2.214  13.069  0.7473 -0.1324 -0.4255
18068TIP3    H175695   1.216   2.176  13.019  0.6939 -1.5311  0.6422
18068TIP3    H275696   1.276   2.308  13.061 -1.1049 -0.3324 -0.4012
18069TIP3   OH275697   0.283   5.004  15.558 -0.0462  0.6816 -0.2691
18069TIP3    H175698   0.367   5.029  15.596 -0.6505 -1.1857  2.6751
18069TIP3    H275699   0.305   4.943  15.488  1.1534 -0.6986  1.2154
18070TIP3   OH275700   2.022   2.350  12.168 -0.8542  0.1093 -1.1139
18070TIP3    H175701   2.098   2.350  12.227 -0.8632 -1.1666 -1.0691
18070TIP3    H275702   1.988   2.439  12.172  0.7573  0.7686 -1.2799
18071TIP3   OH275703   5.851   2.600   3.958 -0.2218  0.5068  0.1787
18071TIP3    H175704   5.810   2.623   3.875  0.0413  1.4256  0.2922
18071TIP3    H275705   5.945   2.597   3.939 -0.1987  0.2348  0.3290
18072TIP3   OH275706   1.436   3.060  12.365 -0.0738  0.0149 -0.0263
18072TIP3    H175707   1.494   3.021  12.431 -0.3762  0.1863  0.3474
18072TIP3    H275708   1.487   3.132  12.327 -0.3112  0.6516  0.8357
18073TIP3   OH275709   2.704   6.521  13.554 -0.0243 -0.0712 -0.1797
18073TIP3    H175710   2.677   6.573  13.478 -0.2997 -0.7675 -0.5711
18073TIP3    H275711   2.776   6.467  13.520 -1.3166 -1.6951 -0.4620
18074TIP3   OH275712   6.588   4.426   3.361 -0.3491  0.0059 -0.6397
18074TIP3    H175713   6.604   4.335   3.336 -0.2293  0.6424 -3.1468
18074TIP3    H275714   6.569   4.470   3.279 -2.9523  1.7774  0.7510
18075TIP3   OH275715   3.893   3.650  13.061  0.0966  0.3680  0.5855
18075TIP3    H175716   3.860   3.587  12.997  0.5269 -0.0244  0.7468
18075TIP3    H275717   3.849   3.732  13.038 -1.1115 -0.1666  0.8894
18076TIP3   OH275718   5.806   5.751  15.401 -0.1523 -0.0717 -0.0576
18076TIP3    H175719   5.859   5.679  15.368  0.8355  1.3830 -1.7803
18076TIP3    H275720   5.740   5.766  15.334 -0.2177  0.7675  0.1781
18077TIP3   OH275721   4.714   5.213  12.476  0.2125  0.0798  0.1563
18077TIP3    H175722   4.656   5.141  12.450  1.0714 -0.4449 -0.3893
18077TIP3    H275723   4.756   5.183  12.556  0.2396  0.1546  0.1702
18078TIP3   OH275724   6.530   6.832   0.511 -0.2958 -0.0669  1.0568
18078TIP3    H175725   6.578   6.861   0.433 -1.1968  0.1279  0.5596
18078TIP3    H275726   6.598   6.802   0.571  0.3500 -2.4076 -0.6844
18079TIP3   OH275727   3.262   0.858   0.626 -0.3212  0.1736 -0.0387
18079TIP3    H175728   3.274   0.793   0.694  1.0520 -0.6761 -1.0295
18079TIP3    H275729   3.168   0.876   0.625 -0.6385 -1.3111  0.6992
18080TIP3   OH275730   2.578   4.734  11.481  0.3513  0.4622  0.1345
18080TIP3    H175731   2.563   4.640  11.488 -0.6824  0.5812 -0.3553
18080TIP3    H275732   2.502   4.774  11.523  1.6499  1.0983  1.9900
18081TIP3   OH275733   4.611   1.070  12.599  0.2002 -0.1596  0.5783
18081TIP3    H175734   4.651   1.126  12.665 -0.8536  1.0653  0.2271
18081TIP3    H275735   4.621   0.981  12.633 -1.7166  0.5038  3.2470
18082TIP3   OH275736   5.699   1.833  14.725 -0.4967 -0.1769 -0.2536
18082TIP3    H175737   5.754   1.826  14.647 -0.9185 -0.1865 -0.5503
18082TIP3    H275738   5.673   1.925  14.728 -0.3499 -0.1408 -0.0295
18083TIP3   OH275739   2.562   5.337  15.449 -0.1350 -0.5840 -0.1525
18083TIP3    H175740   2.581   5.245  15.434  0.2279 -0.2667 -1.9522
18083TIP3    H275741   2.588   5.380  15.367 -0.3744  1.1001  0.6101
18084TIP3   OH275742   3.086   5.194  13.194  0.2620 -0.2318  0.3924
18084TIP3    H175743   3.002   5.149  13.188  1.3428 -2.3743  0.0954
18084TIP3    H275744   3.125   5.184  13.106  1.0911  0.1352  0.7047
18085TIP3   OH275745   3.661   1.396   3.971 -0.8044 -0.4093  0.3922
18085TIP3    H175746   3.720   1.320   3.965  0.5471  0.5494  0.9603
18085TIP3    H275747   3.664   1.434   3.883  0.3784  0.2962  0.7193
18086TIP3   OH275748   3.084   0.521  16.442 -0.0164 -0.1930  0.0782
18086TIP3    H175749   3.120   0.583  16.379  1.7607 -0.4974  0.7050
18086TIP3    H275750   3.106   0.435  16.406  0.5193 -0.3759  0.7888
18087TIP3   OH275751   0.990   3.455  14.572  0.1350 -0.1229  0.4246
18087TIP3    H175752   1.052   3.450  14.646 -1.5771 -0.5359  1.8974
18087TIP3    H275753   1.029   3.520  14.514  2.0068 -0.4385  1.2194
18088TIP3   OH275754   4.505   3.060  16.327  0.0687  0.5857  0.1375
18088TIP3    H175755   4.593   3.094  16.317  0.3591 -0.0787  0.3743
18088TIP3    H275756   4.496   3.043  16.421  0.2090 -0.6747 -0.0532
18089TIP3   OH275757   4.026   6.004   0.062 -0.3984 -0.1286  0.4207
18089TIP3    H175758   4.056   6.028  -0.025 -0.0805 -2.4913 -0.1769
18089TIP3    H275759   4.106   5.976   0.108 -0.9060 -1.3434  0.5935
18090TIP3   OH275760   6.494   1.248  12.472 -0.4625 -0.3688  0.2890
18090TIP3    H175761   6.471   1.306  12.544  0.5092  0.1337  0.2137
18090TIP3    H275762   6.557   1.298  12.419 -1.2055 -0.6995 -0.9502
18091TIP3   OH275763   1.681   4.663  12.970  0.0253  0.5986 -0.2146
18091TIP3    H175764   1.588   4.663  12.949 -0.2991 -1.4823  0.9200
18091TIP3    H275765   1.705   4.570  12.971  1.2610  0.8353  3.0022
18092TIP3   OH275766   1.431   2.752   4.936  0.1528 -0.4795 -0.8345
18092TIP3    H175767   1.503   2.814   4.925 -0.3162  0.3665  0.6526
18092TIP3    H275768   1.463   2.690   5.002 -0.0857 -0.7607 -0.9789
18093TIP3   OH275769   3.886   1.212  11.814  0.4017  0.5182 -0.1755
18093TIP3    H175770   3.831   1.137  11.836 -0.2732  0.8035 -0.8249
18093TIP3    H275771   3.938   1.183  11.739  0.1074  0.7075 -0.4559
18094TIP3   OH275772   2.018   4.189   2.356  0.2327 -0.2634  0.0951
18094TIP3    H175773   1.968   4.151   2.284 -0.9184 -0.3594  0.9189
18094TIP3    H275774   2.060   4.113   2.398  0.0267 -0.3338  0.1755
18095TIP3   OH275775   1.504   1.228   0.708  0.6127 -0.5495 -0.2705
18095TIP3    H175776   1.478   1.321   0.710  0.7959 -0.5108  0.6471
18095TIP3    H275777   1.466   1.192   0.788 -1.2475 -1.7685 -1.6091
18096TIP3   OH275778   3.847   1.350   5.293  0.1576 -0.1817  0.1458
18096TIP3    H175779   3.931   1.392   5.312  0.2461 -1.3478  2.7898
18096TIP3    H275780   3.863   1.257   5.304 -1.2068 -0.5127 -0.5052
18097TIP3   OH275781   0.175   2.861  10.881 -0.6621 -0.6621 -0.1219
18097TIP3    H175782   0.237   2.934  10.888  0.2789 -1.5172  0.6932
18097TIP3    H275783   0.172   2.841  10.788 -1.0467  0.5080 -0.3755
18098TIP3   OH275784   5.616   0.272   3.604  0.3414 -0.0181  0.4933
18098TIP3    H175785   5.699   0.317   3.620 -0.6047  2.4739 -1.1248
18098TIP3    H275786   5.550   0.341   3.606 -1.2987 -1.4098 -1.4166
18099TIP3   OH275787   1.948   3.287  15.064 -0.0176 -0.1652  0.1410
18099TIP3    H175788   1.981   3.371  15.033 -0.0970 -0.3016 -0.3238
18099TIP3    H275789   1.896   3.253  14.990 -2.9584  0.9925  1.5165
18100TIP3   OH275790   5.735   4.740   3.628 -0.5065 -0.1455  0.3858
18100TIP3    H175791   5.661   4.798   3.648 -1.7298 -1.6622  0.5108
18100TIP3    H275792   5.740   4.681   3.703  1.0319  0.0865  0.4955
18101TIP3   OH275793   1.999   6.287  12.541 -0.4297  0.2228 -0.2124
18101TIP3    H175794   2.040   6.247  12.465 -3.2141 -1.2010 -1.0879
18101TIP3    H275795   1.987   6.379  12.517  0.4137  0.2033 -0.7174
18102TIP3   OH275796   0.751   5.096   3.658 -0.5396  0.4695 -0.0563
18102TIP3    H175797   0.691   5.071   3.728 -0.7593 -2.4465 -1.1355
18102TIP3    H275798   0.732   5.034   3.587  3.7749 -0.7852 -0.3903
18103TIP3   OH275799   2.806   1.842  16.037  0.5443 -0.1873 -0.1949
18103TIP3    H175800   2.862   1.919  16.041  0.9707 -0.4435 -0.9006
18103TIP3    H275801   2.826   1.803  15.952  0.1867 -0.9626  0.0676
18104TIP3   OH275802   0.928   4.919   0.917 -0.0445  0.4930 -0.2619
18104TIP3    H175803   0.998   4.893   0.858  0.6497 -0.8444  1.0707
18104TIP3    H275804   0.924   5.015   0.909  1.2081  0.4946 -1.1594
18105TIP3   OH275805   5.698   4.112  15.544 -0.2055  0.7474 -0.1493
18105TIP3    H175806   5.724   4.020  15.548 -0.4427  0.6267 -1.0608
18105TIP3    H275807   5.607   4.112  15.573 -0.8319  0.3907 -2.0019
18106TIP3   OH275808   2.088   3.130   1.198  0.7768 -0.2673  0.7844
18106TIP3    H175809   2.158   3.144   1.135  0.4077  0.2206  0.4800
18106TIP3    H275810   2.026   3.202   1.183 -0.2884 -1.2325  0.3809
18107TIP3   OH275811   3.985   5.322  13.745  0.6669  0.4561 -0.8535
18107TIP3    H175812   4.001   5.321  13.651  0.7244 -1.7828 -0.8714
18107TIP3    H275813   3.960   5.413  13.764 -1.1855  0.5738 -3.3398
18108TIP3   OH275814   3.918   1.596  16.367  0.2258  0.8189 -0.3665
18108TIP3    H175815   3.931   1.598  16.462 -0.5041  1.4164 -0.2663
18108TIP3    H275816   3.936   1.686  16.339  0.8132  0.5576 -0.8526
18109TIP3   OH275817   1.114   0.665   0.621 -0.0047  0.4597 -0.3827
18109TIP3    H175818   1.179   0.619   0.675 -0.1778  1.5501  0.7866
18109TIP3    H275819   1.051   0.597   0.596  1.7065 -0.7069 -1.8259
18110TIP3   OH275820   4.736   6.573  15.383 -0.1211  1.0133 -0.3750
18110TIP3    H175821   4.828   6.587  15.362 -0.2074  1.0027 -0.7755
18110TIP3    H275822   4.731   6.580  15.478  0.1525  1.8087 -0.4175
18111TIP3   OH275823   2.211   4.075  15.719 -0.2035  0.4849 -0.1436
18111TIP3    H175824   2.220   4.170  15.721  2.0870  0.3249  0.3770
18111TIP3    H275825   2.258   4.045  15.797 -0.2596 -1.1091 -0.6824
18112TIP3   OH275826   3.411   2.136  10.983  0.3870  0.0729 -0.2471
18112TIP3    H175827   3.493   2.185  10.996  0.7877 -0.5583 -0.3677
18112TIP3    H275828   3.348   2.203  10.958  0.8072  0.6047  0.0690
18113TIP3   OH275829   5.225   6.211  14.629 -0.0722  0.7087 -0.0653
18113TIP3    H175830   5.214   6.205  14.534 -0.0912 -1.2345  0.0206
18113TIP3    H275831   5.156   6.271  14.657 -0.9096  0.2895 -1.1529
18114TIP3   OH275832   4.290   2.864  16.686 -0.4257  0.1915  0.4105
18114TIP3    H175833   4.324   2.944  16.725  1.1362  0.0659 -0.5886
18114TIP3    H275834   4.369   2.814  16.663 -1.3503 -1.1092 -0.0319
18115TIP3   OH275835   0.105   3.079  10.671 -0.1006  0.2640 -0.8191
18115TIP3    H175836   0.183   3.098  10.723  0.2993 -1.9138 -0.5399
18115TIP3    H275837   0.091   3.158  10.618  0.9784  1.5269  0.7183
18116TIP3   OH275838   0.621   1.949  16.880  0.1519  0.2586 -0.6045
18116TIP3    H175839   0.710   1.932  16.849  0.2205  1.1354 -0.9270
18116TIP3    H275840   0.618   1.912  16.968 -0.1182 -2.5501 -1.7065
18117TIP3   OH275841   6.745   6.810  13.396  0.3160 -0.2391  0.0627
18117TIP3    H175842   6.727   6.902  13.375  1.0127 -0.5190 -1.9302
18117TIP3    H275843   6.840   6.807  13.411  0.2370 -0.5836  0.5333
18118TIP3   OH275844   1.792   5.617   1.622  0.3124  0.2786 -0.5013
18118TIP3    H175845   1.842   5.537   1.636 -0.2464  0.0616  0.3888
18118TIP3    H275846   1.857   5.687   1.624  0.6932 -0.0767 -0.3040
18119TIP3   OH275847   3.322   1.231  13.973 -0.2577  0.6682  0.9939
18119TIP3    H175848   3.260   1.254  13.904 -0.5554  0.4835  1.1990
18119TIP3    H275849   3.292   1.146  14.005  1.7543 -0.8563 -0.8568
18120TIP3   OH275850   6.705   1.251  16.002  0.5468 -0.1719 -0.1294
18120TIP3    H175851   6.704   1.334  16.050  0.8467  0.8101 -1.7588
18120TIP3    H275852   6.700   1.184  16.070 -0.9270  1.1773  1.1751
18121TIP3   OH275853   1.454   4.063   2.786  0.0079 -0.0024  0.1399
18121TIP3    H175854   1.484   4.025   2.868  0.5649 -0.4768 -0.2699
18121TIP3    H275855   1.413   3.989   2.739 -1.9281  0.6309  0.7141
18122TIP3   OH275856   3.309   3.441  12.604  0.1813  0.5618  0.7464
18122TIP3    H175857   3.226   3.460  12.561  0.9896 -1.2946 -1.9169
18122TIP3    H275858   3.372   3.499  12.561  0.9930 -1.2456 -0.6333
18123TIP3   OH275859   2.397   2.246  11.394 -0.5849 -0.3707  0.4751
18123TIP3    H175860   2.439   2.160  11.389 -2.2222 -1.1697 -0.3894
18123TIP3    H275861   2.385   2.272  11.303  0.3700  1.0585  0.7198
18124TIP3   OH275862   1.741   0.945   3.303  0.1013 -0.1226 -0.1990
18124TIP3    H175863   1.681   1.020   3.302  1.2646  0.9379  2.4470
18124TIP3    H275864   1.828   0.983   3.314  0.7767 -1.8185  0.7811
18125TIP3   OH275865   5.722   5.392  11.174  0.3310  0.5253  0.3360
18125TIP3    H175866   5.803   5.409  11.126 -0.2514 -0.2854 -0.9872
18125TIP3    H275867   5.688   5.311  11.137 -0.2950 -0.0015  1.9667
18126TIP3   OH275868   5.646   2.521   2.217  0.2599  0.1441 -0.2040
18126TIP3    H175869   5.700   2.599   2.200 -1.2596  1.2954 -0.0484
18126TIP3    H275870   5.647   2.511   2.312  2.0568 -1.2743 -0.3277
18127TIP3   OH275871   0.469   5.630   2.668  0.3607  0.2066 -0.4326
18127TIP3    H175872   0.483   5.638   2.762  2.7112 -0.8007 -0.6203
18127TIP3    H275873   0.375   5.614   2.659 -0.3380  2.6606  1.5132
18128TIP3   OH275874   4.970   0.073   2.001  0.1998 -0.2236 -0.5274
18128TIP3    H175875   4.997   0.089   2.092 -1.6332  1.1970 -0.1825
18128TIP3    H275876   4.917  -0.006   2.005 -0.1159 -0.0013 -0.3138
18129TIP3   OH275877   0.269   1.222   1.521 -0.0241  0.0686  0.1350
18129TIP3    H175878   0.279   1.317   1.518  1.3938 -0.0662 -0.4893
18129TIP3    H275879   0.270   1.196   1.428 -0.4321 -0.5530  0.3012
18130TIP3   OH275880   2.595   4.630  11.814 -0.6172  0.6030 -0.4140
18130TIP3    H175881   2.566   4.721  11.813 -1.5445  0.3219 -1.7692
18130TIP3    H275882   2.593   4.603  11.722 -0.4873 -0.8225 -0.0271
18131TIP3   OH275883   5.832   0.527  11.096 -1.2103 -0.3460  0.7168
18131TIP3    H175884   5.892   0.475  11.150 -0.4232 -0.2731 -0.0549
18131TIP3    H275885   5.754   0.537  11.149 -1.1047 -1.7202  1.1670
18132TIP3   OH275886   3.649   6.562   2.079 -0.0028 -0.4549 -0.6119
18132TIP3    H175887   3.702   6.486   2.102  0.5009  0.0195 -0.1650
18132TIP3    H275888   3.712   6.626   2.045 -0.1264  0.4493  0.7575
18133TIP3   OH275889   4.176   2.422  13.239 -0.1158  0.5330 -0.5091
18133TIP3    H175890   4.234   2.362  13.193 -0.8383 -0.6289  0.0374
18133TIP3    H275891   4.114   2.452  13.172  0.0949  0.4733 -0.7309
18134TIP3   OH275892   2.375   3.461   4.430  0.3523 -0.0436  0.1707
18134TIP3    H175893   2.384   3.371   4.462  2.6604  0.5325  1.3309
18134TIP3    H275894   2.444   3.469   4.363  0.5551  1.0164  0.4945
18135TIP3   OH275895   1.236   3.258  16.436  0.2361 -0.3524  0.8361
18135TIP3    H175896   1.329   3.243  16.452 -0.0502 -1.6021  1.4418
18135TIP3    H275897   1.191   3.215  16.509 -0.7837  1.5145  1.3976
18136TIP3   OH275898   6.422   0.071  15.274  0.3584  0.8135 -0.4285
18136TIP3    H175899   6.505   0.108  15.246 -0.1349  1.5009 -0.9990
18136TIP3    H275900   6.384   0.034  15.195 -0.3753  1.4712 -0.3914
18137TIP3   OH275901   3.239   4.019   2.498 -0.9177 -0.0822  0.0113
18137TIP3    H175902   3.203   4.027   2.410 -0.4858 -0.3691 -0.1927
18137TIP3    H275903   3.162   4.024   2.556 -1.0642  1.6070 -0.2819
18138TIP3   OH275904   1.792   5.311   1.845  0.2926  0.4497 -0.0810
18138TIP3    H175905   1.711   5.261   1.830  1.0555 -0.4237 -1.4410
18138TIP3    H275906   1.839   5.307   1.762  2.3799 -0.2001  1.0605
18139TIP3   OH275907   0.675   0.541  16.653  0.3900  0.0906 -0.2388
18139TIP3    H175908   0.668   0.449  16.628  2.0921 -0.7089  1.9348
18139TIP3    H275909   0.700   0.586  16.573 -4.1264 -0.5918 -2.3392
18140TIP3   OH275910   3.282   4.238   5.844 -0.2962  0.1490 -0.4910
18140TIP3    H175911   3.331   4.156   5.849 -0.0188  0.3583  0.3830
18140TIP3    H275912   3.340   4.304   5.883 -0.7142  0.6662 -0.7270
18141TIP3   OH275913   5.586   3.433   6.184  0.3921 -0.5723  0.2374
18141TIP3    H175914   5.648   3.462   6.251 -1.3788  2.8743  0.5840
18141TIP3    H275915   5.513   3.395   6.234  0.4287 -0.8740  0.0654
18142TIP3   OH275916   4.996   1.220  14.542 -0.2021  0.8465  0.6335
18142TIP3    H175917   5.059   1.201  14.473  0.5060  1.2714  1.1556
18142TIP3    H275918   4.914   1.182  14.510  0.6862 -1.3241  0.7246
18143TIP3   OH275919   5.766   1.848  13.384 -0.0199  0.2206 -0.2827
18143TIP3    H175920   5.855   1.823  13.360 -0.1830 -0.7600  0.0921
18143TIP3    H275921   5.776   1.910  13.456  0.3465 -0.5860  0.3762
18144TIP3   OH275922   5.025   3.144  13.094  0.6632  0.5009  0.1902
18144TIP3    H175923   5.115   3.114  13.102  0.7005  0.1926 -1.0512
18144TIP3    H275924   5.029   3.215  13.030 -0.1304 -0.4344 -0.9519
18145TIP3   OH275925   2.879   6.836  13.699 -0.4478 -0.0535  0.9574
18145TIP3    H175926   2.951   6.882  13.656 -1.2187  0.1267 -0.1860
18145TIP3    H275927   2.913   6.749  13.718 -0.7469 -0.9533 -2.1430
18146TIP3   OH275928   5.380   3.041  12.065 -0.1680 -0.0229 -0.4051
18146TIP3    H175929   5.448   3.109  12.058 -0.6677  0.3147 -2.7473
18146TIP3    H275930   5.373   3.005  11.976 -2.0278 -1.0722  0.1244
18147TIP3   OH275931   4.579   0.550  15.013  0.7483  0.6698 -0.4790
18147TIP3    H175932   4.533   0.633  15.005  2.6635  1.7477 -0.8871
18147TIP3    H275933   4.510   0.486  15.032 -0.8616  2.2054 -0.9006
18148TIP3   OH275934   4.454   5.085   4.800 -0.4849  0.1586  0.8374
18148TIP3    H175935   4.509   5.086   4.879  2.5437  2.5514 -1.0742
18148TIP3    H275936   4.457   4.994   4.770  0.3493 -0.2877  2.1761
18149TIP3   OH275937   2.913   2.593  11.289  0.6796  0.1731  0.3989
18149TIP3    H175938   2.943   2.505  11.313  2.5186  1.0972  1.7010
18149TIP3    H275939   2.824   2.579  11.256  1.3935 -2.3331 -0.7355
18150TIP3   OH275940   1.359   1.743   3.262  0.3420 -0.1251 -0.2687
18150TIP3    H175941   1.362   1.752   3.167 -0.6559 -3.0924 -0.6925
18150TIP3    H275942   1.444   1.774   3.292  1.8747 -1.8565 -2.4711
18151TIP3   OH275943   5.073   5.457   4.528 -0.2386 -0.5403 -0.1903
18151TIP3    H175944   5.158   5.427   4.558 -0.3386 -2.0899 -1.3393
18151TIP3    H275945   5.089   5.491   4.440 -0.3620  1.7622  0.5932
18152TIP3   OH275946   0.922   0.905   0.045  0.4504  0.1302  0.1187
18152TIP3    H175947   0.827   0.905   0.050  0.4065 -0.0686 -0.5933
18152TIP3    H275948   0.950   0.971   0.109 -0.0715 -1.1453  1.7334
18153TIP3   OH275949   1.595   2.962  17.129 -0.0064  0.0910  0.1733
18153TIP3    H175950   1.512   2.948  17.084 -0.2818  0.1094  0.6802
18153TIP3    H275951   1.600   2.893  17.194 -0.2958  0.9301  1.1122
18154TIP3   OH275952   0.577   0.899  13.762 -0.6611  0.3726 -0.7690
18154TIP3    H175953   0.547   0.814  13.793 -0.3714  0.1073 -1.2013
18154TIP3    H275954   0.513   0.962  13.797 -0.6074  0.0334 -0.0517
18155TIP3   OH275955   1.366   0.036   2.656  0.2864  0.1407  0.0939
18155TIP3    H175956   1.455   0.010   2.680  0.4038 -1.1097 -1.5402
18155TIP3    H275957   1.328   0.068   2.738  2.4504  1.3872  0.7010
18156TIP3   OH275958   0.645   5.831  14.977 -0.3863  0.1175  0.1710
18156TIP3    H175959   0.582   5.802  15.043 -0.6970  0.9074  0.2307
18156TIP3    H275960   0.599   5.897  14.927  0.4875  0.9376  0.4136
18157TIP3   OH275961   4.335   5.665   5.432  0.0671 -0.1579 -0.1235
18157TIP3    H175962   4.372   5.593   5.484  1.7463  0.4282 -0.4584
18157TIP3    H275963   4.243   5.641   5.421  0.6777 -2.5321 -0.6583
18158TIP3   OH275964   6.052   4.496  14.720  0.1646  0.0009  0.5456
18158TIP3    H175965   6.002   4.577  14.727 -0.8992 -0.6992  1.4111
18158TIP3    H275966   6.138   4.517  14.757 -0.4160  0.4802  1.6510
18159TIP3   OH275967   2.260   1.395   5.285  0.1753  0.3504  0.2315
18159TIP3    H175968   2.177   1.359   5.254  1.2452 -2.7439  0.5907
18159TIP3    H275969   2.257   1.383   5.380  0.9119  0.3953  0.2651
18160TIP3   OH275970   0.399   1.028  11.933  0.0238  0.0364  0.6744
18160TIP3    H175971   0.359   0.992  12.013  1.0608 -0.2425  1.0864
18160TIP3    H275972   0.333   1.016  11.866 -0.2184 -1.3392  1.1171
18161TIP3   OH275973   0.797   5.687   4.976 -0.7136  0.1137  0.3386
18161TIP3    H175974   0.840   5.687   4.891  0.2830  0.2020  0.8288
18161TIP3    H275975   0.705   5.668   4.957 -1.1487  3.1079 -1.0475
18162TIP3   OH275976   5.444   1.012   6.453 -0.2342  0.0312 -0.5066
18162TIP3    H175977   5.472   1.092   6.499 -3.6745  0.6384  0.8539
18162TIP3    H275978   5.496   0.943   6.494 -1.1321  0.9284  2.4194
18163TIP3   OH275979   5.741   0.377  10.783 -0.0519 -0.5826  0.2581
18163TIP3    H175980   5.680   0.438  10.742 -1.3312 -1.4392  0.8286
18163TIP3    H275981   5.827   0.409  10.758 -0.7234  0.7608 -0.4296
18164TIP3   OH275982   2.820   0.291   1.356  0.2455 -0.0847 -0.5504
18164TIP3    H175983   2.873   0.234   1.301  0.4564 -0.9163  0.4831
18164TIP3    H275984   2.883   0.349   1.400  0.0021  1.3170 -1.9435
18165TIP3   OH275985   1.780   5.618  12.354 -0.1281  0.6350 -0.5518
18165TIP3    H175986   1.860   5.599  12.303 -0.5929 -0.5332 -0.8755
18165TIP3    H275987   1.755   5.534  12.391 -1.0925  1.0437 -0.2580
18166TIP3   OH275988   5.875   1.955   1.995  0.2830 -0.2215  1.0723
18166TIP3    H175989   5.823   2.001   1.929 -1.2006 -4.4467 -1.0462
18166TIP3    H275990   5.963   1.991   1.987 -0.6530  1.9071 -0.6010
18167TIP3   OH275991   0.456   1.862  14.310 -1.0231 -0.2643 -0.3814
18167TIP3    H175992   0.471   1.935  14.250 -0.5351  0.3254  0.4372
18167TIP3    H275993   0.527   1.869  14.374 -1.2844 -1.1390  0.0185
18168TIP3   OH275994   2.512   6.639   2.916 -0.3032 -0.4203 -0.0547
18168TIP3    H175995   2.421   6.669   2.927  0.3002  1.2065  0.7538
18168TIP3    H275996   2.528   6.584   2.993 -0.1485  0.4772  0.5586
18169TIP3   OH275997   4.058   2.539  13.500 -0.3777  0.2565  0.4374
18169TIP3    H175998   4.064   2.509  13.409  0.7624  0.5650  0.3910
18169TIP3    H275999   3.973   2.507  13.530 -0.8225  0.2374 -0.7659
18170TIP3   OH276000   6.021   1.524  16.153 -0.0826  0.0862  0.3413
18170TIP3    H176001   5.988   1.595  16.208  0.7867  1.0911 -0.3804
18170TIP3    H276002   6.063   1.569  16.079  0.4799 -1.1856 -0.1396
18171TIP3   OH276003   2.097   5.639  16.359 -0.1790 -0.1530  0.0145
18171TIP3    H176004   2.168   5.639  16.423 -1.4200  0.9341  1.5019
18171TIP3    H276005   2.136   5.675  16.280  0.9758  0.2586  0.7379
18172TIP3   OH276006   4.562   6.542   3.203  0.0766 -0.5593  0.1974
18172TIP3    H176007   4.498   6.564   3.135 -0.4773 -0.0147  0.8830
18172TIP3    H276008   4.511   6.534   3.283  0.9996  1.2082  1.0309
18173TIP3   OH276009   0.102   5.753  15.498  0.7830 -0.2461 -0.3440
18173TIP3    H176010   0.166   5.707  15.551  1.1407  0.6540  0.0319
18173TIP3    H276011   0.061   5.815  15.559  0.7399  0.3480 -0.9655
18174TIP3   OH276012   0.794   4.585  10.556 -0.1193  0.0265  0.3215
18174TIP3    H176013   0.856   4.527  10.601 -1.1854 -0.4190  1.2674
18174TIP3    H276014   0.847   4.631  10.491  0.6140 -2.6515 -1.1255
18175TIP3   OH276015   2.511   5.942  14.053  0.1666 -0.0728  0.0808
18175TIP3    H176016   2.441   5.893  14.096 -0.1042  0.4114  0.1937
18175TIP3    H276017   2.591   5.914  14.098 -0.1611  0.7595  1.2114
18176TIP3   OH276018   0.755   6.717  13.672  0.3379  0.4179 -0.6939
18176TIP3    H176019   0.681   6.691  13.617  1.1385  0.1443 -1.6640
18176TIP3    H276020   0.831   6.677  13.631  1.2260  1.8979 -0.5467
18177TIP3   OH276021   6.670   4.649   4.308 -0.0350 -0.2691 -0.0834
18177TIP3    H176022   6.690   4.556   4.304  0.0728 -0.2430 -0.1601
18177TIP3    H276023   6.605   4.663   4.239 -0.5216 -0.4033  0.3418
18178TIP3   OH276024   4.507   5.450   1.248  0.7437  0.7582 -0.6570
18178TIP3    H176025   4.435   5.501   1.211 -0.3074 -0.9335 -1.0826
18178TIP3    H276026   4.571   5.445   1.177  0.8905  1.5090 -0.5883
18179TIP3   OH276027   3.880   6.078   3.871  0.0328  0.0249 -0.1619
18179TIP3    H176028   3.826   6.012   3.829  0.1844  0.0541 -0.4073
18179TIP3    H276029   3.822   6.153   3.883 -0.3277 -0.3851  0.7442
18180TIP3   OH276030   3.532   5.207  14.685  0.1234  0.3834 -0.5320
18180TIP3    H176031   3.620   5.225  14.652  0.0653  2.1893  0.2077
18180TIP3    H276032   3.479   5.281  14.655 -0.7231  0.2593  0.5981
18181TIP3   OH276033   6.770   3.213   4.922 -0.2828  0.0650 -0.3484
18181TIP3    H176034   6.745   3.304   4.940 -0.7000 -0.3488  1.3212
18181TIP3    H276035   6.687   3.166   4.914 -0.0648 -0.2992 -0.4985
18182TIP3   OH276036   5.324   3.885  11.137  0.2998  0.1175  0.3649
18182TIP3    H176037   5.346   3.793  11.153  0.2151 -0.0584 -0.4689
18182TIP3    H276038   5.328   3.894  11.041 -0.2028  0.8554  0.4082
18183TIP3   OH276039   5.878   3.248   3.144  0.2657  0.4288  0.4262
18183TIP3    H176040   5.942   3.269   3.076 -0.3954  1.2554  0.0477
18183TIP3    H276041   5.888   3.318   3.209  0.7723 -0.2593  1.1187
18184TIP3   OH276042   0.039   2.335  15.244 -0.7422  0.3990 -0.1445
18184TIP3    H176043   0.020   2.424  15.214  0.3818  0.9905  0.8080
18184TIP3    H276044   0.127   2.341  15.282 -1.0692 -0.8837  0.8736
18185TIP3   OH276045   0.957   3.875   1.107  0.0182  0.3327 -0.1126
18185TIP3    H176046   0.919   3.810   1.047 -0.6003  1.3290 -0.8491
18185TIP3    H276047   1.045   3.891   1.073 -0.5027  1.2565 -1.0959
18186TIP3   OH276048   4.183   1.686  17.122 -0.6998 -0.1523  0.3721
18186TIP3    H176049   4.278   1.687  17.111 -0.9160  1.5829 -2.3320
18186TIP3    H276050   4.154   1.608  17.074 -0.6813 -0.3865  0.7402
18187TIP3   OH276051   2.798   2.579   2.383 -0.0720 -0.6575  0.2116
18187TIP3    H176052   2.887   2.547   2.392  0.7250  0.4214 -2.7797
18187TIP3    H276053   2.747   2.527   2.445  2.2519 -2.8200  0.4309
18188TIP3   OH276054   5.857   6.015   1.192  0.4681  0.1089  0.9280
18188TIP3    H176055   5.909   6.012   1.272 -0.4969  0.4911  1.5905
18188TIP3    H276056   5.837   5.923   1.173  1.6680 -0.0741  0.4488
18189TIP3   OH276057   0.204   0.834   5.893  0.4092  0.0829  0.1048
18189TIP3    H176058   0.233   0.800   5.809  1.9845  0.3124  0.5228
18189TIP3    H276059   0.120   0.877   5.874  1.1154  0.8238 -1.4947
18190TIP3   OH276060   4.815   1.565  13.591 -0.0083 -0.3368  0.2138
18190TIP3    H176061   4.810   1.656  13.564 -1.4234  0.1491  1.8753
18190TIP3    H276062   4.800   1.567  13.686 -1.7331 -2.3999  0.0792
18191TIP3   OH276063   1.663   4.646   5.463  0.6328  0.0094 -0.2121
18191TIP3    H176064   1.679   4.592   5.386  2.1040  0.2672 -0.1201
18191TIP3    H276065   1.607   4.718   5.432 -1.4579 -1.5771 -0.3051
18192TIP3   OH276066   3.075   4.110  15.224 -0.0911  0.1189 -0.0600
18192TIP3    H176067   3.115   4.060  15.153 -2.0315 -0.4364 -0.8064
18192TIP3    H276068   3.012   4.167  15.181 -0.3798  0.7266  1.1088
18193TIP3   OH276069   3.935   4.800   6.043 -0.3676 -0.5005 -0.0978
18193TIP3    H176070   4.002   4.760   6.099  0.7212  0.1387 -0.9086
18193TIP3    H276071   3.952   4.894   6.048  0.0918 -0.4513 -1.8904
18194TIP3   OH276072   1.794   0.087  16.035  0.1089 -0.0163 -0.2960
18194TIP3    H176073   1.715   0.033  16.042  0.1995 -0.2905 -1.1834
18194TIP3    H276074   1.772   0.152  15.969 -0.1274  1.2921  1.0259
18195TIP3   OH276075   0.047   6.831   2.020 -0.3139 -0.1329  0.2558
18195TIP3    H176076  -0.006   6.800   1.946  0.5369  0.8032 -0.7761
18195TIP3    H276077   0.014   6.782   2.095 -1.1299 -1.1966 -0.7616
18196TIP3   OH276078   2.603   5.311   1.803  0.4660  0.3244 -0.5576
18196TIP3    H176079   2.685   5.359   1.817  1.1762 -0.4545 -1.8620
18196TIP3    H276080   2.593   5.257   1.881  1.0518  0.6262 -0.2659
18197TIP3   OH276081   3.926   5.213   0.853  0.1491  0.6923  0.3813
18197TIP3    H176082   3.996   5.275   0.874  1.4427 -0.6457  0.1693
18197TIP3    H276083   3.957   5.129   0.888 -1.4446  0.1046  0.4455
18198TIP3   OH276084   2.010   1.550  13.589  0.5555 -0.3824 -0.3092
18198TIP3    H176085   2.086   1.533  13.643  1.0616  1.7643 -0.2571
18198TIP3    H276086   1.945   1.587  13.649  0.8675  1.3470 -0.9788
18199TIP3   OH276087   3.167   2.474  14.073  0.1904  0.6643 -0.6336
18199TIP3    H176088   3.254   2.490  14.035  1.0103  1.5974  1.4754
18199TIP3    H276089   3.186   2.436  14.159 -1.5106  0.6909 -0.2248
18200TIP3   OH276090   3.119   2.174  13.725  0.0506 -0.0924 -0.6079
18200TIP3    H176091   3.209   2.145  13.741 -0.4833 -0.1663  2.8707
18200TIP3    H276092   3.119   2.266  13.751 -0.8418 -0.0151 -0.8567
18201TIP3   OH276093   6.679   3.191   6.368  0.0527  0.0051 -0.0550
18201TIP3    H176094   6.614   3.241   6.318 -1.0391 -1.7117 -0.4716
18201TIP3    H276095   6.627   3.141   6.431  1.1881  0.1270  1.0210
18202TIP3   OH276096   3.306   3.134  13.644 -0.0980 -0.0887 -0.1120
18202TIP3    H176097   3.380   3.192  13.661  1.8590 -2.6796  0.8211
18202TIP3    H276098   3.284   3.098  13.730 -0.5956 -1.4522 -0.7792
18203TIP3   OH276099   5.937   2.396  11.543 -0.4027 -0.1702 -0.4389
18203TIP3    H176100   5.971   2.408  11.631  0.2596 -1.4083 -0.5054
18203TIP3    H276101   6.008   2.426  11.485 -0.0815 -1.1365 -0.5594
18204TIP3   OH276102   5.200   1.710  10.531 -0.0631 -0.3382 -0.4621
18204TIP3    H176103   5.133   1.778  10.527 -0.7580 -0.9792  0.3201
18204TIP3    H276104   5.192   1.671  10.618  0.8927 -0.8633 -0.5866
18205TIP3   OH276105   4.342   4.431   5.555  0.1330 -0.1813 -0.1054
18205TIP3    H176106   4.320   4.501   5.617 -0.4181 -0.1481 -0.3317
18205TIP3    H276107   4.286   4.448   5.479  2.4561  1.1717 -1.6185
18206TIP3   OH276108   6.760   6.636  15.560 -1.0954  0.3866  0.5937
18206TIP3    H176109   6.835   6.624  15.618  0.4708  3.0473 -0.6695
18206TIP3    H276110   6.699   6.689  15.610 -2.7001 -2.5651  1.9706
18207TIP3   OH276111   3.511   1.929  10.854  0.6111 -0.2246  0.2160
18207TIP3    H176112   3.480   2.009  10.896  1.3598 -0.1390  0.6329
18207TIP3    H276113   3.531   1.955  10.764  1.4058  0.2067  0.5079
18208TIP3   OH276114   3.083   4.386  15.382  0.4884  0.0596 -0.3263
18208TIP3    H176115   3.075   4.419  15.293  1.0950  0.3018 -0.3008
18208TIP3    H276116   3.125   4.300  15.372 -0.0457 -0.2073 -0.3147
18209TIP3   OH276117   6.314   2.691   3.077 -0.3352 -1.0205  0.5633
18209TIP3    H176118   6.279   2.640   3.150 -1.7799 -2.2658 -0.9320
18209TIP3    H276119   6.249   2.759   3.062  0.6238  0.0870  1.2688
18210TIP3   OH276120   1.373   1.568  12.713 -0.1860 -0.5102  0.2194
18210TIP3    H176121   1.398   1.596  12.625 -0.5695  0.4538  0.4037
18210TIP3    H276122   1.455   1.567  12.763  0.1803 -1.9276 -0.3491
18211TIP3   OH276123   1.478   0.436  13.234  0.1871  0.2304 -0.0512
18211TIP3    H176124   1.566   0.424  13.199 -0.5538 -1.0136 -1.6678
18211TIP3    H276125   1.458   0.528  13.217  0.7271  0.2192 -0.8392
18212TIP3   OH276126   1.284   1.146   3.105  0.3606  0.0569  0.2132
18212TIP3    H176127   1.361   1.138   3.049 -0.2137 -0.0529 -0.5928
18212TIP3    H276128   1.293   1.231   3.148 -0.3005  1.2435 -1.8318
18213TIP3   OH276129   2.117   6.106   4.679 -0.2374  0.2481 -0.3292
18213TIP3    H176130   2.061   6.125   4.604 -0.4795  0.9144  0.0124
18213TIP3    H276131   2.171   6.184   4.690 -0.6987  0.4588  0.6198
18214TIP3   OH276132   4.638   1.069  13.139  0.5908 -0.2854 -0.5615
18214TIP3    H176133   4.570   1.047  13.203  0.3557 -0.2609 -0.8023
18214TIP3    H276134   4.594   1.125  13.075  1.2482  1.2148  0.2398
18215TIP3   OH276135   5.709   5.059  12.924 -0.1325 -0.5111  0.4412
18215TIP3    H176136   5.669   5.096  12.845  0.4539  0.6635  0.6572
18215TIP3    H276137   5.671   5.109  12.996  0.4804 -0.4974  0.7698
18216TIP3   OH276138   6.488   4.120   0.418  0.1342  1.2291 -0.3969
18216TIP3    H176139   6.452   4.203   0.386  0.9749  1.6991 -0.1477
18216TIP3    H276140   6.547   4.091   0.348  1.4860  1.9383  0.4024
18217TIP3   OH276141   5.118   3.986   2.892  0.0742 -0.1796 -0.0081
18217TIP3    H176142   5.146   4.068   2.932  1.0241 -0.6628  0.3380
18217TIP3    H276143   5.193   3.956   2.842 -0.1370 -1.0212  0.1612
18218TIP3   OH276144   1.043   5.240  12.728  0.3476 -0.0948  0.1452
18218TIP3    H176145   0.979   5.233  12.657  0.3849 -2.0882  0.2519
18218TIP3    H276146   1.064   5.333  12.732 -1.4809  0.4069 -0.8249
18219TIP3   OH276147   0.819   1.144   4.898 -0.2301  0.3791  0.7749
18219TIP3    H176148   0.753   1.116   4.961 -2.1470 -0.5636 -1.4906
18219TIP3    H276149   0.848   1.230   4.929 -1.7925  0.3772  2.3751
18220TIP3   OH276150   4.335   2.249  13.403 -0.1323  0.1756 -0.3120
18220TIP3    H176151   4.352   2.183  13.336 -1.4867 -0.0985 -0.4163
18220TIP3    H276152   4.264   2.302  13.367 -1.5423 -0.5592  1.2734
18221TIP3   OH276153   2.304   4.550   0.612 -0.0516 -0.1931  0.1639
18221TIP3    H176154   2.327   4.597   0.692  1.2175 -0.6936  0.1019
18221TIP3    H276155   2.225   4.595   0.580 -0.8562 -0.2843  1.9318
18222TIP3   OH276156   5.754   1.674  11.474 -0.2251 -0.6095  0.0359
18222TIP3    H176157   5.695   1.602  11.452  1.0160 -1.0552 -2.1878
18222TIP3    H276158   5.842   1.635  11.469  0.4156  0.7590  0.0861
18223TIP3   OH276159   5.309   1.697  14.881 -0.4156  0.3937 -0.3976
18223TIP3    H176160   5.245   1.750  14.834 -0.6860 -0.1077 -0.5900
18223TIP3    H276161   5.286   1.607  14.862 -0.5565  0.1728  0.7258
18224TIP3   OH276162   3.035   2.315  13.191  0.0332  0.6227  0.4164
18224TIP3    H176163   2.945   2.335  13.163 -0.3019  0.6831  1.4866
18224TIP3    H276164   3.086   2.319  13.110 -0.7471  1.6161 -0.0620
18225TIP3   OH276165   6.150   6.444  13.154  0.2019  0.5733 -0.4885
18225TIP3    H176166   6.105   6.364  13.182  0.3122  1.0585  1.2259
18225TIP3    H276167   6.088   6.514  13.173  1.0815  1.1142  0.5447
18226TIP3   OH276168   5.872   1.679  15.883  0.3106  0.0056  0.1606
18226TIP3    H176169   5.933   1.610  15.856  1.3426  0.6231  0.8363
18226TIP3    H276170   5.817   1.694  15.806 -0.5051 -2.1365  0.2533
18227TIP3   OH276171   0.075   3.261   5.937 -0.4983  0.5371 -0.2573
18227TIP3    H176172   0.009   3.331   5.941 -0.4606  0.5429  0.3250
18227TIP3    H276173   0.145   3.298   5.884 -1.2243  0.3084 -1.3997
18228TIP3   OH276174   5.611   0.856   1.903  0.4765  0.2000 -0.2877
18228TIP3    H176175   5.639   0.769   1.875 -0.5698  0.3524 -2.0396
18228TIP3    H276176   5.665   0.916   1.852  0.8173  0.5610  0.4999
18229TIP3   OH276177   3.256   2.438   1.758 -0.2449 -1.0399 -0.3265
18229TIP3    H176178   3.311   2.384   1.702  0.4953 -1.7829  1.0623
18229TIP3    H276179   3.166   2.411   1.737  0.0867 -2.3884 -0.0819
18230TIP3   OH276180   0.366   4.920  13.089 -0.2397 -0.0190 -0.2877
18230TIP3    H176181   0.287   4.872  13.062  1.6361 -2.4934 -1.8979
18230TIP3    H276182   0.412   4.860  13.147  0.3561  1.5013  0.8688
18231TIP3   OH276183   4.151   2.799  12.689  0.2715 -0.3855  0.1265
18231TIP3    H176184   4.137   2.891  12.711 -1.7619 -0.7949  0.6960
18231TIP3    H276185   4.220   2.770  12.749 -0.0568  0.4002  0.9036
18232TIP3   OH276186   1.366   6.720   3.021  0.2977 -0.0046 -0.4449
18232TIP3    H176187   1.391   6.681   2.937 -0.9128  0.0640 -0.8637
18232TIP3    H276188   1.423   6.796   3.030  0.6544 -0.1915 -1.0485
18233TIP3   OH276189   3.095   4.271  11.648  0.1129 -0.1947  0.2290
18233TIP3    H176190   3.022   4.327  11.671  0.9836  0.1603  2.3154
18233TIP3    H276191   3.167   4.331  11.629  1.1521 -0.4964  2.8179
18234TIP3   OH276192   5.614   0.240   4.856  0.1886 -0.0337  0.2791
18234TIP3    H176193   5.567   0.313   4.897  1.3542  0.8011  0.1772
18234TIP3    H276194   5.568   0.162   4.887 -0.5775  0.6998  1.0587
18235TIP3   OH276195   3.789   0.757  16.246  0.2760 -0.6355  0.2302
18235TIP3    H176196   3.697   0.768  16.222  0.0957 -0.2705  1.0381
18235TIP3    H276197   3.787   0.748  16.342  1.1007 -0.3992  0.2717
18236TIP3   OH276198   4.043   1.203  13.792  0.2405 -0.2035 -0.2477
18236TIP3    H176199   4.069   1.268  13.858 -0.0341 -0.1074 -0.2335
18236TIP3    H276200   4.092   1.124  13.815  1.7325  0.4022 -1.1048
18237TIP3   OH276201   4.168   2.622  11.630  0.2969  0.6238 -0.2056
18237TIP3    H176202   4.095   2.560  11.644  0.2210 -0.0049 -2.7576
18237TIP3    H276203   4.208   2.632  11.716 -1.5554 -0.6310  0.8842
18238TIP3   OH276204   3.361   5.783  13.811 -0.6287  0.7403 -0.1953
18238TIP3    H176205   3.382   5.704  13.761  2.0923  1.1507  0.1401
18238TIP3    H276206   3.342   5.751  13.899 -1.4864  0.3353 -0.5168
18239TIP3   OH276207   4.114   1.168   3.700  0.1678  0.5691 -0.3654
18239TIP3    H176208   4.199   1.124   3.689  0.6522  1.7764 -1.6369
18239TIP3    H276209   4.119   1.206   3.788  0.2066 -0.8422  0.2861
18240TIP3   OH276210   3.183   2.025   0.424  0.3197 -0.7269  0.6888
18240TIP3    H176211   3.098   1.997   0.458 -0.5493 -0.2256 -0.9682
18240TIP3    H276212   3.178   2.007   0.330  0.7641  2.2982 -0.0179
18241TIP3   OH276213   6.843   6.345   6.660  0.0539  0.3496  0.1091
18241TIP3    H176214   6.775   6.347   6.726 -1.6128 -0.2362 -1.5088
18241TIP3    H276215   6.884   6.259   6.669 -0.1327  0.2921  0.4053
18242TIP3   OH276216   2.554   6.311  12.980 -0.0262  0.0097  0.3308
18242TIP3    H176217   2.503   6.320  12.899 -0.1525  1.1509  0.5171
18242TIP3    H276218   2.561   6.217  12.994 -3.2373 -0.2102  1.0352
18243TIP3   OH276219   6.552   6.131   4.744 -0.1317 -0.5784 -0.0718
18243TIP3    H176220   6.476   6.179   4.711  0.2144 -0.3530 -0.5465
18243TIP3    H276221   6.586   6.085   4.667  2.7272  2.6088 -0.9495
18244TIP3   OH276222   2.459   0.441   1.114 -0.5504 -0.4147 -0.0171
18244TIP3    H176223   2.470   0.351   1.146 -0.1100  0.1537  1.5531
18244TIP3    H276224   2.393   0.478   1.172  0.0281  0.5775  0.0254
18245TIP3   OH276225   3.605   0.062  15.852 -0.3709  0.2741 -0.6211
18245TIP3    H176226   3.682   0.076  15.797 -0.1469  2.5153  0.1629
18245TIP3    H276227   3.534   0.107  15.807 -1.0636 -1.0354 -0.8923
18246TIP3   OH276228   1.525   4.122  12.131 -0.0234 -0.1490  0.0495
18246TIP3    H176229   1.504   4.169  12.212  0.1353 -2.1332  1.3092
18246TIP3    H276230   1.504   4.030  12.150  0.2383 -0.7132 -2.0981
18247TIP3   OH276231   3.145   3.542   4.841  0.0268 -0.7974  0.1166
18247TIP3    H176232   3.082   3.572   4.775  0.1103  0.6593  0.6681
18247TIP3    H276233   3.203   3.483   4.793 -0.8766 -1.0317 -0.7330
18248TIP3   OH276234   5.998   3.901  14.511 -0.0455  0.3477 -0.7506
18248TIP3    H176235   5.955   3.824  14.473  0.2059 -0.2708  0.1910
18248TIP3    H276236   5.938   3.973  14.493 -0.6022 -0.1833 -1.0587
18249TIP3   OH276237   6.778   4.199   4.321  0.0701 -0.2363  0.0633
18249TIP3    H176238   6.769   4.138   4.394  0.8426 -0.2701  0.1346
18249TIP3    H276239   6.694   4.246   4.318  0.4120  0.5370  1.6690
18250TIP3   OH276240   0.166   4.261   3.125  0.0650 -0.3062 -0.5807
18250TIP3    H176241   0.077   4.295   3.115 -0.2068 -1.7343 -4.6369
18250TIP3    H276242   0.220   4.339   3.142 -1.8043  0.5788  1.9580
18251TIP3   OH276243   6.059   6.247  15.014 -0.2180 -0.2951 -0.3493
18251TIP3    H176244   6.150   6.250  15.045 -0.1189  2.4221 -0.7479
18251TIP3    H276245   6.011   6.204  15.086  1.5711 -3.6122 -0.9244
18252TIP3   OH276246   5.130   2.022   2.134 -0.0642 -0.5201  0.8482
18252TIP3    H176247   5.150   1.931   2.155  0.8213 -0.1228  1.8096
18252TIP3    H276248   5.214   2.068   2.143 -0.2669  0.2270 -0.6567
18253TIP3   OH276249   1.043   4.062   4.726 -0.4869 -0.3550  0.7493
18253TIP3    H176250   1.102   4.134   4.750 -1.1385  0.0164  1.2644
18253TIP3    H276251   1.102   3.989   4.704  0.1720  0.2047  0.6224
18254TIP3   OH276252   3.529   3.577  12.028 -0.1290  0.2157  0.7484
18254TIP3    H176253   3.512   3.554  11.936  2.6686 -0.1815  0.2354
18254TIP3    H276254   3.462   3.642  12.049 -0.3577  0.9520 -1.8547
18255TIP3   OH276255   0.349   6.616  14.188 -0.2104  0.1603  0.0333
18255TIP3    H176256   0.408   6.626  14.262  1.2749 -1.1965 -0.8877
18255TIP3    H276257   0.366   6.693  14.133 -1.0564  0.9809  0.8859
18256TIP3   OH276258   6.577   6.153  12.224 -0.5940  0.2310 -0.0193
18256TIP3    H176259   6.619   6.079  12.268  0.8329  0.6428 -0.6474
18256TIP3    H276260   6.522   6.113  12.156 -1.0047 -0.2969  0.6096
18257TIP3   OH276261   3.180   4.967   2.136 -0.1817  0.1083  0.2592
18257TIP3    H176262   3.179   5.047   2.085 -0.8416 -0.7539 -1.1179
18257TIP3    H276263   3.091   4.959   2.170 -0.4563 -0.6367 -0.5992
18258TIP3   OH276264   1.242   2.956   3.176  0.2420 -0.2624  0.1266
18258TIP3    H176265   1.329   2.933   3.209  0.5189 -1.0889 -1.1079
18258TIP3    H276266   1.190   2.975   3.255  2.0359  2.2129  0.8463
18259TIP3   OH276267   0.286   0.831   2.897  0.2360 -0.6479 -0.2649
18259TIP3    H176268   0.301   0.766   2.966 -0.2249 -1.8310 -1.2354
18259TIP3    H276269   0.197   0.812   2.865 -0.7035  1.7452  0.7386
18260TIP3   OH276270   6.216   3.632  11.523 -0.0462 -0.0802  0.1245
18260TIP3    H176271   6.162   3.677  11.458 -2.2631 -2.6171  0.0353
18260TIP3    H276272   6.305   3.636  11.487 -0.8103  0.7372 -1.8079
18261TIP3   OH276273   3.817   5.207  14.569  0.2448 -0.6255  0.0753
18261TIP3    H176274   3.875   5.262  14.622 -0.4797  0.2920 -0.0603
18261TIP3    H276275   3.867   5.188  14.490  1.9129 -3.1953  1.6193
18262TIP3   OH276276   0.309   6.801   5.476 -0.0290 -0.2296 -0.4724
18262TIP3    H176277   0.284   6.868   5.413 -0.5561  1.1095  1.1215
18262TIP3    H276278   0.348   6.849   5.549  0.9461 -1.7694  0.0739
18263TIP3   OH276279   3.347   0.797   5.342  0.4032  0.1609 -0.0253
18263TIP3    H176280   3.257   0.820   5.316 -0.0688 -1.4245  0.1132
18263TIP3    H276281   3.379   0.743   5.270  1.2663  0.7008 -0.0651
18264TIP3   OH276282   2.004   0.401  10.824  0.4390  0.0087 -0.0809
18264TIP3    H176283   2.071   0.333  10.815 -0.2077 -0.5662 -0.6091
18264TIP3    H276284   1.922   0.358  10.800  0.0853  1.0937 -0.8954
18265TIP3   OH276285   0.707   0.950  10.522 -0.0958  0.0609 -0.5902
18265TIP3    H176286   0.614   0.972  10.517  0.1030  0.6986 -1.6723
18265TIP3    H276287   0.712   0.859  10.491 -0.4864 -0.3719  0.5736
18266TIP3   OH276288   5.310   0.827   5.032  0.0899  0.0146  0.1063
18266TIP3    H176289   5.330   0.766   5.102 -0.4488 -1.6282 -1.1114
18266TIP3    H276290   5.386   0.823   4.974 -0.4442 -0.4244 -0.5831
18267TIP3   OH276291   2.775   6.022  17.110  0.0026  0.2924  0.2637
18267TIP3    H176292   2.799   5.957  17.177  0.2885 -0.1198 -0.2325
18267TIP3    H276293   2.857   6.038  17.062 -0.4217 -0.1933 -0.6449
18268TIP3   OH276294   1.125   0.990   4.112  0.1137  0.4780 -0.2272
18268TIP3    H176295   1.204   0.940   4.092  0.5361  0.6813  0.8512
18268TIP3    H276296   1.110   1.043   4.034 -1.1848 -2.3174 -2.0384
18269TIP3   OH276297   0.318   2.063  12.666 -0.3459  0.8675  0.0569
18269TIP3    H176298   0.366   1.994  12.619 -0.4386  2.2111 -2.1556
18269TIP3    H276299   0.228   2.032  12.668 -0.0876  0.1135  0.7456
18270TIP3   OH276300   0.980   0.864  15.108  0.3864  0.7433 -0.2227
18270TIP3    H176301   0.953   0.954  15.086  1.0980  1.3168  1.1368
18270TIP3    H276302   0.904   0.828  15.154  0.1296  0.6733 -0.6970
18271TIP3   OH276303   0.605   3.991  12.216  0.0424 -0.2469 -0.0364
18271TIP3    H176304   0.601   3.897  12.235  2.2236  0.0220  2.2633
18271TIP3    H276305   0.696   4.015  12.235  0.2756  1.8821 -3.1489
18272TIP3   OH276306   5.111   2.171  14.977  0.6261  0.0301 -0.0012
18272TIP3    H176307   5.046   2.209  14.918  1.5046 -0.3398 -1.2351
18272TIP3    H276308   5.073   2.087  15.004  1.3579 -1.1280 -2.2804
18273TIP3   OH276309   2.232   6.652   0.170  0.3497 -0.0260 -0.0635
18273TIP3    H176310   2.201   6.728   0.219  0.3204  0.1501 -0.3546
18273TIP3    H276311   2.208   6.577   0.225 -0.9339  0.0771 -0.4364
18274TIP3   OH276312   2.840   6.449   5.177 -0.1598 -0.4118 -0.4485
18274TIP3    H176313   2.771   6.461   5.243 -0.0604 -1.7777 -0.0581
18274TIP3    H276314   2.792   6.438   5.095 -0.2998  0.8512 -0.5605
18275TIP3   OH276315   3.533   3.670   3.652 -0.1439  0.0717 -0.4871
18275TIP3    H176316   3.511   3.740   3.714  0.6008 -1.2620  1.3563
18275TIP3    H276317   3.546   3.715   3.569  0.6350  2.1819  0.7021
18276TIP3   OH276318   6.687   3.596  11.605 -0.5989  0.1456  0.3629
18276TIP3    H176319   6.657   3.598  11.696 -1.3999 -1.8635  0.2075
18276TIP3    H276320   6.779   3.620  11.609 -0.4618 -0.5310  1.7882
18277TIP3   OH276321   0.088   4.686  13.499  0.0362 -0.1402 -0.4045
18277TIP3    H176322   0.155   4.753  13.511 -0.0287  0.1128 -1.4146
18277TIP3    H276323   0.028   4.722  13.433 -2.8146  0.9524  2.4845
18278TIP3   OH276324   6.528   1.770  11.804  0.6700  0.0878 -0.9097
18278TIP3    H176325   6.569   1.771  11.717 -0.5727 -1.3061 -1.5677
18278TIP3    H276326   6.540   1.680  11.836  1.8170  0.7922  0.7459
18279TIP3   OH276327   3.786   3.895  13.037 -0.4011 -0.3242  0.6389
18279TIP3    H176328   3.829   3.970  13.078  0.3651 -0.6350  0.4240
18279TIP3    H276329   3.694   3.904  13.062 -0.2363  0.4064  1.0311
18280TIP3   OH276330   1.318   4.654  17.052  0.2222 -0.3772  0.4278
18280TIP3    H176331   1.223   4.662  17.055  0.0341 -2.4778  2.2024
18280TIP3    H276332   1.350   4.736  17.090 -0.9307 -0.2552  1.1640
18281TIP3   OH276333   2.262   4.146   3.881  0.0334 -0.1895  0.7606
18281TIP3    H176334   2.283   4.239   3.893  0.7005 -0.0152 -1.3447
18281TIP3    H276335   2.261   4.110   3.969 -1.0100  1.9704  1.6984
18282TIP3   OH276336   1.255   2.485  13.073 -0.3978 -0.0589 -0.0217
18282TIP3    H176337   1.239   2.534  12.992 -2.6475 -0.1575  0.2784
18282TIP3    H276338   1.332   2.527  13.111 -0.4855  1.3071 -1.2247
18283TIP3   OH276339   0.224   1.916   2.338 -0.3873  0.2680 -0.3098
18283TIP3    H176340   0.257   1.891   2.252 -0.3842 -0.0072 -0.2303
18283TIP3    H276341   0.289   1.882   2.399 -0.4753  0.3180 -0.1877
18284TIP3   OH276342   3.319   2.727  16.365  0.5436 -0.2661  0.0218
18284TIP3    H176343   3.263   2.685  16.300  1.3688  0.2236 -1.0488
18284TIP3    H276344   3.278   2.812  16.380  0.3039 -0.4140  0.2048
18285TIP3   OH276345   5.018   2.937  10.921  0.4655 -0.5268 -0.0466
18285TIP3    H176346   5.092   2.882  10.898  0.1162 -0.3450 -1.7687
18285TIP3    H276347   4.985   2.970  10.837 -1.0253  0.0909  0.7288
18286TIP3   OH276348   4.534   1.960  11.702  0.4082 -0.6557 -0.4149
18286TIP3    H176349   4.529   2.055  11.713  2.1625 -0.7144  1.3326
18286TIP3    H276350   4.473   1.941  11.630 -1.1437  1.5823  0.2149
18287TIP3   OH276351   4.298   6.643   2.469 -0.5133 -0.4326  0.1191
18287TIP3    H176352   4.326   6.711   2.408  1.1092 -0.4901  0.7422
18287TIP3    H276353   4.347   6.662   2.550 -1.8426 -0.9389  1.0770
18288TIP3   OH276354   2.091   6.538  14.307 -0.3091 -0.6690 -0.8492
18288TIP3    H176355   2.044   6.614  14.274  1.7926  0.4819 -1.3747
18288TIP3    H276356   2.093   6.477  14.233  1.1274  0.3308 -1.6822
18289TIP3   OH276357   2.471   3.428  15.315 -0.2000 -0.4212  0.6159
18289TIP3    H176358   2.443   3.337  15.327 -1.4503 -0.3308 -1.3150
18289TIP3    H276359   2.470   3.464  15.404 -2.9828 -1.3942  1.0828
18290TIP3   OH276360   5.756   0.802   6.690 -0.3626  0.3141 -0.0803
18290TIP3    H176361   5.673   0.784   6.646 -1.4311  1.5924  1.2840
18290TIP3    H276362   5.819   0.741   6.651 -1.4970  0.5623 -2.4688
18291TIP3   OH276363   2.015   0.457   0.739  0.5075 -0.2637  0.1251
18291TIP3    H176364   2.057   0.380   0.777  0.9668 -0.4250 -0.6700
18291TIP3    H276365   1.921   0.439   0.746  0.5683 -2.0073 -2.0850
18292TIP3   OH276366   3.813   0.130  16.784  0.0645  0.5492 -0.4929
18292TIP3    H176367   3.820   0.062  16.851  0.2896  1.0564  0.0096
18292TIP3    H276368   3.727   0.116  16.744  0.0839  0.0157 -0.3466
18293TIP3   OH276369   5.576   6.358  11.945  0.1743  0.1648  0.1993
18293TIP3    H176370   5.623   6.286  11.988 -1.3630 -0.6746  0.5579
18293TIP3    H276371   5.640   6.397  11.886  1.0356 -1.5473 -0.0508
18294TIP3   OH276372   5.532   4.659   5.412  0.5069  0.1722 -0.5438
18294TIP3    H176373   5.626   4.676   5.417  0.3354  1.2820 -0.7635
18294TIP3    H276374   5.497   4.693   5.494 -0.2114  3.6803 -2.1077
18295TIP3   OH276375   1.525   2.314   3.832 -0.6922 -0.2010 -0.5441
18295TIP3    H176376   1.568   2.291   3.749  0.6933  1.7193 -0.4258
18295TIP3    H276377   1.585   2.283   3.899 -0.0374  1.4477 -0.3493
18296TIP3   OH276378   4.300   1.986  13.570 -0.6113 -0.1166 -0.0404
18296TIP3    H176379   4.322   2.000  13.478  1.7847 -0.4013  0.4386
18296TIP3    H276380   4.351   2.050  13.618 -1.0720 -0.6217  1.1721
18297TIP3   OH276381   3.198   2.293  14.271 -0.0936  0.6941  0.4199
18297TIP3    H176382   3.167   2.297  14.362  0.7621  1.5132  0.6913
18297TIP3    H276383   3.293   2.281  14.279  0.0297  1.1155 -0.3649
18298TIP3   OH276384   4.501   6.161  14.931 -0.0305 -0.2923 -0.6755
18298TIP3    H176385   4.408   6.141  14.921 -0.1148 -0.9971  1.0738
18298TIP3    H276386   4.546   6.088  14.888 -0.3252 -1.1802  0.4763
18299TIP3   OH276387   3.721   0.123   4.489 -0.4092  0.3962  0.0507
18299TIP3    H176388   3.782   0.053   4.512 -1.4572 -0.6828 -0.3207
18299TIP3    H276389   3.658   0.081   4.430 -1.1960  1.6109 -0.0119
18300TIP3   OH276390   1.225   5.902   3.611  0.4082  0.6623  0.6108
18300TIP3    H176391   1.276   5.834   3.566 -1.1951  0.2339 -0.6597
18300TIP3    H276392   1.284   5.977   3.616  1.3343  0.0341 -0.3759
18301TIP3   OH276393   2.282   5.392   5.984  0.2357 -0.1243 -0.4491
18301TIP3    H176394   2.329   5.416   5.905  2.6474 -0.0843  0.8796
18301TIP3    H276395   2.290   5.468   6.041  0.7691 -1.0268  0.7394
18302TIP3   OH276396   3.008   0.438  12.849 -0.1186 -0.1325  0.5610
18302TIP3    H176397   3.055   0.372  12.900 -0.1723  0.1944  1.0499
18302TIP3    H276398   2.989   0.507  12.913 -0.4673  0.1433  0.1614
18303TIP3   OH276399   1.795   5.862   4.063  0.0460 -0.4866  0.2394
18303TIP3    H176400   1.815   5.952   4.089 -1.7672  0.2261 -0.6515
18303TIP3    H276401   1.765   5.821   4.145 -2.1221  0.6846  0.1272
18304TIP3   OH276402   6.262   6.255  14.034 -0.2115  0.1831  0.5251
18304TIP3    H176403   6.270   6.233  13.941 -0.1681  0.4277  0.4718
18304TIP3    H276404   6.197   6.325  14.037 -0.6115 -0.1910  0.7323
18305TIP3   OH276405   2.476   3.694  15.127  0.1797  0.4968 -0.1026
18305TIP3    H176406   2.540   3.643  15.176  0.1951  1.1311  0.5595
18305TIP3    H276407   2.393   3.648  15.140  0.2959  0.3118 -0.0126
18306TIP3   OH276408   6.515   4.875  13.995  0.1251  0.0883  0.7044
18306TIP3    H176409   6.503   4.796  13.943 -0.6027 -0.0418  1.0585
18306TIP3    H276410   6.580   4.852  14.061 -0.3497 -0.3354  1.0343
18307TIP3   OH276411   0.015   2.073   5.812 -0.7767  0.2662 -0.8627
18307TIP3    H176412   0.105   2.055   5.839 -0.6602  0.8552 -0.8506
18307TIP3    H276413  -0.038   2.047   5.887 -0.6096  0.0271 -0.8261
18308TIP3   OH276414   4.475   0.141   3.193  0.7010  0.8735  0.7846
18308TIP3    H176415   4.430   0.153   3.110 -1.8969  3.1273  2.3049
18308TIP3    H276416   4.560   0.184   3.181  0.6383  0.6090 -0.8270
18309TIP3   OH276417   2.689   6.361   4.945  0.3030 -0.3054  0.2868
18309TIP3    H176418   2.634   6.437   4.967 -0.8057 -0.8045 -0.6174
18309TIP3    H276419   2.708   6.373   4.852 -0.1154 -1.2568  0.0677
18310TIP3   OH276420   1.494   3.643   6.656  0.1513  0.0306 -0.2420
18310TIP3    H176421   1.567   3.582   6.641 -0.2146 -0.8554  1.3889
18310TIP3    H276422   1.534   3.719   6.697  0.0389 -1.0535  2.0315
18311TIP3   OH276423   1.526   2.955  14.779  0.1093  0.5374 -1.3058
18311TIP3    H176424   1.471   2.923  14.851  0.1156 -0.3218 -1.6743
18311TIP3    H276425   1.464   2.971  14.708  0.2433  0.2724 -1.4831
18312TIP3   OH276426   4.763   5.958   2.199 -0.0305 -0.1038 -0.0076
18312TIP3    H176427   4.759   6.051   2.224 -0.9613 -0.4660  1.2971
18312TIP3    H276428   4.751   5.959   2.104  1.7838  1.2187 -0.2848
18313TIP3   OH276429   1.985   5.190   5.163 -0.0906  0.4126 -0.3396
18313TIP3    H176430   1.939   5.227   5.088 -1.3565  2.2742  1.2446
18313TIP3    H276431   1.971   5.254   5.233  0.9603 -1.2794  1.5191
18314TIP3   OH276432   3.058   3.030   0.414 -0.1332  0.1936  0.6444
18314TIP3    H176433   3.035   3.100   0.353  2.5788  0.7038  0.0941
18314TIP3    H276434   2.988   2.965   0.402 -1.3271  1.6311 -0.7311
18315TIP3   OH276435   6.481   4.377  16.509 -0.5063 -0.1328  0.6637
18315TIP3    H176436   6.544   4.340  16.571  0.5691  1.7678  0.7991
18315TIP3    H276437   6.531   4.389  16.429 -1.9610 -2.8427 -0.7905
18316TIP3   OH276438   5.419   2.585   5.627 -0.2920  0.2083  0.2821
18316TIP3    H176439   5.392   2.651   5.691 -1.4744 -0.2624  0.2963
18316TIP3    H276440   5.337   2.545   5.598  0.1119  0.9512 -2.1397
18317TIP3   OH276441   0.537   2.086  14.532  0.7535  1.1089 -0.3356
18317TIP3    H176442   0.523   2.072  14.626 -0.7990 -2.6565 -0.9282
18317TIP3    H276443   0.458   2.133  14.503  0.4616  0.8523  0.0253
18318TIP3   OH276444   6.114   6.465   2.957  0.8072  0.2326 -0.0646
18318TIP3    H176445   6.039   6.522   2.943  1.1493  0.6697 -0.1544
18318TIP3    H276446   6.170   6.514   3.018  0.6644 -0.4188  0.6091
18319TIP3   OH276447   5.121   0.951  14.564  0.3940  0.1771  0.6040
18319TIP3    H176448   5.052   0.994  14.614 -0.1054  0.5692 -0.3895
18319TIP3    H276449   5.074   0.905  14.494  1.1714  0.9572 -0.4519
18320TIP3   OH276450   1.541   1.537   1.192  0.4798  0.3101  0.2310
18320TIP3    H176451   1.554   1.542   1.097  1.1819  0.1534  0.3122
18320TIP3    H276452   1.486   1.461   1.205  0.8482 -0.0031 -0.0177
18321TIP3   OH276453   5.403   6.541   2.183 -0.0582  0.7418 -0.9626
18321TIP3    H176454   5.415   6.461   2.234 -2.6803  0.2612 -0.9154
18321TIP3    H276455   5.410   6.611   2.248 -2.8085  0.1644  0.1222
18322TIP3   OH276456   3.397   3.117   1.178 -0.3760 -0.1493  0.1126
18322TIP3    H176457   3.453   3.097   1.253 -2.4011 -0.2903  1.6782
18322TIP3    H276458   3.363   3.032   1.150  1.1159 -0.2154 -1.6578
18323TIP3   OH276459   6.389   6.349  13.377  0.4708 -0.3512  0.4072
18323TIP3    H176460   6.469   6.300  13.399  0.0416 -0.7900  1.0176
18323TIP3    H276461   6.330   6.333  13.451 -0.5449 -0.8394 -0.4874
18324TIP3   OH276462   5.823   4.815   4.404 -0.0082  0.7269 -0.2636
18324TIP3    H176463   5.840   4.742   4.463  0.5236  0.9836 -0.0850
18324TIP3    H276464   5.807   4.889   4.463 -1.7449  0.5166 -0.4233
18325TIP3   OH276465   2.476   0.340   5.339  0.7397  0.9649  0.3744
18325TIP3    H176466   2.531   0.338   5.417  1.3803  1.3511 -0.0612
18325TIP3    H276467   2.389   0.361   5.372  0.7600 -0.0117  1.1122
18326TIP3   OH276468   3.253   5.024  14.365 -0.3564 -0.4725 -0.1394
18326TIP3    H176469   3.288   4.937  14.344  0.0697 -0.2623 -0.3259
18326TIP3    H276470   3.175   5.032  14.310  0.4457 -0.1462 -1.2877
18327TIP3   OH276471   2.787   4.023  12.031  0.7100  0.2613  0.2395
18327TIP3    H176472   2.733   4.102  12.036 -2.8152 -1.7098 -2.5266
18327TIP3    H276473   2.841   4.036  11.953  0.6188  0.2384  0.1714
18328TIP3   OH276474   0.609   0.687  15.641  0.0876  0.1553 -0.0874
18328TIP3    H176475   0.655   0.690  15.725 -1.3232  2.0674  0.6749
18328TIP3    H276476   0.541   0.620  15.653  0.2787 -0.0119  0.0734
18329TIP3   OH276477   5.524   2.281  16.526  0.3556 -0.1372  0.2791
18329TIP3    H176478   5.563   2.210  16.577 -0.0220 -0.1782  0.5140
18329TIP3    H276479   5.468   2.328  16.588 -1.3690 -1.1339 -0.4273
18330TIP3   OH276480   5.422   3.658  17.042  0.4560 -0.0770  0.5511
18330TIP3    H176481   5.416   3.573  16.998  1.4800 -1.0676  2.2018
18330TIP3    H276482   5.476   3.711  16.984  1.9224 -1.4026  0.6154
18331TIP3   OH276483   4.993   4.586  13.222 -0.4747 -0.7260 -0.5470
18331TIP3    H176484   4.986   4.678  13.246 -0.0768  0.0431 -3.1247
18331TIP3    H276485   4.939   4.540  13.287  0.6260  1.0917  1.7907
18332TIP3   OH276486   3.434   5.875   2.078  0.5035  0.6371  0.5119
18332TIP3    H176487   3.344   5.841   2.082  1.9173 -3.4555  1.7726
18332TIP3    H276488   3.438   5.938   2.150 -1.4818  1.4265  0.0150
18333TIP3   OH276489   4.002   1.798   4.525  0.1647  0.0514 -0.0869
18333TIP3    H176490   4.078   1.778   4.580  0.4877  1.0630 -0.1348
18333TIP3    H276491   4.034   1.864   4.464 -0.9698  1.1355  0.4484
18334TIP3   OH276492   0.861   5.958   3.450  0.3231  0.3878 -0.2851
18334TIP3    H176493   0.892   6.028   3.393 -0.5217  0.1634 -1.0359
18334TIP3    H276494   0.768   5.974   3.460 -0.1544 -1.3097 -1.5071
18335TIP3   OH276495   4.661   3.118   1.645  0.0864  0.4690 -0.3566
18335TIP3    H176496   4.710   3.117   1.563  1.2979 -0.4025  0.3555
18335TIP3    H276497   4.705   3.054   1.701 -1.8184 -0.3153  0.3419
18336TIP3   OH276498   5.754   3.711  11.581  0.1591 -0.5045  0.7319
18336TIP3    H176499   5.750   3.806  11.587  1.4169 -0.4792  1.3533
18336TIP3    H276500   5.678   3.681  11.631 -1.1372  0.1726 -0.7438
18337TIP3   OH276501   2.989   5.429  14.537 -0.0518  0.0823 -0.0113
18337TIP3    H176502   3.055   5.442  14.469 -0.7395  2.5684 -0.2863
18337TIP3    H276503   2.987   5.334  14.550  4.1677 -0.1093  0.6447
18338TIP3   OH276504   0.991   5.078  14.421 -0.1651  0.2089 -0.0888
18338TIP3    H176505   0.955   5.041  14.340 -0.1691 -1.2245  0.5516
18338TIP3    H276506   1.004   5.003  14.478  1.6118  0.9907  0.5767
18339TIP3   OH276507   4.549   6.459   5.447 -0.5052 -0.2397  0.0449
18339TIP3    H176508   4.644   6.468   5.448 -0.4595 -0.6256  0.9260
18339TIP3    H276509   4.520   6.509   5.371  0.5397 -1.5577 -1.2601
18340TIP3   OH276510   3.585   6.701  14.088 -0.0837 -0.0234  0.4273
18340TIP3    H176511   3.525   6.744  14.150 -0.5131 -0.3076  0.2155
18340TIP3    H276512   3.657   6.763  14.078 -0.7258  0.6834  0.0867
18341TIP3   OH276513   0.601   2.052  14.149 -0.1531 -0.4337 -0.1101
18341TIP3    H176514   0.549   2.130  14.129  1.7113  0.5607 -1.3747
18341TIP3    H276515   0.649   2.033  14.068  3.7438  0.5762  1.7461
18342TIP3   OH276516   3.290   3.855   5.702  0.0452 -0.6073  0.5172
18342TIP3    H176517   3.276   3.892   5.615 -0.7255 -1.2858  0.3467
18342TIP3    H276518   3.317   3.930   5.755  1.2326 -0.3186 -0.4571
18343TIP3   OH276519   0.147   5.179  12.071  0.5407  0.2271  0.0806
18343TIP3    H176520   0.063   5.192  12.115  0.1842 -1.0092 -0.2048
18343TIP3    H276521   0.199   5.128  12.132  0.7620  0.2084 -0.1230
18344TIP3   OH276522   0.841   1.040  12.849 -0.2877 -0.4384  0.1022
18344TIP3    H176523   0.819   0.973  12.784 -1.8890  0.1901 -0.0421
18344TIP3    H276524   0.852   1.120  12.797  1.3174 -0.4849  0.3075
18345TIP3   OH276525   5.145   1.803  16.091 -0.4817 -0.4735 -0.2059
18345TIP3    H176526   5.152   1.714  16.127 -1.6665 -0.3578  0.3621
18345TIP3    H276527   5.088   1.849  16.153  0.1678  0.7089 -0.4597
18346TIP3   OH276528   2.069   6.091  10.558 -0.5649 -0.4309  0.0262
18346TIP3    H176529   1.991   6.116  10.509 -0.4514  2.3649  1.1054
18346TIP3    H276530   2.102   6.173  10.594  1.1979 -1.9278  2.0656
18347TIP3   OH276531   6.212   0.837   4.947  0.1629  0.7394 -0.7120
18347TIP3    H176532   6.185   0.899   4.879 -0.3739  2.8265  1.2852
18347TIP3    H276533   6.267   0.888   5.006  1.6915 -1.3363 -0.2311
18348TIP3   OH276534   6.055   1.177  15.859  0.1766  0.2004 -0.3986
18348TIP3    H176535   6.124   1.114  15.879 -0.9386 -1.3500 -1.2703
18348TIP3    H276536   6.005   1.137  15.788 -1.4128  1.4408 -0.0402
18349TIP3   OH276537   6.303   3.965   0.538  0.1291  0.3201  0.2448
18349TIP3    H176538   6.249   3.959   0.459 -0.1840  2.3923  0.2653
18349TIP3    H276539   6.389   3.990   0.507  0.8256 -1.7796  0.3328
18350TIP3   OH276540   5.254   1.120   5.339 -0.0090 -0.1495  0.4772
18350TIP3    H176541   5.236   1.154   5.427 -1.4526  0.5303 -0.0361
18350TIP3    H276542   5.293   1.034   5.354  2.9434  1.2872  1.8050
18351TIP3   OH276543   3.303   4.667   0.465  0.3217  0.0005  0.2593
18351TIP3    H176544   3.324   4.687   0.556 -0.0618  3.0465 -0.2372
18351TIP3    H276545   3.208   4.660   0.463  0.3742 -0.9095  0.1953
18352TIP3   OH276546   4.905   0.215  15.326  0.0601 -0.2731  0.2579
18352TIP3    H176547   4.866   0.302  15.339 -0.6764 -0.5284 -0.1965
18352TIP3    H276548   4.869   0.184  15.244  1.0121 -0.6549 -0.0285
18353TIP3   OH276549   4.085   5.175  15.079 -0.2091 -0.0071 -0.3654
18353TIP3    H176550   3.995   5.146  15.094 -0.1698 -0.5214 -1.0356
18353TIP3    H276551   4.077   5.268  15.058 -0.4498  0.2511  0.8046
18354TIP3   OH276552   1.729   1.580  10.455  0.2420 -0.7581 -0.1390
18354TIP3    H176553   1.740   1.538  10.541 -0.1623  1.3781  1.0253
18354TIP3    H276554   1.786   1.656  10.459 -3.4123  2.2400  0.2947
18355TIP3   OH276555   0.025   1.621  14.143 -0.0027  0.5807  0.3807
18355TIP3    H176556   0.098   1.636  14.204  0.6196 -0.0500 -0.1838
18355TIP3    H276557   0.007   1.527  14.151  0.9706  0.2035 -1.3304
18356TIP3   OH276558   3.687   3.216  15.914  0.6321  0.0842  0.1413
18356TIP3    H176559   3.665   3.255  15.830  1.8320  0.3473 -0.0698
18356TIP3    H276560   3.688   3.122  15.897 -0.2480  0.0683  0.1483
18357TIP3   OH276561   0.215   1.363  16.078 -0.0519  0.4909  0.1037
18357TIP3    H176562   0.233   1.300  16.008 -0.9567  0.0708  0.2328
18357TIP3    H276563   0.168   1.312  16.144  2.6421  0.3246  2.0343
18358TIP3   OH276564   0.701   3.929   4.650  0.6192  0.0181 -0.6155
18358TIP3    H176565   0.691   3.843   4.609 -1.7940  0.1925 -0.5450
18358TIP3    H276566   0.707   3.911   4.743  0.1732 -0.1011 -0.6063
18359TIP3   OH276567   3.209   5.833  11.818  0.0790 -0.4559  0.6299
18359TIP3    H176568   3.296   5.872  11.825 -1.0045  1.9107  2.5104
18359TIP3    H276569   3.178   5.858  11.731  0.6028  0.2893  0.6507
18360TIP3   OH276570   5.109   0.362  12.962  0.8135 -0.3977  0.4381
18360TIP3    H176571   5.120   0.423  12.888  0.8093  0.0892  0.8321
18360TIP3    H276572   5.091   0.419  13.037 -1.1238 -0.9648  0.4725
18361TIP3   OH276573   1.602   2.227  16.711 -0.1170 -0.2986 -0.6392
18361TIP3    H176574   1.575   2.269  16.793  0.8986  0.0430 -0.4695
18361TIP3    H276575   1.698   2.235  16.711  0.0231 -1.8071 -1.0429
18362TIP3   OH276576   0.177   3.406   1.727 -0.6099 -0.1488 -0.2686
18362TIP3    H176577   0.090   3.437   1.702 -0.7481  0.3455  0.7650
18362TIP3    H276578   0.201   3.343   1.658 -0.6905  1.5807 -1.9623
18363TIP3   OH276579   0.556   3.337  15.495 -0.2902 -0.2486 -0.2920
18363TIP3    H176580   0.505   3.359  15.573 -2.7450  2.3902 -2.4156
18363TIP3    H276581   0.492   3.303  15.432  1.4392 -1.4104 -1.5214
18364TIP3   OH276582   6.038   2.023   0.129 -0.0846  0.0426 -0.0677
18364TIP3    H176583   6.091   1.944   0.123 -0.4709 -0.1568 -0.9235
18364TIP3    H276584   6.083   2.087   0.073 -0.5127  0.0025 -0.4610
18365TIP3   OH276585   1.446   4.237  11.896  0.4504 -0.0311 -0.5385
18365TIP3    H176586   1.481   4.220  11.983 -0.3104  0.3457 -0.1470
18365TIP3    H276587   1.461   4.156  11.847  1.8791  0.1310 -0.4070
18366TIP3   OH276588   3.816   5.870   5.905  0.1356 -0.3170  0.4981
18366TIP3    H176589   3.871   5.813   5.852  0.0873 -0.0488  0.1554
18366TIP3    H276590   3.729   5.831   5.901 -0.0233  0.0945 -0.2138
18367TIP3   OH276591   3.625   1.339  15.357 -0.8871 -0.5541 -0.3163
18367TIP3    H176592   3.714   1.312  15.334 -0.5565 -0.7000  1.0583
18367TIP3    H276593   3.626   1.434  15.352 -0.0131 -0.3995  1.7503
18368TIP3   OH276594   0.496   3.057  14.365 -0.0376 -0.2130 -0.3878
18368TIP3    H176595   0.494   3.096  14.452  1.3019 -0.4380 -0.2318
18368TIP3    H276596   0.481   2.964  14.380 -0.7624 -0.1182 -0.5043
18369TIP3   OH276597   6.522   6.223   0.026 -0.6484 -0.4946 -0.0723
18369TIP3    H176598   6.506   6.317   0.031  0.4246 -0.2393 -0.9840
18369TIP3    H276599   6.507   6.191   0.115  0.5123  0.8044  0.6284
18370TIP3   OH276600   1.608   0.292  11.952  0.4181 -0.0366  0.1999
18370TIP3    H176601   1.683   0.262  12.003 -0.1793  0.0965  1.1803
18370TIP3    H276602   1.548   0.218  11.951  0.8556 -0.4073 -1.2197
18371TIP3   OH276603   1.915   4.131   4.012 -0.0084  0.3592 -0.5696
18371TIP3    H176604   2.005   4.103   3.994 -1.2338 -3.4718 -1.6996
18371TIP3    H276605   1.908   4.127   4.108  0.4347 -1.9061 -0.5613
18372TIP3   OH276606   3.248   4.748   5.746  0.5570 -0.1080 -0.4053
18372TIP3    H176607   3.316   4.787   5.801  1.3992 -0.2473 -1.3223
18372TIP3    H276608   3.168   4.794   5.771  1.2506  1.0985 -0.3378
18373TIP3   OH276609   6.123   1.623   0.138  0.3045  0.5152 -0.8865
18373TIP3    H176610   6.085   1.548   0.091 -1.2241 -0.4803  1.7326
18373TIP3    H276611   6.217   1.613   0.127  0.0951 -1.3251 -1.3083
18374TIP3   OH276612   2.781   0.492  13.466 -0.4979 -0.0510  0.7414
18374TIP3    H176613   2.744   0.436  13.398 -0.0532  2.0794 -1.3656
18374TIP3    H276614   2.858   0.444  13.497 -0.4463 -0.8729 -0.5650
18375TIP3   OH276615   6.065   0.466   3.729 -0.1411  0.6343 -0.4320
18375TIP3    H176616   6.071   0.380   3.772  3.3519  1.4145  1.0723
18375TIP3    H276617   6.071   0.446   3.636 -0.4628 -0.8015 -0.1793
18376TIP3   OH276618   3.177   2.112  12.102 -0.0522 -0.0586  0.0730
18376TIP3    H176619   3.209   2.134  12.014 -1.0103 -0.7080 -0.4694
18376TIP3    H276620   3.116   2.039  12.087  0.3348 -0.6702  1.3725
18377TIP3   OH276621   6.398   0.979  12.059 -0.6433 -0.0366 -0.6472
18377TIP3    H176622   6.415   1.073  12.071 -0.1791 -0.2044  0.0527
18377TIP3    H276623   6.306   0.976  12.032 -0.8117  0.5953 -0.1898
18378TIP3   OH276624   5.356   6.800  12.041  0.3609 -0.6342  0.1545
18378TIP3    H176625   5.332   6.806  11.948 -0.5492 -3.1282  0.1840
18378TIP3    H276626   5.278   6.829  12.088  0.8051  0.5805  0.1766
18379TIP3   OH276627   5.506   1.798   3.738  0.0030  0.5028  0.0629
18379TIP3    H176628   5.463   1.787   3.654 -0.3373  0.5605  0.2290
18379TIP3    H276629   5.524   1.708   3.768 -2.0055  0.3658  1.0206
18380TIP3   OH276630   6.566   4.645  12.871 -0.2259 -0.4352 -0.2599
18380TIP3    H176631   6.576   4.617  12.780  0.5062  1.1215 -0.7026
18380TIP3    H276632   6.649   4.689  12.891 -1.5128  2.0687  0.0737
18381TIP3   OH276633   0.250   0.920  16.804 -1.5035 -0.1778 -0.1770
18381TIP3    H176634   0.241   1.006  16.845 -2.2671 -0.4326  0.2007
18381TIP3    H276635   0.334   0.924  16.759 -1.6613  0.8659 -0.3992
18382TIP3   OH276636   6.369   0.786   0.720  0.2653 -0.3664  0.1491
18382TIP3    H176637   6.382   0.702   0.675 -1.8268 -0.8021  0.2461
18382TIP3    H276638   6.328   0.762   0.803 -0.5473  0.7540  0.0859
18383TIP3   OH276639   5.618   6.399  12.429 -0.4300  0.6491  0.0321
18383TIP3    H176640   5.641   6.322  12.377  1.4948 -0.3292  2.1394
18383TIP3    H276641   5.656   6.472  12.381  0.6303 -0.1405 -0.3760
18384TIP3   OH276642   0.454   2.645  13.655 -0.4402 -0.1979 -0.4862
18384TIP3    H176643   0.447   2.665  13.561 -0.9220 -1.0785 -0.6483
18384TIP3    H276644   0.462   2.730  13.697  3.4758  0.1837 -1.5872
18385TIP3   OH276645   1.867   3.470  11.743 -0.1745  0.4914  0.0131
18385TIP3    H176646   1.872   3.514  11.659  1.6721  0.9488  0.3159
18385TIP3    H276647   1.894   3.380  11.725  2.1151  1.0400  0.3587
18386TIP3   OH276648   2.945   0.240   3.454  0.0024  0.0910 -0.6808
18386TIP3    H176649   3.033   0.264   3.423 -0.8943  2.3086 -1.7433
18386TIP3    H276650   2.938   0.147   3.433  3.1462 -1.0099  2.1963
18387TIP3   OH276651   2.658   4.598   0.131 -0.2328  0.3222  0.1084
18387TIP3    H176652   2.715   4.583   0.056  1.1052  0.2518  1.0984
18387TIP3    H276653   2.691   4.679   0.170 -0.9118  0.3601  0.6222
18388TIP3   OH276654   2.294   6.666  10.989 -0.2965  0.0835  0.1695
18388TIP3    H176655   2.330   6.755  10.993 -1.5909  0.5944  1.2542
18388TIP3    H276656   2.315   6.636  10.901  2.6205  0.3707  0.6681
18389TIP3   OH276657   5.784   1.122  12.525 -0.0380  0.1071 -0.4511
18389TIP3    H176658   5.749   1.203  12.562 -0.0220 -0.3560  0.6075
18389TIP3    H276659   5.733   1.052  12.566 -0.2473 -0.4286 -1.5616
18390TIP3   OH276660   3.914   1.918  14.240  0.1324 -0.3881  0.5009
18390TIP3    H176661   3.873   1.937  14.325  1.4378  1.8857  0.7036
18390TIP3    H276662   3.913   2.002  14.194  3.3768 -0.4724  0.0426
18391TIP3   OH276663   0.779   1.527  13.384 -1.0222  0.1311 -0.6018
18391TIP3    H176664   0.723   1.557  13.455  0.7514  0.7054  0.6094
18391TIP3    H276665   0.765   1.432  13.381 -2.0857  0.2699 -0.3833
18392TIP3   OH276666   1.803   2.952  14.898 -0.0673 -0.1393  0.2684
18392TIP3    H176667   1.716   2.930  14.864  0.4827 -0.0362 -1.2722
18392TIP3    H276668   1.826   2.877  14.953 -1.1598 -0.1272  0.7696
18393TIP3   OH276669   6.548   4.994  14.909 -0.7031  0.6471 -0.2907
18393TIP3    H176670   6.466   5.042  14.896 -1.4428 -0.5298 -0.1469
18393TIP3    H276671   6.594   5.043  14.977 -1.5582  1.0089  0.0422
18394TIP3   OH276672   5.122   0.207  11.200 -0.0426 -0.1447  0.3172
18394TIP3    H176673   5.139   0.209  11.106  1.7641  1.0983  0.5975
18394TIP3    H276674   5.103   0.298  11.223 -2.0617 -0.6788  0.9366
18395TIP3   OH276675   4.614   6.661   4.229  0.6086  0.2122 -0.2099
18395TIP3    H176676   4.657   6.578   4.251 -0.0520 -0.6414 -1.9708
18395TIP3    H276677   4.650   6.685   4.143 -0.1890  1.0780 -0.3198
18396TIP3   OH276678   2.186   0.862  15.944  0.0939 -0.4679  0.1734
18396TIP3    H176679   2.176   0.767  15.937  2.4189 -0.8019  0.6131
18396TIP3    H276680   2.255   0.884  15.881  0.8530  0.6350  1.3282
18397TIP3   OH276681   0.506   2.775  14.336 -0.5961  0.7393 -0.0912
18397TIP3    H176682   0.564   2.775  14.260  0.0449  1.5689  0.3881
18397TIP3    H276683   0.537   2.702  14.390  1.1545  2.1999  0.9902
18398TIP3   OH276684   0.678   3.078  17.038 -0.0674  0.9013 -0.1446
18398TIP3    H176685   0.614   3.139  17.075 -0.0293  0.8170  0.0616
18398TIP3    H276686   0.705   3.023  17.112 -1.4084 -0.5357 -0.6775
18399TIP3   OH276687   5.104   6.359  15.240  0.1094  0.2930 -0.0569
18399TIP3    H176688   5.067   6.440  15.206  0.3506  0.1332 -0.7201
18399TIP3    H276689   5.171   6.388  15.302  1.4762  0.6538 -1.6374
18400TIP3   OH276690   1.750   5.211   3.269  0.4160  0.1889 -0.0590
18400TIP3    H176691   1.667   5.172   3.296 -0.0845  1.0387 -0.3226
18400TIP3    H276692   1.740   5.304   3.289  1.4577  0.2405  0.2718
18401TIP3   OH276693   6.370   1.440  13.240  0.2504  0.1440  0.6670
18401TIP3    H176694   6.395   1.455  13.331  1.2169  0.1172  0.4182
18401TIP3    H276695   6.429   1.495  13.190  0.5115 -0.7235 -0.0020
18402TIP3   OH276696   6.354   5.789  15.922 -0.0558 -0.5752 -0.1051
18402TIP3    H176697   6.311   5.710  15.953 -0.3976  0.8144  3.3797
18402TIP3    H276698   6.288   5.858  15.928  1.1705  0.6261  0.3625
18403TIP3   OH276699   0.885   6.166  11.821 -0.1177 -0.3864  0.6707
18403TIP3    H176700   0.856   6.096  11.879  0.2106 -2.5407 -1.6127
18403TIP3    H276701   0.807   6.187  11.768 -0.3114  1.2746  1.5483
18404TIP3   OH276702   0.444   5.667   3.795  0.3603 -0.9445 -0.1080
18404TIP3    H176703   0.507   5.652   3.866  1.5421 -0.1701 -0.9617
18404TIP3    H276704   0.493   5.647   3.715 -0.7021 -1.0177 -0.7486
18405TIP3   OH276705   1.771   6.126  11.040  0.0285 -0.4525 -0.5249
18405TIP3    H176706   1.808   6.212  11.020  0.9861 -0.9310 -0.8783
18405TIP3    H276707   1.716   6.106  10.964 -1.4316  0.4847  0.2309
18406TIP3   OH276708   3.159   2.464  14.851  0.1202 -0.1453  0.3264
18406TIP3    H176709   3.245   2.499  14.825 -0.2102 -0.8032 -1.8248
18406TIP3    H276710   3.179   2.383  14.897  0.6522 -0.6193 -0.7128
18407TIP3   OH276711   0.620   5.350   1.649 -0.7247  0.4484 -0.3549
18407TIP3    H176712   0.606   5.255   1.646 -1.0473  0.3926  1.7297
18407TIP3    H276713   0.713   5.360   1.666 -0.8125  0.4822  0.1147
18408TIP3   OH276714   2.894   0.277   1.733 -0.0568 -0.1530  0.1495
18408TIP3    H176715   2.805   0.309   1.716 -0.3020 -0.2949  1.1075
18408TIP3    H276716   2.947   0.314   1.662 -0.7225  0.6499  0.0599
18409TIP3   OH276717   4.964   4.685   0.925  0.1271  0.3495  0.4741
18409TIP3    H176718   4.983   4.756   0.987 -0.8749  0.8419  0.2463
18409TIP3    H276719   4.930   4.729   0.847  0.2531 -0.3352  0.0188
18410TIP3   OH276720   0.208   3.529   4.394 -0.2909  0.1749  0.2352
18410TIP3    H176721   0.239   3.520   4.484  0.0634  0.8007  0.1834
18410TIP3    H276722   0.269   3.591   4.354  0.3993 -1.1521 -0.8501
18411TIP3   OH276723   5.381   6.685  12.690  0.3231  0.1019  0.2293
18411TIP3    H176724   5.289   6.678  12.717  0.1913  1.5607  0.2352
18411TIP3    H276725   5.407   6.773  12.716  1.8420 -0.4036  0.5336
18412TIP3   OH276726   5.101   5.379   0.399  0.1669  0.1460  0.4219
18412TIP3    H176727   5.173   5.442   0.397 -1.1329  1.7480  1.3611
18412TIP3    H276728   5.034   5.417   0.342 -1.9815  1.4839  3.5220
18413TIP3   OH276729   0.878   3.462  14.268  0.2942 -0.5809  0.2005
18413TIP3    H176730   0.842   3.415  14.343 -1.8152 -1.4996 -1.2868
18413TIP3    H276731   0.917   3.541  14.306 -1.2555 -0.6968  2.2313
18414TIP3   OH276732   0.906   6.053   5.277  0.0353  0.2513  0.1894
18414TIP3    H176733   0.997   6.053   5.307 -0.0293 -0.9919  0.4396
18414TIP3    H276734   0.855   6.033   5.356 -0.4693  1.0912  0.0786
18415TIP3   OH276735   4.251   5.393   1.025 -0.2901 -0.5696  0.0374
18415TIP3    H176736   4.194   5.381   0.949 -1.5688  0.9124  0.7053
18415TIP3    H276737   4.339   5.403   0.988 -0.9981  0.9449 -1.3258
18416TIP3   OH276738   4.960   0.112   4.612  0.5358 -0.3522 -0.5426
18416TIP3    H176739   5.055   0.114   4.604  0.3925  1.7866 -3.4939
18416TIP3    H276740   4.928   0.123   4.522 -2.4797  0.0394  0.4642
18417TIP3   OH276741   4.988   4.468   2.771  0.0182  0.3504  0.0256
18417TIP3    H176742   5.043   4.534   2.814  0.7293 -0.1273 -0.1247
18417TIP3    H276743   4.965   4.507   2.687  2.6072 -0.5528 -1.2256
18418TIP3   OH276744   3.599   0.447  13.854 -0.1642 -0.1689 -0.1454
18418TIP3    H176745   3.544   0.502  13.909 -0.6529  0.9274 -1.6488
18418TIP3    H276746   3.539   0.385  13.813 -0.0321 -0.0772 -0.4854
18419TIP3   OH276747   0.719   2.493   2.901 -0.1200 -0.1681  0.3371
18419TIP3    H176748   0.646   2.454   2.852 -0.3662 -0.1901  0.7206
18419TIP3    H276749   0.798   2.457   2.859 -0.3268 -0.1451 -0.0759
18420TIP3   OH276750   5.548   1.246   1.411  0.0159 -0.7020 -0.3289
18420TIP3    H176751   5.475   1.232   1.350 -0.3440 -0.4465  0.0318
18420TIP3    H276752   5.520   1.203   1.492 -0.7193  1.2388  0.5169
18421TIP3   OH276753   5.597   0.026  12.767  0.2280  0.0764 -0.1596
18421TIP3    H176754   5.690   0.006  12.771 -0.1058 -1.7804 -0.7420
18421TIP3    H276755   5.583   0.060  12.679  0.4086  0.6706  0.0404
18422TIP3   OH276756   0.305   2.422   2.527 -0.2607  0.0363  0.3401
18422TIP3    H176757   0.266   2.340   2.497  1.2178  0.3181 -2.8342
18422TIP3    H276758   0.234   2.467   2.574 -1.4025 -2.5603  1.2603
18423TIP3   OH276759   2.813   5.995  10.990 -0.0920  0.1494 -0.3238
18423TIP3    H176760   2.884   6.051  10.958  0.1435 -0.4294 -0.8212
18423TIP3    H276761   2.753   5.988  10.916  0.2408 -0.8437 -0.5187
18424TIP3   OH276762   0.664   0.220   6.316 -0.3277  0.2054  0.0802
18424TIP3    H176763   0.655   0.232   6.410 -2.8928 -2.2035  0.2784
18424TIP3    H276764   0.616   0.139   6.297 -1.8068  1.6907 -3.5784
18425TIP3   OH276765   5.397   6.738   1.557  0.4959 -0.4316  0.3707
18425TIP3    H176766   5.369   6.668   1.616 -2.5072 -0.6530 -1.0826
18425TIP3    H276767   5.378   6.819   1.604  0.4065 -0.5975  0.6206
18426TIP3   OH276768   2.032   5.012  11.687 -0.3431  0.4841  0.3720
18426TIP3    H176769   2.053   4.978  11.774 -0.3254 -0.6402 -0.0518
18426TIP3    H276770   2.117   5.019  11.643 -0.5399 -2.1521 -0.6558
18427TIP3   OH276771   2.035   2.664  15.310  0.5320  0.1839 -0.0265
18427TIP3    H176772   1.965   2.598  15.304  0.8733 -0.4101  1.8526
18427TIP3    H276773   2.116   2.613  15.305  0.8034  0.5328  0.7486
18428TIP3   OH276774   5.656   4.910   1.865 -0.1563  0.7302 -0.2410
18428TIP3    H176775   5.643   4.942   1.954  0.9548  3.4463 -0.9707
18428TIP3    H276776   5.625   4.819   1.868 -1.6538  1.2160  2.4833
18429TIP3   OH276777   3.335   2.548  11.187 -0.1974  0.0407 -0.0387
18429TIP3    H176778   3.381   2.572  11.267  0.2320  1.8959 -0.7992
18429TIP3    H276779   3.404   2.529  11.124 -0.3855  2.3755 -1.0493
18430TIP3   OH276780   5.129   5.537   4.962 -0.1013  0.2707 -0.4406
18430TIP3    H176781   5.072   5.551   4.887 -1.5387 -0.7746  0.4192
18430TIP3    H276782   5.079   5.568   5.037  0.4925 -0.5755  0.3297
18431TIP3   OH276783   4.747   2.492  15.718  0.0393  0.1847  0.5120
18431TIP3    H176784   4.665   2.444  15.722  0.0363  0.1282 -0.1740
18431TIP3    H276785   4.726   2.571  15.667  0.0196  0.9709  1.6955
18432TIP3   OH276786   1.215   6.501  13.437 -0.2273  0.8050 -0.6754
18432TIP3    H176787   1.199   6.586  13.478 -1.7302  0.7062 -1.0062
18432TIP3    H276788   1.287   6.518  13.376  1.0118  1.2937  0.8475
18433TIP3   OH276789   2.537   5.296   4.268  0.1300  0.1830  0.0183
18433TIP3    H176790   2.458   5.325   4.313  0.7953  0.4016  1.0762
18433TIP3    H276791   2.532   5.200   4.271 -0.6839  0.1798 -1.0037
18434TIP3   OH276792   0.608   0.260  16.864  0.5002 -0.0335  0.0083
18434TIP3    H176793   0.665   0.329  16.898  0.1688  0.4219 -0.3468
18434TIP3    H276794   0.522   0.278  16.902  0.7621 -1.2217  1.2332
18435TIP3   OH276795   6.762   1.301   6.327  0.0622  0.3619  0.0981
18435TIP3    H176796   6.782   1.333   6.239 -1.5498 -0.5425 -0.6437
18435TIP3    H276797   6.791   1.210   6.328 -2.5337 -0.5757 -0.5768
18436TIP3   OH276798   4.367   6.572   6.126  0.2768  0.3035 -0.4713
18436TIP3    H176799   4.406   6.491   6.093  2.9407  0.4840  1.8677
18436TIP3    H276800   4.292   6.543   6.178 -0.5261 -0.3653 -1.9260
18437TIP3   OH276801   2.728   6.604   5.781 -0.0923 -0.3871  0.7050
18437TIP3    H176802   2.688   6.538   5.724 -0.6266 -0.0940  0.7354
18437TIP3    H276803   2.701   6.579   5.869  0.2578 -0.5083  0.7799
18438TIP3   OH276804   6.628   2.650   1.175 -0.2983  0.6400  0.0663
18438TIP3    H176805   6.573   2.588   1.222  0.9401  1.5066  2.9119
18438TIP3    H276806   6.695   2.596   1.133 -0.5122 -0.1007  0.6493
18439TIP3   OH276807   1.834   3.659  16.237 -0.1868 -0.1024  0.0387
18439TIP3    H176808   1.814   3.701  16.320 -1.1412  0.8583 -0.6444
18439TIP3    H276809   1.879   3.578  16.261  2.1304  1.4506  1.4067
18440TIP3   OH276810   2.858   2.498   3.909  0.1822  1.0539  0.5629
18440TIP3    H176811   2.898   2.412   3.892 -0.4146  1.0657 -1.1196
18440TIP3    H276812   2.841   2.498   4.003 -1.4048 -1.4337  0.3872
18441TIP3   OH276813   1.238   5.948   1.333  0.0821 -0.2482 -0.0540
18441TIP3    H176814   1.331   5.928   1.345 -0.1958 -2.3546 -0.8917
18441TIP3    H276815   1.237   6.030   1.285  1.4592  0.4764  1.0711
18442TIP3   OH276816   4.158   5.386   3.295  0.4734 -0.0859  0.0520
18442TIP3    H176817   4.123   5.336   3.221 -1.1623  1.1342 -0.0679
18442TIP3    H276818   4.102   5.362   3.368 -1.0269  2.1719 -0.2194
18443TIP3   OH276819   0.491   6.220   5.114 -0.1711  0.0158 -0.0243
18443TIP3    H176820   0.511   6.130   5.140  1.8453  0.6836  0.9424
18443TIP3    H276821   0.451   6.212   5.027  0.6328 -1.7655 -0.2730
18444TIP3   OH276822   5.746   3.339  12.800 -0.4041  0.3098  1.3406
18444TIP3    H176823   5.767   3.268  12.861 -0.3012 -1.9456 -1.1238
18444TIP3    H276824   5.650   3.338  12.795 -0.3914  0.1244  1.0980
18445TIP3   OH276825   2.127   3.581   0.714  0.1978 -0.2359 -0.3694
18445TIP3    H176826   2.156   3.595   0.624  0.3513  0.4303 -0.2177
18445TIP3    H276827   2.122   3.668   0.753 -1.1616 -0.3929 -0.1240
18446TIP3   OH276828   0.844   1.871   4.779 -0.4042  0.0520  0.2329
18446TIP3    H176829   0.826   1.781   4.751  0.3287 -0.1615  0.4174
18446TIP3    H276830   0.929   1.891   4.740 -0.1055  0.3065  1.0027
18447TIP3   OH276831   6.389   4.906  16.796  0.4708 -0.0377  0.0300
18447TIP3    H176832   6.468   4.885  16.746  0.1547 -2.1372  0.3263
18447TIP3    H276833   6.318   4.865  16.747 -0.1901  0.2546  0.7228
18448TIP3   OH276834   5.808   6.151  14.013 -0.0572  0.0397  0.4895
18448TIP3    H176835   5.895   6.175  13.980 -0.1299 -2.3400 -1.7468
18448TIP3    H276836   5.759   6.126  13.935 -1.2121 -3.1750  2.0590
18449TIP3   OH276837   1.137   2.633   2.808 -0.1046  0.2619 -0.2137
18449TIP3    H176838   1.102   2.696   2.746 -0.8210  1.5060  1.3903
18449TIP3    H276839   1.070   2.565   2.813 -1.0602  1.2503  0.7900
18450TIP3   OH276840   2.219   5.069  13.141 -0.0677  0.8412  0.1880
18450TIP3    H176841   2.283   5.008  13.106  0.1124 -0.3006  2.3022
18450TIP3    H276842   2.271   5.144  13.170  0.0348  0.8763 -0.0854
18451TIP3   OH276843   0.206   4.634   1.323  0.4310  0.3382  0.2530
18451TIP3    H176844   0.293   4.639   1.363  1.6833 -1.6750 -1.9653
18451TIP3    H276845   0.169   4.551   1.354 -0.5260  0.9285  0.7623
18452TIP3   OH276846   4.949   0.496  16.139  0.0726 -0.0497 -0.4250
18452TIP3    H176847   4.934   0.509  16.045 -0.1310 -0.2462 -0.4206
18452TIP3    H276848   4.963   0.584  16.173 -0.0586  0.0431 -0.6069
18453TIP3   OH276849   2.490   3.269  15.058  0.3795 -0.3494 -0.3306
18453TIP3    H176850   2.513   3.331  15.127 -0.3961  0.2425 -0.5736
18453TIP3    H276851   2.394   3.266  15.060  0.1366  1.6882 -3.0092
18454TIP3   OH276852   5.837   2.800  15.119  0.8239 -0.4825  0.5444
18454TIP3    H176853   5.787   2.816  15.199  0.8973 -0.5214  0.5993
18454TIP3    H276854   5.807   2.715  15.089  0.4661 -0.2645  0.2784
18455TIP3   OH276855   2.265   2.147   5.300  0.6216 -0.7021 -0.0895
18455TIP3    H176856   2.284   2.109   5.385  1.9445 -0.6117 -0.3259
18455TIP3    H276857   2.351   2.161   5.260  0.0151 -1.2098 -1.6443
18456TIP3   OH276858   2.645   3.505   5.490  0.3712  0.5483  0.0861
18456TIP3    H176859   2.637   3.434   5.425 -0.6464  0.2607  0.5043
18456TIP3    H276860   2.705   3.470   5.556  0.6816  0.4815 -0.2249
18457TIP3   OH276861   3.022   5.129  16.845  0.3474 -0.2241 -0.3745
18457TIP3    H176862   3.094   5.141  16.783  0.2173  1.5784 -0.2201
18457TIP3    H276863   3.050   5.174  16.924 -0.3615 -0.7199  0.1642
18458TIP3   OH276864   5.436   2.314   2.912 -0.4169  0.5355 -0.3703
18458TIP3    H176865   5.489   2.235   2.899  0.4551  1.1596 -0.7814
18458TIP3    H276866   5.460   2.345   3.000  0.6621  1.3427 -0.9225
18459TIP3   OH276867   0.247   6.340   0.695  0.0677  0.4816  0.5326
18459TIP3    H176868   0.271   6.426   0.729 -1.3547  0.4074  1.7842
18459TIP3    H276869   0.181   6.358   0.628 -0.2972  0.3530  0.8602
18460TIP3   OH276870   0.715   4.977  10.900  0.2964 -0.0781  0.0268
18460TIP3    H176871   0.783   4.913  10.922  1.5614  0.8559 -1.0017
18460TIP3    H276872   0.762   5.047  10.855 -1.1028  1.4274  0.8238
18461TIP3   OH276873   0.769   4.174   0.308  0.6744 -0.2094 -0.2380
18461TIP3    H176874   0.740   4.264   0.290 -0.0384 -0.0753  1.3370
18461TIP3    H276875   0.750   4.126   0.228  0.4604  0.9099 -0.8797
18462TIP3   OH276876   5.337   5.371  14.188 -0.6034 -0.2146 -0.2281
18462TIP3    H176877   5.279   5.303  14.153 -1.3691  0.9382 -1.3074
18462TIP3    H276878   5.353   5.428  14.113  2.2844 -0.7005 -0.0766
18463TIP3   OH276879   1.013   6.228   6.841  0.6927 -0.0607  0.3529
18463TIP3    H176880   0.960   6.282   6.899  0.2647 -1.7004  1.5740
18463TIP3    H276881   1.046   6.289   6.776 -2.0080  1.2080 -0.0014
18464TIP3   OH276882   0.081   2.636  16.671  0.1275  0.3075  0.5592
18464TIP3    H176883   0.024   2.711  16.655  0.3170  0.9534  2.5671
18464TIP3    H276884   0.165   2.675  16.697  0.8753 -0.6227 -0.3729
18465TIP3   OH276885   0.886   2.919   0.150  0.2003 -0.1636  0.5419
18465TIP3    H176886   0.882   2.844   0.210 -1.0486 -0.7358 -0.2368
18465TIP3    H276887   0.798   2.957   0.153 -0.7748 -1.8024 -2.9107
18466TIP3   OH276888   0.454   6.711  12.346  0.3300 -0.5490  0.0402
18466TIP3    H176889   0.373   6.704  12.396  1.1095 -0.8694  1.3274
18466TIP3    H276890   0.433   6.675  12.260 -1.0405 -0.0501  0.1439
18467TIP3   OH276891   4.626   2.002  15.512 -0.6281 -0.1962  0.2129
18467TIP3    H176892   4.717   2.028  15.530 -0.0933 -2.5729  1.4077
18467TIP3    H276893   4.631   1.907  15.497 -2.4090  0.1171 -3.7332
18468TIP3   OH276894   0.959   0.159  15.892  0.3155  0.2183  0.0253
18468TIP3    H176895   0.999   0.191  15.811 -1.8979  1.6285 -0.6012
18468TIP3    H276896   0.896   0.227  15.916 -1.1082 -1.4703  1.3534
18469TIP3   OH276897   3.937   2.539   4.651  0.6305 -0.2252  0.1541
18469TIP3    H176898   3.978   2.469   4.599 -0.0187  1.6616 -3.2115
18469TIP3    H276899   3.846   2.509   4.662  0.8759 -0.8347  0.5711
18470TIP3   OH276900   3.202   3.711  14.820 -0.1091  0.1750  0.8015
18470TIP3    H176901   3.106   3.707  14.814 -0.2224  1.5527  1.4146
18470TIP3    H276902   3.232   3.643  14.760 -1.4207  1.8242 -1.8892
18471TIP3   OH276903   2.666   2.519  12.966 -0.6484 -0.2066 -0.1923
18471TIP3    H176904   2.755   2.551  12.955 -1.0354  0.7126 -0.7546
18471TIP3    H276905   2.670   2.462  13.042  0.7535 -1.4364 -1.1201
18472TIP3   OH276906   2.246   4.227  11.327 -0.4032  0.6905  0.1750
18472TIP3    H176907   2.289   4.142  11.329  0.1885  0.9243 -1.2570
18472TIP3    H276908   2.255   4.261  11.416 -1.4447 -1.0896  1.0191
18473TIP3   OH276909   5.238   2.712   5.243 -0.6891 -0.2763 -0.2501
18473TIP3    H176910   5.329   2.690   5.225 -1.0555 -1.4455 -0.7475
18473TIP3    H276911   5.236   2.735   5.336  0.8367  3.7061 -1.0114
18474TIP3   OH276912   6.131   6.392   3.537  0.1396 -0.5935  0.0211
18474TIP3    H176913   6.095   6.477   3.564  0.9512 -0.1430 -0.2845
18474TIP3    H276914   6.182   6.363   3.612  0.9380 -0.1818 -0.3525
18475TIP3   OH276915   4.885   2.200  11.648 -0.3266  0.4982  0.1893
18475TIP3    H176916   4.852   2.110  11.650 -0.6726  0.4284 -3.1055
18475TIP3    H276917   4.959   2.201  11.709  0.0561 -2.1925 -0.1413
18476TIP3   OH276918   2.371   2.708   1.631 -0.0322 -0.0533  0.1320
18476TIP3    H176919   2.437   2.770   1.662  1.7234 -1.6434 -0.2342
18476TIP3    H276920   2.324   2.681   1.710 -0.7499  1.6171  0.3061
18477TIP3   OH276921   1.774   2.857   0.270 -0.7534  0.2490 -0.6313
18477TIP3    H176922   1.866   2.833   0.274 -0.7908  0.2687  1.1005
18477TIP3    H276923   1.731   2.780   0.233 -0.2040 -0.2932 -0.1659
18478TIP3   OH276924   6.579   4.575  16.775 -0.9320 -0.4220 -0.0408
18478TIP3    H176925   6.548   4.598  16.863 -2.6507 -2.6553  0.0358
18478TIP3    H276926   6.526   4.630  16.717 -0.6509  0.1838  0.2575
18479TIP3   OH276927   6.452   2.203   2.987  0.0346  0.1327  0.3068
18479TIP3    H176928   6.540   2.173   2.967  0.4234 -0.0010  2.0150
18479TIP3    H276929   6.408   2.127   3.024 -1.2523 -0.1616 -1.6710
18480TIP3   OH276930   3.709   4.182   0.354  0.0092 -0.2280  0.1855
18480TIP3    H176931   3.672   4.107   0.401 -2.2016 -0.4136 -1.6747
18480TIP3    H276932   3.795   4.195   0.394  0.2896 -3.4510  0.9116
18481TIP3   OH276933   0.416   4.942   6.328  0.0838  0.1975  0.1165
18481TIP3    H176934   0.487   5.007   6.328  1.5623 -1.2975 -1.3971
18481TIP3    H276935   0.462   4.857   6.328 -1.7576 -0.8551  1.0576
18482TIP3   OH276936   3.474   1.366  12.568  0.2818  0.0351  0.5781
18482TIP3    H176937   3.556   1.324  12.541  0.9550  1.2978  0.5852
18482TIP3    H276938   3.406   1.321  12.517  1.0947 -0.3344 -0.1964
18483TIP3   OH276939   5.770   0.328   4.122 -0.1208 -0.1736 -0.7065
18483TIP3    H176940   5.826   0.371   4.058  1.4046 -1.4569 -0.3272
18483TIP3    H276941   5.768   0.388   4.197  2.1052 -0.7325 -0.1161
18484TIP3   OH276942   1.676   2.182   0.301  0.2929  0.3828 -0.0789
18484TIP3    H176943   1.699   2.122   0.231  3.0913  0.5422  0.6109
18484TIP3    H276944   1.581   2.173   0.309  0.3143 -2.2230 -1.5229
18485TIP3   OH276945   3.052   5.595   5.670  0.3369 -0.3768  0.0541
18485TIP3    H176946   3.131   5.628   5.626  0.8819 -1.6376  0.0492
18485TIP3    H276947   3.011   5.537   5.606 -0.0015 -0.5899  0.4578
18486TIP3   OH276948   3.015   2.294  16.574  0.0017 -0.0686 -0.0696
18486TIP3    H176949   2.960   2.348  16.517  1.0580  0.9799 -0.1216
18486TIP3    H276950   3.102   2.333  16.569  0.6638 -1.4037  0.4021
18487TIP3   OH276951   0.648   6.028   5.230  0.0267  0.3903 -0.6536
18487TIP3    H176952   0.743   6.040   5.228  0.2016 -0.4496  1.1840
18487TIP3    H276953   0.632   5.949   5.178  0.1726  1.2513 -2.0501
18488TIP3   OH276954   0.457   5.902   5.054 -0.1416 -0.0872  0.3915
18488TIP3    H176955   0.365   5.919   5.073  0.3144  1.7819  1.1046
18488TIP3    H276956   0.478   5.960   4.981  0.2912 -1.1022 -0.3201
18489TIP3   OH276957   3.972   6.337  12.194  1.0196 -0.3746  0.6890
18489TIP3    H176958   3.984   6.382  12.278  1.2930 -0.9080  0.9386
18489TIP3    H276959   4.019   6.391  12.131  0.1317  0.4735  0.7285
18490TIP3   OH276960   0.878   2.137   0.236 -0.3049 -0.6896 -0.5399
18490TIP3    H176961   0.935   2.086   0.294  1.3207  1.3227 -0.2537
18490TIP3    H276962   0.850   2.212   0.290 -1.3263 -0.4002 -1.4284
18491TIP3   OH276963   3.867   1.917   0.624 -0.5359  0.9278  0.4609
18491TIP3    H176964   3.833   1.991   0.573  1.5752  1.6498  0.0005
18491TIP3    H276965   3.793   1.856   0.630 -2.2658  2.9514  0.6703
18492TIP3   OH276966   4.365   0.009  14.014  0.1739  0.3800  0.3429
18492TIP3    H176967   4.280   0.004  13.970  0.1787 -0.4774  0.4018
18492TIP3    H276968   4.429  -0.011  13.945  0.1496 -1.4484  0.7960
18493TIP3   OH276969   5.737   0.348   2.717 -0.3347 -1.0341  0.0533
18493TIP3    H176970   5.734   0.355   2.812 -0.3491 -3.1081  0.2372
18493TIP3    H276971   5.710   0.435   2.686  3.1036  0.9208  1.8894
18494TIP3   OH276972   0.423   2.185  12.401 -0.3203  0.4401 -0.2091
18494TIP3    H176973   0.487   2.212  12.466  0.2998 -0.7509 -0.2861
18494TIP3    H276974   0.347   2.241  12.417 -1.0584 -1.2315  3.0324
18495TIP3   OH276975   3.802   0.368   4.911 -0.7749 -0.0624 -0.4884
18495TIP3    H176976   3.837   0.303   4.850  1.7796 -1.8825  2.6076
18495TIP3    H276977   3.866   0.439   4.911 -0.1975 -0.5616  0.7723
18496TIP3   OH276978   2.547   5.501  11.132 -0.2253 -0.2143 -0.0110
18496TIP3    H176979   2.472   5.519  11.075 -0.0500 -2.1412 -0.9375
18496TIP3    H276980   2.554   5.406  11.132  1.3996 -0.1272  1.1644
18497TIP3   OH276981   5.478   2.570  15.048  0.2815  0.0956 -0.6757
18497TIP3    H176982   5.544   2.566  15.117 -0.9865 -0.8022  0.5307
18497TIP3    H276983   5.402   2.609  15.090 -0.6418 -0.8089 -1.4667
18498TIP3   OH276984   6.173   6.445  10.358 -0.6677 -0.0681 -0.3362
18498TIP3    H176985   6.085   6.445  10.319  0.2334 -3.1511 -2.7570
18498TIP3    H276986   6.170   6.375  10.423 -0.0221 -0.2261 -0.4704
18499TIP3   OH276987   1.003   2.848   4.997 -0.4119  0.1010 -0.2892
18499TIP3    H176988   1.018   2.892   5.081 -0.0519 -0.2144 -0.1894
18499TIP3    H276989   0.962   2.765   5.021 -2.7486  1.0827 -0.5584
18500TIP3   OH276990   4.475   5.256   1.710  0.6117  0.8680 -0.4600
18500TIP3    H176991   4.518   5.189   1.763  1.8113  1.2016 -0.9640
18500TIP3    H276992   4.473   5.218   1.622 -1.2759  0.3551 -0.2360
18501TIP3   OH276993   5.037   4.263  16.118 -0.0544 -0.7470  0.1514
18501TIP3    H176994   5.057   4.214  16.038  0.1863  0.1355 -0.3456
18501TIP3    H276995   4.951   4.231  16.145 -0.9721  0.1946 -1.4780
18502TIP3   OH276996   1.634   3.742   5.912 -0.1619 -0.0914  0.1115
18502TIP3    H176997   1.544   3.719   5.891 -0.2217 -0.0796  0.3529
18502TIP3    H276998   1.629   3.832   5.944 -0.3510 -0.7295  2.0209
18503TIP3   OH276999   0.243   2.667  11.083 -0.5362 -0.0496  0.1160
18503TIP3    H177000   0.291   2.596  11.040 -1.3834 -0.3362 -0.3886
18503TIP3    H277001   0.240   2.737  11.017  1.1206  0.8533  0.9414
18504TIP3   OH277002   6.796   5.516  15.377 -0.0557  0.0429 -0.5982
18504TIP3    H177003   6.840   5.591  15.418  0.8124 -0.4724 -0.5539
18504TIP3    H277004   6.714   5.508  15.425 -0.2148  1.0272 -0.6725
18505TIP3   OH277005   6.506   1.293   5.924  0.0096  0.3087  0.7936
18505TIP3    H177006   6.452   1.256   5.854  1.0433  0.5422 -0.1426
18505TIP3    H277007   6.443   1.314   5.993 -0.8260 -1.5985  0.6883
18506TIP3   OH277008   2.907   2.586  14.083 -0.1233 -0.5104  0.2965
18506TIP3    H177009   2.930   2.636  14.005  0.5069 -2.2294 -0.6645
18506TIP3    H277010   2.987   2.538  14.105 -0.8834 -1.5801  0.8042
18507TIP3   OH277011   1.838   2.669  14.803  0.1703  0.2611 -0.1266
18507TIP3    H177012   1.890   2.736  14.848 -0.4518  0.4537  0.3235
18507TIP3    H277013   1.872   2.668  14.714  1.1419  0.1723  0.2302
18508TIP3   OH277014   1.046   0.763  11.398 -0.3929  0.2973 -0.3088
18508TIP3    H177015   1.123   0.707  11.392  1.8294  3.0560  0.3379
18508TIP3    H277016   1.001   0.751  11.314  3.2556  1.8924 -2.7601
18509TIP3   OH277017   4.925   5.647   1.557  0.0068  0.7192 -0.2229
18509TIP3    H177018   4.992   5.580   1.564 -0.3294  0.5051  1.2011
18509TIP3    H277019   4.925   5.672   1.465 -2.6389 -4.0960 -1.8529
18510TIP3   OH277020   6.336   4.920   6.363 -0.3526  0.4648 -0.3116
18510TIP3    H177021   6.358   4.989   6.301 -0.6806  0.3186 -0.5949
18510TIP3    H277022   6.412   4.914   6.421  0.2437  0.1294 -1.1194
18511TIP3   OH277023   2.273   6.510   3.119  0.4139 -0.0832 -0.5639
18511TIP3    H177024   2.322   6.460   3.054  1.7669 -1.3042  1.2953
18511TIP3    H277025   2.254   6.447   3.189 -1.0568  1.1576  0.2222
18512TIP3   OH277026   6.039   2.007  14.394  0.1988 -0.6043 -0.4156
18512TIP3    H177027   6.007   1.924  14.359  0.5198 -1.0385  0.3035
18512TIP3    H277028   6.133   2.006  14.374  0.3611 -0.7989  0.3207
18513TIP3   OH277029   6.133   4.073  11.729  0.0398  0.0785 -0.3012
18513TIP3    H177030   6.081   4.072  11.648  0.2638  2.5278 -0.5527
18513TIP3    H277031   6.109   4.155  11.772  1.9951  0.1785  0.7099
18514TIP3   OH277032   5.579   5.178  16.518 -0.3441 -0.6855 -0.0665
18514TIP3    H177033   5.559   5.088  16.491 -1.6227  0.2152 -2.3727
18514TIP3    H277034   5.516   5.232  16.471 -0.4550  1.3806  2.2376
18515TIP3   OH277035   0.734   5.877  14.093 -1.2903  0.2143 -0.3966
18515TIP3    H177036   0.790   5.892  14.169 -0.9941 -0.3271 -0.5070
18515TIP3    H277037   0.768   5.937  14.027 -0.3280 -0.6738 -0.7229
18516TIP3   OH277038   6.392   6.606   2.163  0.0025  0.2974 -0.4689
18516TIP3    H177039   6.407   6.529   2.218 -1.2329  0.0185 -0.5062
18516TIP3    H277040   6.480   6.635   2.139  0.5011 -0.8132 -0.0592
18517TIP3   OH277041   1.849   4.182   1.070  0.1426 -0.2507  0.9706
18517TIP3    H177042   1.913   4.236   1.024  0.1809  1.0326  2.4448
18517TIP3    H277043   1.801   4.136   1.001  1.9176 -0.4259 -0.2057
18518TIP3   OH277044   3.115   4.874   0.249  0.1701  0.0600 -0.2303
18518TIP3    H177045   3.084   4.936   0.315  0.1423  0.3699 -0.5358
18518TIP3    H277046   3.202   4.905   0.226 -0.3647  0.7848 -1.3724
18519TIP3   OH277047   6.324   0.720   0.355 -0.4375 -0.1008  0.3953
18519TIP3    H177048   6.340   0.650   0.292 -1.0283 -0.5725  0.7589
18519TIP3    H277049   6.288   0.676   0.432 -1.4668  0.6795  0.3774
18520TIP3   OH277050   4.416   6.820   3.695 -0.3862  0.3216  0.5278
18520TIP3    H177051   4.494   6.857   3.737 -0.6865  0.0451  1.3343
18520TIP3    H277052   4.433   6.829   3.601  2.0706 -2.6164  0.5341
18521TIP3   OH277053   3.383   3.198   5.888  0.5786 -0.3486 -0.2125
18521TIP3    H177054   3.463   3.228   5.847  0.6822 -0.4682 -0.0976
18521TIP3    H277055   3.375   3.252   5.967  0.5504 -0.3450 -0.2179
18522TIP3   OH277056   3.419   6.140   2.257  0.4353 -0.2898  0.3688
18522TIP3    H177057   3.326   6.122   2.270  0.0374  0.9196 -0.6196
18522TIP3    H277058   3.425   6.170   2.166  1.6032  0.8019  0.7814
18523TIP3   OH277059   6.299   2.264   3.559  0.2378 -0.3778  0.2116
18523TIP3    H177060   6.226   2.211   3.527 -1.1064  2.2463 -1.4443
18523TIP3    H277061   6.295   2.256   3.654 -2.1542 -0.4389  0.1639
18524TIP3   OH277062   4.375   5.964   3.730 -0.4676  0.4907 -0.3228
18524TIP3    H177063   4.286   5.942   3.759 -0.0462  0.0855  0.7048
18524TIP3    H277064   4.402   5.889   3.678 -0.4924  0.3130 -0.0849
18525TIP3   OH277065   0.862   1.392  14.481  0.2749 -0.5633 -0.1524
18525TIP3    H177066   0.892   1.472  14.438  1.9902 -0.5881  0.9051
18525TIP3    H277067   0.797   1.423  14.544  0.8110 -0.0098  0.1424
18526TIP3   OH277068   0.924   0.037  15.163 -0.3879 -0.3391 -0.3235
18526TIP3    H177069   1.004   0.085  15.182  0.3407 -1.0027 -1.5512
18526TIP3    H277070   0.856   0.080  15.216  0.2899  1.7448 -1.0550
18527TIP3   OH277071   0.069   6.496   4.160  0.1704  0.2933 -0.1477
18527TIP3    H177072   0.066   6.433   4.088 -0.9239 -2.2975  1.9932
18527TIP3    H277073   0.143   6.467   4.214 -0.5177  0.6360  1.0285
18528TIP3   OH277074   0.729   6.107   2.853 -0.1669 -0.3185 -0.0066
18528TIP3    H177075   0.766   6.144   2.773 -1.2171 -0.7997 -0.7415
18528TIP3    H277076   0.655   6.164   2.873  0.0156 -0.2772  0.5586
18529TIP3   OH277077   4.182   5.346   1.326 -0.3060  0.5619  0.4229
18529TIP3    H177078   4.240   5.412   1.286 -0.4427 -0.5984 -1.8910
18529TIP3    H277079   4.238   5.269   1.338 -0.9307 -0.0209 -0.2708
18530TIP3   OH277080   3.359   3.600  13.523 -0.0800 -0.1946  0.1994
18530TIP3    H177081   3.311   3.562  13.449  0.8782 -2.6072  0.7292
18530TIP3    H277082   3.352   3.535  13.592  2.5732  0.0739  0.8336
18531TIP3   OH277083   2.614   2.220   6.249 -0.2044  0.1868  0.4312
18531TIP3    H177084   2.632   2.155   6.317  0.1749  0.9604  1.1026
18531TIP3    H277085   2.699   2.262   6.233  0.1332 -1.2034 -1.8896
18532TIP3   OH277086   0.608   4.889  11.148 -0.0026 -0.2957 -0.4228
18532TIP3    H177087   0.625   4.950  11.219 -0.6021 -0.9835  0.3221
18532TIP3    H277088   0.634   4.937  11.069  0.5857  0.5058  0.2372
18533TIP3   OH277089   5.958   0.017   1.370  0.2386  0.4668 -0.1348
18533TIP3    H177090   6.000   0.061   1.296  2.3844 -2.1783 -0.6471
18533TIP3    H277091   6.028  -0.033   1.412 -1.7374 -1.4582  1.1201
18534TIP3   OH277092   2.203   3.498   1.099  0.1111 -0.0794  0.1341
18534TIP3    H177093   2.189   3.517   1.006 -0.3994  0.3815  0.2974
18534TIP3    H277094   2.162   3.572   1.144  0.5864 -0.1690  0.7205
18535TIP3   OH277095   2.294   0.494   2.635 -0.2808 -0.2898 -0.3175
18535TIP3    H177096   2.373   0.446   2.660  1.6391  3.1561  1.0295
18535TIP3    H277097   2.315   0.530   2.549 -0.8355 -0.1984 -0.4147
18536TIP3   OH277098   2.984   1.592  13.335  0.1124  0.3179  0.1834
18536TIP3    H177099   2.956   1.674  13.376  1.5351  0.7995  0.2448
18536TIP3    H277100   3.071   1.612  13.300  1.8919 -1.9628  2.8640
18537TIP3   OH277101   6.697   1.843  13.789 -0.3959 -0.6896  0.2527
18537TIP3    H177102   6.788   1.831  13.762 -0.9120  0.3690 -2.2171
18537TIP3    H277103   6.687   1.938  13.794 -1.8689 -0.7130 -1.5228
18538TIP3   OH277104   0.029   6.626   0.925  0.0243 -0.1583 -0.2443
18538TIP3    H177105   0.027   6.604   1.018 -0.6595 -0.7466 -0.3913
18538TIP3    H277106  -0.003   6.716   0.921  2.3462  0.7936  0.3108
18539TIP3   OH277107   6.808   2.502   2.348 -0.0095  0.1807  0.4089
18539TIP3    H177108   6.713   2.491   2.349 -0.2103  1.6795  0.9258
18539TIP3    H277109   6.837   2.457   2.269 -1.3156  0.8512 -0.4940
18540TIP3   OH277110   4.413   6.518   4.867 -0.0649 -0.2654 -0.0473
18540TIP3    H177111   4.318   6.517   4.873 -0.1018  1.1515 -0.0152
18540TIP3    H277112   4.432   6.572   4.790  0.7170 -0.6968 -0.1755
18541TIP3   OH277113   3.804   6.803   6.511  0.4319  0.0233 -0.9403
18541TIP3    H177114   3.797   6.892   6.477  1.0057  0.0478 -1.0060
18541TIP3    H277115   3.719   6.785   6.549  0.7311  1.1046  0.3174
18542TIP3   OH277116   1.066   0.755  12.890  0.1910 -0.3885 -0.1318
18542TIP3    H177117   1.070   0.776  12.796 -0.0417 -1.7944 -0.4767
18542TIP3    H277118   1.133   0.812  12.930 -1.6333  2.3536 -0.6958
18543TIP3   OH277119   1.107   4.924   4.597  0.3310  0.6294 -0.4138
18543TIP3    H177120   1.101   4.958   4.686 -2.3755 -0.1493 -0.2025
18543TIP3    H277121   1.149   4.994   4.547  0.2871  1.7977  1.1199
18544TIP3   OH277122   3.103   1.234   6.681  0.5492 -0.4133  0.5896
18544TIP3    H177123   3.021   1.251   6.726  0.6824 -1.0837  1.1019
18544TIP3    H277124   3.081   1.236   6.588  0.1174  0.1857  0.7006
18545TIP3   OH277125   5.584   4.546   3.237  0.2417  0.0774  0.0728
18545TIP3    H177126   5.568   4.635   3.266  2.1361  1.0086 -1.5231
18545TIP3    H277127   5.638   4.507   3.306  1.3070  0.9227 -0.2688
18546TIP3   OH277128   1.728   1.020   4.364 -0.1976  0.3394  0.1419
18546TIP3    H177129   1.705   1.057   4.449 -0.8497  0.7545 -0.2078
18546TIP3    H277130   1.651   1.035   4.310 -0.5408 -1.6272  0.0155
18547TIP3   OH277131   5.217   0.901   3.104  0.3970 -0.2498  0.1809
18547TIP3    H177132   5.312   0.913   3.099  0.5176  0.3645  2.4827
18547TIP3    H277133   5.185   0.982   3.144 -1.0285 -0.6908 -0.0098
18548TIP3   OH277134   4.419   0.117   1.435  0.5143  0.5560  0.2781
18548TIP3    H177135   4.502   0.120   1.387  0.4500  1.8267  0.2169
18548TIP3    H277136   4.441   0.071   1.516  1.5678  1.8428  0.7682
18549TIP3   OH277137   3.331   6.296  15.848 -0.4682  0.2151 -0.1924
18549TIP3    H177138   3.316   6.314  15.756 -1.0176 -1.7897 -0.5357
18549TIP3    H277139   3.309   6.378  15.892  0.3492  1.3860 -1.8589
18550TIP3   OH277140   3.609   1.785   4.069 -0.5726  0.4804 -0.9609
18550TIP3    H177141   3.617   1.743   3.983 -0.4752 -1.0456 -0.2354
18550TIP3    H277142   3.687   1.840   4.077 -0.8119  1.0130 -2.0167
18551TIP3   OH277143   2.459   4.376  12.556  0.0899 -0.0103  0.2812
18551TIP3    H177144   2.367   4.350  12.563  1.0578 -3.6027  1.9034
18551TIP3    H277145   2.485   4.350  12.468 -0.0660 -0.6128  0.4080
18552TIP3   OH277146   3.457   1.498  16.146  0.5230 -0.0530  0.1099
18552TIP3    H177147   3.375   1.521  16.190  0.3478 -0.5686  0.0709
18552TIP3    H277148   3.519   1.566  16.171 -0.2832  1.1290 -0.9687
18553TIP3   OH277149   2.859   2.877  13.935  0.2308  0.8171 -0.4470
18553TIP3    H177150   2.809   2.796  13.922 -0.5974  1.0395  1.1025
18553TIP3    H277151   2.916   2.883  13.858  0.1942 -1.1483 -0.6786
18554TIP3   OH277152   1.171   6.321   1.979  0.4905  0.0089  0.3420
18554TIP3    H177153   1.258   6.337   2.015  0.5226 -1.3246  0.9369
18554TIP3    H277154   1.182   6.244   1.923 -0.0252  0.7080 -0.7522
18555TIP3   OH277155   1.615   5.151   2.226 -0.0823 -0.2178  0.4560
18555TIP3    H177156   1.661   5.071   2.201  0.7356  0.0232  1.1233
18555TIP3    H277157   1.598   5.140   2.320 -1.8898 -0.5322  0.1284
18556TIP3   OH277158   5.958   3.826  16.161  0.0882 -0.0100  0.0830
18556TIP3    H177159   5.991   3.831  16.071  0.7742 -0.1696  0.3187
18556TIP3    H277160   6.003   3.750  16.199 -0.0076  0.2015  0.6337
18557TIP3   OH277161   4.005   6.661   1.375 -0.0131 -0.4773 -0.2879
18557TIP3    H177162   4.052   6.599   1.319 -0.4798 -2.5098  1.4836
18557TIP3    H277163   3.913   6.637   1.365 -0.2542  0.2853  0.0479
18558TIP3   OH277164   4.320   3.691   3.621  0.2075  0.5227 -0.1938
18558TIP3    H177165   4.367   3.674   3.702 -0.5742  0.3695  0.2301
18558TIP3    H277166   4.351   3.624   3.561  0.2730  0.2099  0.1901
18559TIP3   OH277167   2.309   4.205  12.235 -0.1120  0.0382 -0.2971
18559TIP3    H177168   2.249   4.216  12.309  1.4006 -2.2009  1.3977
18559TIP3    H277169   2.292   4.281  12.179 -2.1068  1.2557  1.7831
18560TIP3   OH277170   6.463   2.234   1.416 -0.1786  0.5504 -0.0371
18560TIP3    H177171   6.415   2.225   1.498 -1.2954  1.2090 -0.5783
18560TIP3    H277172   6.495   2.324   1.416 -2.9251  1.6626 -1.6535
18561TIP3   OH277173   0.093   0.951  11.529 -0.3606  0.0806  0.0229
18561TIP3    H177174   0.109   0.948  11.623 -1.8303 -1.7222  0.2823
18561TIP3    H277175   0.012   1.001  11.520 -2.5445 -3.1416  0.2118
18562TIP3   OH277176   6.145   4.643  15.394 -0.0488 -0.1991 -0.5243
18562TIP3    H177177   6.130   4.723  15.445  0.2685 -0.7075  0.3761
18562TIP3    H277178   6.166   4.675  15.306 -2.2016  0.6657 -0.7996
18563TIP3   OH277179   0.828   4.037  12.941  0.2151  0.0338 -0.1897
18563TIP3    H177180   0.865   4.017  12.855 -0.3293  0.7049 -0.5912
18563TIP3    H277181   0.799   3.952  12.975 -1.1598 -0.0316 -1.4311
18564TIP3   OH277182   5.371   1.721   1.899  0.1541 -0.2394  0.2705
18564TIP3    H177183   5.433   1.765   1.958  0.7237 -0.4560 -0.1526
18564TIP3    H277184   5.403   1.631   1.895 -1.8186 -1.1268  2.2642
18565TIP3   OH277185   5.819   5.339   3.040  0.6139  0.4863  0.2216
18565TIP3    H177186   5.738   5.289   3.037  0.5752  0.5843 -0.3493
18565TIP3    H277187   5.811   5.393   3.119  0.3568  0.1118  0.4562
18566TIP3   OH277188   6.569   1.866  11.549 -0.4441  0.0490  0.0764
18566TIP3    H177189   6.526   1.913  11.478 -2.1189 -0.3263  0.8070
18566TIP3    H277190   6.624   1.932  11.591 -0.2980  0.5457 -0.8555
18567TIP3   OH277191   5.466   0.964   3.056  0.3544  0.0759  0.1792
18567TIP3    H177192   5.505   1.050   3.041 -0.5357  0.1442 -2.3285
18567TIP3    H277193   5.466   0.923   2.969 -0.2200 -2.0396  1.1174
18568TIP3   OH277194   0.218   4.626   2.936  0.7769  0.1781 -0.2925
18568TIP3    H177195   0.198   4.559   2.870  0.5222  0.7287 -0.7894
18568TIP3    H277196   0.313   4.632   2.935  0.9082 -1.2733  0.8806
18569TIP3   OH277197   3.775   3.753   1.284  0.1166 -0.2510  0.3338
18569TIP3    H177198   3.770   3.729   1.377 -0.0245 -0.8523  0.1775
18569TIP3    H277199   3.733   3.680   1.239 -1.2513  0.7708 -0.1040
18570TIP3   OH277200   2.836   3.151  16.786  0.2722 -0.4479  0.1095
18570TIP3    H177201   2.871   3.062  16.789  2.6398  0.3310 -1.4602
18570TIP3    H277202   2.820   3.174  16.878  2.2644 -1.5288  0.7806
18571TIP3   OH277203   4.783   0.551   1.695 -0.2113 -0.1028 -0.0847
18571TIP3    H177204   4.870   0.516   1.675  0.0600  0.5730 -0.1390
18571TIP3    H277205   4.800   0.637   1.733 -0.7674 -0.9083  2.1207
18572TIP3   OH277206   4.702   2.769   0.648  0.2334  0.2180 -0.3909
18572TIP3    H177207   4.780   2.809   0.686  0.7370 -1.1305  0.0665
18572TIP3    H277208   4.726   2.748   0.558  0.2968  0.0709 -0.3396
18573TIP3   OH277209   0.464   0.267  13.058 -0.5856  0.3933  0.3124
18573TIP3    H177210   0.381   0.226  13.080 -1.3327  1.6490 -0.0491
18573TIP3    H277211   0.440   0.351  13.019  0.8003  0.1388 -1.2495
18574TIP3   OH277212   6.329   0.741  12.747  0.3613 -0.1337  0.1858
18574TIP3    H177213   6.253   0.774  12.698 -0.0520 -0.7806  0.3680
18574TIP3    H277214   6.365   0.672  12.691 -0.5223 -1.3554  1.0450
18575TIP3   OH277215   6.743   4.831   0.479 -0.4548 -0.0646  0.5397
18575TIP3    H177216   6.711   4.834   0.569  1.4521 -0.2182  1.2695
18575TIP3    H277217   6.800   4.754   0.476  1.7088  1.4659  0.0084
18576TIP3   OH277218   0.804   3.057   5.673 -0.0817  0.5621 -0.0914
18576TIP3    H177219   0.808   3.151   5.660  1.0216  0.2190 -3.2028
18576TIP3    H277220   0.714   3.039   5.700 -0.2598  2.5031  0.6861
18577TIP3   OH277221   5.059   3.573   4.445  0.1320  0.3747  0.3280
18577TIP3    H177222   5.136   3.623   4.416 -0.2546 -0.5349 -2.5802
18577TIP3    H277223   5.094   3.512   4.509  2.7827 -2.4445 -3.3216
18578TIP3   OH277224   2.525   6.015  10.439  0.2870  0.0043  0.1568
18578TIP3    H177225   2.479   5.990  10.519  0.1355 -1.8294 -0.4663
18578TIP3    H277226   2.579   6.090  10.465 -2.0485  1.4335  1.2105
18579TIP3   OH277227   2.448   6.718  15.076 -0.1204  0.0301  0.0283
18579TIP3    H177228   2.405   6.633  15.072  0.3395 -0.1503 -1.5015
18579TIP3    H277229   2.540   6.698  15.093  0.2490  0.1063 -1.7017
18580TIP3   OH277230   1.741   6.539   0.165 -0.0862 -0.3518 -0.3612
18580TIP3    H177231   1.669   6.507   0.111 -1.5536  0.7332  0.8597
18580TIP3    H277232   1.788   6.600   0.108 -0.9972  0.0128 -0.7483
18581TIP3   OH277233   1.043   6.225   6.424 -0.5198  0.1820 -0.0638
18581TIP3    H177234   0.998   6.306   6.445 -0.3703  0.0490  0.8159
18581TIP3    H277235   0.978   6.156   6.439  0.0436 -0.0468  1.6333
18582TIP3   OH277236   3.397   0.246   1.034  0.5737  0.3278  0.0960
18582TIP3    H177237   3.385   0.291   0.951  2.0190  0.9484  0.2058
18582TIP3    H277238   3.468   0.184   1.018  3.1441  2.6561  1.6377
18583TIP3   OH277239   4.550   2.145   0.692 -0.5413 -0.4094  0.5442
18583TIP3    H177240   4.567   2.228   0.738 -0.7517  0.2858 -0.5816
18583TIP3    H277241   4.455   2.143   0.683 -0.4498 -0.1232 -0.5766
18584TIP3   OH277242   2.369   0.594  15.681 -0.2108  0.3894  0.0074
18584TIP3    H177243   2.329   0.663  15.628  0.8022  0.4314 -0.7248
18584TIP3    H277244   2.297   0.534  15.701 -0.6861  0.5595 -1.1195
18585TIP3   OH277245   5.244   1.298  10.764 -0.2369 -0.0108 -0.1519
18585TIP3    H177246   5.200   1.269  10.684  1.2310  0.3201 -1.1239
18585TIP3    H277247   5.336   1.275  10.750  0.0203 -0.0744  1.5178
18586TIP3   OH277248   1.269   3.885   5.606 -0.7665  0.3165 -0.2375
18586TIP3    H177249   1.290   3.904   5.514  0.2139  0.1641 -0.0623
18586TIP3    H277250   1.305   3.960   5.654 -3.3423  1.5873 -0.1429
18587TIP3   OH277251   4.800   3.746   1.127 -0.5189  0.3279 -0.7380
18587TIP3    H177252   4.713   3.786   1.131 -0.6721 -0.0507 -0.0849
18587TIP3    H277253   4.786   3.665   1.078 -1.0338 -0.9057  1.3246
18588TIP3   OH277254   3.316   0.804  10.934  0.2011 -0.0658 -0.5032
18588TIP3    H177255   3.232   0.770  10.966  1.0550 -2.0894 -0.2504
18588TIP3    H277256   3.305   0.809  10.839 -0.0383 -0.8245 -0.5220
18589TIP3   OH277257   3.614   2.067   2.345  0.2014  0.1840  0.2375
18589TIP3    H177258   3.669   2.041   2.419  0.6592 -0.9044 -0.4599
18589TIP3    H277259   3.550   2.128   2.383  0.2452 -0.5646  1.5816
18590TIP3   OH277260   6.720   0.047   0.328 -0.1334  0.0932 -0.6616
18590TIP3    H177261   6.816   0.044   0.332 -0.1660 -0.6636 -0.4071
18590TIP3    H277262   6.701   0.131   0.286  0.6287  0.4263 -0.3601
18591TIP3   OH277263   1.025   3.711   2.285  0.6580 -0.5382  0.2336
18591TIP3    H177264   0.992   3.680   2.200 -0.6824  2.4021 -0.4439
18591TIP3    H277265   0.957   3.685   2.347  0.9605 -1.4652  0.1904
18592TIP3   OH277266   4.580   1.054   0.701  0.0490  0.2678  0.2789
18592TIP3    H177267   4.632   1.039   0.780  0.5837  0.4569 -0.0393
18592TIP3    H277268   4.519   0.980   0.699  1.1129 -0.6216 -0.0174
18593TIP3   OH277269   6.172   2.229   6.009  0.0367 -0.2164 -0.7436
18593TIP3    H177270   6.113   2.248   6.081 -1.7051  1.5555 -2.4901
18593TIP3    H277271   6.258   2.218   6.050 -1.0804 -0.5676  1.6662
18594TIP3   OH277272   5.267   5.116  12.016  0.1432  0.2699  0.5587
18594TIP3    H177273   5.210   5.095  11.942  0.5161 -0.1088  0.3786
18594TIP3    H277274   5.355   5.096  11.986  0.3599  0.6810  0.9022
18595TIP3   OH277275   5.872   0.880   3.021 -0.3664 -0.0175 -0.2310
18595TIP3    H177276   5.966   0.883   3.038 -0.4022  0.1989 -0.0839
18595TIP3    H277277   5.857   0.946   2.953 -0.5738  0.6610  0.4712
18596TIP3   OH277278   3.761   3.001  11.421 -1.0432  0.6896 -0.0502
18596TIP3    H177279   3.783   2.927  11.365  0.8236  1.1551 -0.0135
18596TIP3    H277280   3.829   3.002  11.488 -1.7743  1.6620  0.7181
18597TIP3   OH277281   4.950   2.068   2.871 -0.5740 -0.1741 -0.5490
18597TIP3    H177282   4.993   2.064   2.956 -1.2549 -1.0983 -0.2338
18597TIP3    H277283   5.002   2.131   2.821  0.2982 -0.2139  0.2826
18598TIP3   OH277284   2.317   5.952  10.605 -0.4493 -0.5763  0.2644
18598TIP3    H177285   2.245   6.016  10.605  0.4409  0.4739 -0.3491
18598TIP3    H277286   2.328   5.928  10.697  0.3487  1.5650  0.7983
18599TIP3   OH277287   6.775   2.435   3.489 -0.4784  0.1615 -0.4721
18599TIP3    H177288   6.754   2.511   3.434  1.5499 -0.0741 -1.6567
18599TIP3    H277289   6.703   2.374   3.472 -0.8526  0.8315 -1.4252
18600TIP3   OH277290   2.752   6.512  15.824  0.7183 -0.0043 -0.0202
18600TIP3    H177291   2.728   6.519  15.917  1.2388 -1.3308  0.2377
18600TIP3    H277292   2.678   6.466  15.784  1.0786 -0.6150  0.0074
18601TIP3   OH277293   5.528   3.415   0.386  0.5838  0.4491 -0.6323
18601TIP3    H177294   5.532   3.470   0.465  0.5843 -1.8172  1.0618
18601TIP3    H277295   5.618   3.387   0.372  0.2178 -1.4267  0.3676
18602TIP3   OH277296   1.840   1.336   2.916  0.7634  0.4161  0.3738
18602TIP3    H177297   1.820   1.430   2.911  2.6103  1.0171  2.3316
18602TIP3    H277298   1.830   1.304   2.827 -1.0434  2.2106 -0.1372
18603TIP3   OH277299   4.744   6.811   5.482  0.3387  0.0680 -0.3720
18603TIP3    H177300   4.683   6.773   5.419  0.4018 -0.0027 -0.3915
18603TIP3    H277301   4.748   6.745   5.552 -1.2191  0.9884  0.6486
18604TIP3   OH277302   5.082   0.640   4.940  0.1304  0.1970 -0.0989
18604TIP3    H177303   5.092   0.649   5.035  0.7927 -0.8424 -0.0652
18604TIP3    H277304   5.102   0.548   4.922 -0.0453  0.3733 -1.2406
18605TIP3   OH277305   4.904   1.803  14.536  0.0968  0.0124  0.8457
18605TIP3    H177306   4.815   1.769  14.525 -0.3215  1.0651  0.9152
18605TIP3    H277307   4.896   1.897  14.522  0.8814  0.3857  2.6651
18606TIP3   OH277308   5.132   4.394  11.975  0.7629 -0.0665 -0.4348
18606TIP3    H177309   5.078   4.425  12.048  1.3275  0.9461 -0.4357
18606TIP3    H277310   5.104   4.446  11.900  0.7504 -0.5453 -0.7699
18607TIP3   OH277311   1.561   0.413  14.540 -1.0442  0.1695 -0.6447
18607TIP3    H177312   1.610   0.337  14.507 -2.0993 -0.5411 -0.6337
18607TIP3    H277313   1.534   0.460  14.461  3.0370  2.9327 -0.7036
18608TIP3   OH277314   1.519   1.537   6.046  0.7353  0.3653  0.2113
18608TIP3    H177315   1.459   1.553   5.974 -0.2019  0.0879  0.9090
18608TIP3    H277316   1.519   1.442   6.056  1.7167  0.3170 -0.1230
18609TIP3   OH277317   6.381   2.108   1.189 -0.2078 -0.2088 -0.2694
18609TIP3    H177318   6.402   2.152   1.271  0.7559 -0.0150 -0.6046
18609TIP3    H277319   6.333   2.029   1.215 -1.3702  0.6768  0.3738
18610TIP3   OH277320   1.103   4.259   2.405 -0.2954 -0.5947  0.4655
18610TIP3    H177321   1.059   4.227   2.483 -0.2123 -0.6921  0.4732
18610TIP3    H277322   1.096   4.187   2.342  1.0648 -1.1714  0.9326
18611TIP3   OH277323   5.905   0.325   4.576  0.3377  0.1640 -0.4137
18611TIP3    H177324   5.879   0.373   4.497  0.9648 -1.7138 -1.8497
18611TIP3    H277325   6.001   0.325   4.575  0.3941  1.2985  1.1536
18612TIP3   OH277326   5.228   2.046   3.592 -0.1416  0.3936  0.2578
18612TIP3    H177327   5.239   1.954   3.616 -0.5320 -0.2954 -1.9810
18612TIP3    H277328   5.141   2.069   3.625  0.1480  0.1437  1.2508
18613TIP3   OH277329   0.006   5.447  16.950 -0.2966 -0.1333 -0.5833
18613TIP3    H177330   0.019   5.535  16.916  1.2030 -0.2515 -0.4175
18613TIP3    H277331   0.095   5.414  16.963 -0.8236 -1.0003  1.0663
18614TIP3   OH277332   6.079   1.895  17.036  0.6477  0.2032  0.0537
18614TIP3    H177333   6.085   1.800  17.027  1.4859 -0.0006  2.2017
18614TIP3    H277334   6.111   1.929  16.953 -0.5560 -1.3765 -1.1079
18615TIP3   OH277335   2.969   4.171   2.431 -0.3369  0.2948  0.0620
18615TIP3    H177336   3.000   4.260   2.415 -1.1402  0.3733 -1.1927
18615TIP3    H277337   2.924   4.175   2.515 -0.4313  1.0902 -0.0243
18616TIP3   OH277338   3.507   0.941  15.406  0.0213  1.0427  0.1283
18616TIP3    H177339   3.419   0.979  15.414 -0.6163 -0.6410  1.7031
18616TIP3    H277340   3.502   0.857  15.452  2.3069  0.6174 -0.2637
18617TIP3   OH277341   2.987   4.645   4.754 -0.3025 -0.0667  0.4000
18617TIP3    H177342   2.895   4.649   4.780 -0.0728  0.4945  1.1945
18617TIP3    H277343   2.994   4.567   4.699 -1.4333  0.4077 -0.4418
18618TIP3   OH277344   5.817   6.795  12.471  0.0218  0.2323  0.4352
18618TIP3    H177345   5.828   6.769  12.562  0.1968  0.0003  0.3503
18618TIP3    H277346   5.759   6.728  12.433 -0.3849  0.5581  0.4793
18619TIP3   OH277347   1.439   2.465   2.920 -0.0019 -0.1464 -0.2953
18619TIP3    H177348   1.347   2.460   2.946  0.4340 -0.5373  1.3042
18619TIP3    H277349   1.439   2.512   2.837 -1.5559  0.8311  0.2336
18620TIP3   OH277350   5.389   0.514   1.946 -0.3650  0.0273  0.8911
18620TIP3    H177351   5.330   0.452   1.905 -0.2897 -1.1070  2.4027
18620TIP3    H277352   5.477   0.486   1.920 -0.4083  1.2714 -0.7549
18621TIP3   OH277353   6.750   6.061  14.733 -0.1410  0.2706 -0.1061
18621TIP3    H177354   6.763   5.981  14.784  0.8590  1.0522  0.9099
18621TIP3    H277355   6.777   6.037  14.644  0.7614 -0.3572  0.3205
18622TIP3   OH277356   0.722   2.849   2.061 -0.1095 -0.6798  0.1468
18622TIP3    H177357   0.698   2.831   1.970  0.7437 -0.2071 -0.1777
18622TIP3    H277358   0.662   2.919   2.088 -0.5072 -0.9685  0.0230
18623TIP3   OH277359   5.317   4.218  14.753 -0.2374  0.9468  0.0538
18623TIP3    H177360   5.344   4.162  14.826  2.0709  1.3437 -0.4193
18623TIP3    H277361   5.331   4.164  14.675 -1.4367  0.9895 -0.2231
18624TIP3   OH277362   1.094   1.134   5.942 -0.1898 -0.4832 -0.2817
18624TIP3    H177363   1.028   1.186   5.989 -0.2358 -0.6118 -0.2041
18624TIP3    H277364   1.079   1.156   5.850 -0.5630 -0.7607 -0.2931
18625TIP3   OH277365   2.210   6.558  11.221  0.5521  0.4172  0.1238
18625TIP3    H177366   2.227   6.475  11.177  2.2785  0.4258  0.7015
18625TIP3    H277367   2.240   6.624  11.159 -0.9054  0.6588 -0.3742
18626TIP3   OH277368   4.452   1.648   1.499  0.4522 -0.2138  0.8725
18626TIP3    H177369   4.465   1.739   1.472  0.2770 -0.5858 -0.5516
18626TIP3    H277370   4.450   1.651   1.595 -0.3714  1.3950  0.8399
18627TIP3   OH277371   5.946   6.570  16.902  0.5783  0.3994  0.6921
18627TIP3    H177372   5.960   6.654  16.858  0.0586  0.0251 -0.2171
18627TIP3    H277373   5.851   6.557  16.900  0.7791 -1.3312 -1.4091
18628TIP3   OH277374   5.517   6.677  14.853 -0.0343  0.3146  0.4516
18628TIP3    H177375   5.574   6.602  14.837 -1.7704 -1.3278  1.6218
18628TIP3    H277376   5.454   6.675  14.781  1.9815  2.9094 -1.6020
18629TIP3   OH277377   6.711   5.178  16.459 -0.1721 -1.0056  0.3344
18629TIP3    H177378   6.797   5.140  16.438  0.0017  0.3609 -1.7676
18629TIP3    H277379   6.651   5.135  16.397 -0.5397 -0.1930  0.1184
18630TIP3   OH277380   4.851   6.318  12.291  0.0747 -0.4538  0.5757
18630TIP3    H177381   4.936   6.292  12.327  0.2328  0.0054  0.5333
18630TIP3    H277382   4.797   6.336  12.368  0.5656  1.0309  0.6075
18631TIP3   OH277383   5.043   5.429   1.768 -0.7538 -0.3990  0.1862
18631TIP3    H177384   5.126   5.458   1.730  0.0801 -0.1313  2.1053
18631TIP3    H277385   4.997   5.386   1.696  0.8146 -0.0823 -1.0517
18632TIP3   OH277386   2.175   3.994  12.466 -0.4566  0.1401  0.1991
18632TIP3    H177387   2.237   4.005  12.538 -0.0005  2.3449 -0.4375
18632TIP3    H277388   2.106   3.938  12.501  1.7352 -2.2567  0.9987
18633TIP3   OH277389   1.069   6.567   6.896 -0.0590 -0.2237 -0.1676
18633TIP3    H177390   1.065   6.533   6.807  1.5631 -1.7771  0.2766
18633TIP3    H277391   1.132   6.639   6.892 -0.6022  0.2404 -0.4156
18634TIP3   OH277392   1.929   2.560   1.414 -0.4615  0.5505 -0.2874
18634TIP3    H177393   1.981   2.556   1.334 -0.7597  1.2567 -0.5301
18634TIP3    H277394   1.935   2.652   1.442 -0.2115  0.2728  0.5983
18635TIP3   OH277395   1.965   2.771  14.567 -0.0881 -0.2245 -0.5235
18635TIP3    H177396   1.879   2.813  14.557  0.1560  0.3243 -0.3375
18635TIP3    H277397   1.977   2.722  14.486 -0.1300  0.5235 -0.9929
18636TIP3   OH277398   5.800   4.675   3.107  0.3879 -0.1358  0.3110
18636TIP3    H177399   5.779   4.581   3.113  1.8903 -0.3920  2.3152
18636TIP3    H277400   5.726   4.718   3.150  0.5292 -0.5196  0.9445
18637TIP3   OH277401   5.090   6.170   3.609 -0.3589  0.0190 -0.0122
18637TIP3    H177402   5.057   6.197   3.523 -0.9322  1.2248  0.5675
18637TIP3    H277403   5.011   6.161   3.663 -0.0194 -0.9202  0.3495
18638TIP3   OH277404   2.918   3.473  10.110  0.3823  0.4407 -0.0551
18638TIP3    H177405   2.845   3.471  10.172 -0.7581  3.2399 -1.1356
18638TIP3    H277406   2.887   3.421  10.036 -0.7893  1.9963 -0.7053
18639TIP3   OH277407   2.755   2.505  15.512 -0.4881 -0.0667  0.1977
18639TIP3    H177408   2.821   2.566  15.480  0.2134 -0.9333 -0.0574
18639TIP3    H277409   2.756   2.517  15.607  0.3785 -0.3929  0.2388
18640TIP3   OH277410   0.217   6.516  12.708  0.5357  0.0100 -0.2520
18640TIP3    H177411   0.159   6.575  12.756  0.3130  1.4765 -2.2074
18640TIP3    H277412   0.182   6.429  12.726  0.4413  0.4646  2.1421
18641TIP3   OH277413   0.844   4.675  16.937  0.4929 -0.1706 -0.4139
18641TIP3    H177414   0.786   4.654  16.864 -0.3368  0.4363  0.0408
18641TIP3    H277415   0.822   4.765  16.960 -0.6182 -0.9082  1.7393
18642TIP3   OH277416   3.182   4.362  12.554  0.2791  0.2612 -0.1028
18642TIP3    H177417   3.160   4.320  12.472 -1.7178  0.6852  0.1572
18642TIP3    H277418   3.225   4.444  12.528  1.5216 -0.5419 -0.6514
18643TIP3   OH277419   3.741   3.853   0.944  0.2601  0.1358 -0.0789
18643TIP3    H177420   3.728   3.769   0.988  2.1723  1.1831  2.8277
18643TIP3    H277421   3.659   3.901   0.958 -0.0942 -0.5099  0.0755
18644TIP3   OH277422   0.554   4.497  15.928  0.0632 -1.1058  0.2402
18644TIP3    H177423   0.618   4.477  15.859  0.1617  1.3605 -0.4496
18644TIP3    H277424   0.607   4.510  16.007  0.4748  1.0238 -0.3506
18645TIP3   OH277425   2.051   1.897   4.071 -0.1098  0.2577  0.4738
18645TIP3    H177426   2.060   1.823   4.010 -2.7272 -0.9551  1.4074
18645TIP3    H277427   2.139   1.911   4.105  1.0150 -0.4830 -1.8910
18646TIP3   OH277428   1.294   3.542   6.046  0.1112 -0.0390  0.0075
18646TIP3    H177429   1.378   3.555   6.091 -0.4820 -0.4196  1.2683
18646TIP3    H277430   1.285   3.447   6.039 -0.2986 -0.0034  0.0380
18647TIP3   OH277431   0.881   1.327  15.678 -0.1366 -0.4460 -0.0408
18647TIP3    H177432   0.877   1.422  15.682  0.1848 -0.4541  0.6117
18647TIP3    H277433   0.899   1.307  15.586 -0.2682  0.1159 -0.1932
18648TIP3   OH277434   6.093   2.121  14.005  0.3062 -0.6691  0.4303
18648TIP3    H177435   6.128   2.204  13.976  1.5562 -0.8570  1.3127
18648TIP3    H277436   6.001   2.139  14.025  0.3558  0.2826 -0.1662
18649TIP3   OH277437   6.622   1.460   2.400  0.1718 -0.4435  0.6801
18649TIP3    H177438   6.680   1.530   2.428 -0.8035  2.0568 -2.7356
18649TIP3    H277439   6.680   1.390   2.369  1.2850  0.3988  0.8297
18650TIP3   OH277440   1.906   6.770   1.560 -0.0372 -0.1389 -0.3364
18650TIP3    H177441   1.894   6.690   1.508  0.9336 -1.4966  1.4123
18650TIP3    H277442   1.968   6.823   1.509 -0.9948 -0.2934 -1.7065
18651TIP3   OH277443   2.459   3.827  17.126  0.9511  0.2655 -0.2013
18651TIP3    H177444   2.383   3.825  17.184  1.6734  0.2997  0.7626
18651TIP3    H277445   2.435   3.890  17.058 -0.3519 -0.6061 -0.5864
18652TIP3   OH277446   5.653   3.981  12.689 -0.0630 -0.3569  0.4370
18652TIP3    H177447   5.747   3.972  12.705  0.0299 -3.4358 -1.1253
18652TIP3    H277448   5.646   4.051  12.624  1.1100 -0.0525  0.6198
18653TIP3   OH277449   3.651   0.606  12.972  0.2372  0.3964 -0.2105
18653TIP3    H177450   3.742   0.592  12.997 -0.0385 -0.8009  0.1584
18653TIP3    H277451   3.600   0.560  13.038 -0.6323  0.8184 -0.5725
18654TIP3   OH277452   1.031   5.128  14.819 -0.1198 -0.5079 -0.1209
18654TIP3    H177453   1.022   5.194  14.888  0.8547 -0.0719 -0.3817
18654TIP3    H277454   1.041   5.179  14.739  0.6704 -0.9626 -0.3244
18655TIP3   OH277455   2.285   1.085   0.464  0.3360  0.0129  0.0209
18655TIP3    H177456   2.195   1.079   0.432  0.4592  1.8319 -0.7844
18655TIP3    H277457   2.334   1.023   0.411 -0.0692  0.5975 -1.0605
18656TIP3   OH277458   2.679   2.479  11.139  0.2387 -0.1636 -0.4954
18656TIP3    H177459   2.657   2.414  11.072 -0.6760 -0.9199  0.4870
18656TIP3    H277460   2.610   2.546  11.131 -2.2583 -2.1567  2.0873
18657TIP3   OH277461   2.093   5.764  15.164 -0.3396  0.5187 -0.3508
18657TIP3    H177462   2.033   5.776  15.091  0.2999  0.6204 -0.8638
18657TIP3    H277463   2.157   5.835  15.155  0.3979 -0.1274 -0.3555
18658TIP3   OH277464   2.609   0.687  13.116 -0.5765  0.9006 -0.4484
18658TIP3    H177465   2.626   0.736  13.197  0.5109 -0.1423 -0.0220
18658TIP3    H277466   2.685   0.705  13.061 -0.8217  0.7597 -0.8397
18659TIP3   OH277467   4.045   0.577  15.137 -0.4582 -1.0176 -0.0498
18659TIP3    H177468   4.094   0.541  15.211 -1.2322 -0.1692  0.9210
18659TIP3    H277469   3.955   0.584  15.170 -0.9110 -1.0681 -1.2441
18660TIP3   OH277470   2.226   3.943  11.308 -0.1907  0.1949 -0.0917
18660TIP3    H177471   2.310   3.947  11.263  0.7260  0.8821  1.5744
18660TIP3    H277472   2.248   3.957  11.400 -2.0202 -0.6869  0.5258
18661TIP3   OH277473   3.422   2.331  15.372  0.3845  0.4634 -0.4408
18661TIP3    H177474   3.392   2.366  15.288 -1.8599 -1.4690 -0.5468
18661TIP3    H277475   3.397   2.238  15.369 -1.1286  0.6252  2.8920
18662TIP3   OH277476   2.775   3.791   1.125  0.1637  0.1288  0.1521
18662TIP3    H177477   2.731   3.791   1.210  1.3699  0.3427  0.8038
18662TIP3    H277478   2.868   3.784   1.147  0.4607 -0.3218 -1.1749
18663TIP3   OH277479   2.900   2.817  15.080 -0.2053 -0.2861  0.3257
18663TIP3    H177480   2.973   2.803  15.020  0.7101  0.3672  1.2481
18663TIP3    H277481   2.889   2.733  15.125 -1.7120 -1.1802 -1.5594
18664TIP3   OH277482   5.668   6.562   3.497  0.5794  0.2096  0.1421
18664TIP3    H177483   5.674   6.513   3.580 -1.7588  0.8025  0.7156
18664TIP3    H277484   5.709   6.504   3.433  0.6924 -1.1216  1.3569
18665TIP3   OH277485   0.870   3.210   4.723  0.3110 -0.0409  0.1877
18665TIP3    H177486   0.956   3.173   4.742  0.4667  0.4555  0.4587
18665TIP3    H277487   0.888   3.282   4.662 -0.0451 -0.7556 -0.7886
18666TIP3   OH277488   3.081   6.407   4.931 -0.0557 -0.1125  0.1520
18666TIP3    H177489   3.144   6.407   5.003  1.3740 -1.5124 -1.0216
18666TIP3    H277490   3.036   6.322   4.938 -0.1755 -0.0976 -0.3601
18667TIP3   OH277491   3.817   2.220   5.037 -0.4259 -0.0055  0.5681
18667TIP3    H177492   3.748   2.163   5.069 -0.3722  0.2658  1.1902
18667TIP3    H277493   3.774   2.304   5.021 -0.5451 -0.2663 -0.5314
18668TIP3   OH277494   0.879   3.878   1.858 -0.2176  0.1385  0.2846
18668TIP3    H177495   0.891   3.805   1.919 -1.2286 -0.0108  0.3093
18668TIP3    H277496   0.785   3.882   1.842 -0.0985  0.9777 -0.2912
18669TIP3   OH277497   6.362   2.943  14.303  0.1057 -0.6311 -0.7719
18669TIP3    H177498   6.312   2.927  14.383  2.0393 -1.8079  0.2841
18669TIP3    H277499   6.300   2.987  14.245 -1.1867  0.9462  1.6085
18670TIP3   OH277500   1.943   5.169  13.470  0.6267 -0.4106  0.1716
18670TIP3    H177501   2.013   5.234  13.475  2.6611 -2.3391 -1.3274
18670TIP3    H277502   1.969   5.110  13.399 -2.0696 -1.7938  0.1776
18671TIP3   OH277503   3.029   5.679  12.712 -0.0300 -0.6192  0.1095
18671TIP3    H177504   3.122   5.670  12.690  0.0262  0.0450  0.0357
18671TIP3    H277505   2.990   5.595  12.687  0.5071 -0.8199 -0.0823
18672TIP3   OH277506   4.557   1.841  15.763  0.3850 -0.1365 -0.1093
18672TIP3    H177507   4.502   1.887  15.826  3.0897  1.3952  1.3572
18672TIP3    H277508   4.537   1.883  15.679 -0.1507  0.9149  0.5162
18673TIP3   OH277509   0.694   3.419  11.491 -0.6267  0.2714  0.8257
18673TIP3    H177510   0.735   3.505  11.480 -1.0269  0.2003 -1.8259
18673TIP3    H277511   0.600   3.436  11.483 -0.7095 -0.3862  0.3248
18674TIP3   OH277512   0.268   4.488  14.050 -0.8597 -0.0866 -0.2472
18674TIP3    H177513   0.244   4.416  13.992 -0.8230 -0.8014  0.5950
18674TIP3    H277514   0.363   4.493  14.045 -0.4934 -2.3802  2.2264
18675TIP3   OH277515   2.937   0.988  16.257 -0.4203 -0.3274 -0.0006
18675TIP3    H177516   2.962   0.961  16.169  0.9204  0.3527  0.1512
18675TIP3    H277517   2.934   0.907  16.307 -0.4165 -0.6260 -0.4789
18676TIP3   OH277518   0.000   4.509  10.848  0.1857  0.1443  0.7321
18676TIP3    H177519  -0.023   4.562  10.772 -0.1295 -0.9599  0.0249
18676TIP3    H277520   0.081   4.464  10.823  0.7368  0.6646  1.5174
18677TIP3   OH277521   4.914   1.165  15.063  0.1607 -0.0182 -0.0877
18677TIP3    H177522   4.942   1.245  15.018 -0.7894  0.8863  0.8583
18677TIP3    H277523   4.956   1.169  15.149  0.3131 -0.6734 -0.1262
18678TIP3   OH277524   2.884   1.704  12.472 -0.3400  0.0435 -0.6390
18678TIP3    H177525   2.948   1.664  12.531 -0.4482 -1.5503 -1.5389
18678TIP3    H277526   2.800   1.668  12.500 -0.5151  0.0718 -1.1149
18679TIP3   OH277527   1.818   1.643   2.455  0.5922 -0.9684 -0.2702
18679TIP3    H177528   1.797   1.736   2.447  2.4123 -0.3879  0.9271
18679TIP3    H277529   1.877   1.625   2.382  0.5167 -1.1045 -0.2987
18680TIP3   OH277530   4.064   1.872   5.796  0.2135  0.1419  0.5431
18680TIP3    H177531   4.040   1.809   5.727  1.4670 -0.8087  0.9222
18680TIP3    H277532   4.160   1.878   5.789  0.5627 -1.1145  3.1147
18681TIP3   OH277533   2.159   1.965   4.514  0.2725  0.1841  0.6232
18681TIP3    H177534   2.151   1.959   4.609  1.6972  2.4666  0.9742
18681TIP3    H277535   2.118   2.049   4.492  1.7505  0.6719 -0.4589
18682TIP3   OH277536   1.787   6.476   4.017  0.2610 -0.1431  0.9900
18682TIP3    H177537   1.778   6.528   3.937 -0.6227  1.8553  2.3239
18682TIP3    H277538   1.877   6.445   4.015  0.8786  1.5816  0.1987
18683TIP3   OH277539   1.713   4.639   1.378  0.4063 -0.2829  0.1920
18683TIP3    H177540   1.729   4.548   1.353  1.1716  0.1165 -0.8035
18683TIP3    H277541   1.768   4.652   1.456  1.6784 -0.1645 -0.7043
18684TIP3   OH277542   3.140   4.521  14.313 -0.5815  0.0554 -0.2472
18684TIP3    H177543   3.236   4.521  14.321 -0.6617  1.5377  1.0943
18684TIP3    H277544   3.119   4.609  14.282 -1.5153 -0.3137 -0.6886
18685TIP3   OH277545   1.605   1.948  12.567  0.3089  0.3475 -0.0393
18685TIP3    H177546   1.567   1.953  12.655  0.4073  0.5611 -0.0081
18685TIP3    H277547   1.530   1.958  12.508  0.1094 -0.7347  0.0085
18686TIP3   OH277548   1.125   0.161   3.461 -0.0773 -0.5936 -0.4385
18686TIP3    H177549   1.199   0.222   3.452 -1.5304  1.1112 -1.4719
18686TIP3    H277550   1.074   0.197   3.534 -1.7695  0.4103 -2.0384
18687TIP3   OH277551   2.143   2.639  15.847  0.3100  0.1078  0.0348
18687TIP3    H177552   2.230   2.602  15.828  0.6994  1.0388 -0.0853
18687TIP3    H277553   2.116   2.679  15.765  0.7929  1.7935  0.6427
18688TIP3   OH277554   3.098   5.022  12.141 -0.1271 -0.0052 -0.2016
18688TIP3    H177555   3.033   5.038  12.209 -0.4129  0.2183 -0.5308
18688TIP3    H277556   3.048   4.998  12.063  0.1735  0.3063 -0.4977
18689TIP3   OH277557   5.687   1.421   1.107 -0.1065 -0.7550 -0.1571
18689TIP3    H177558   5.616   1.471   1.146 -0.3941  0.1409 -1.7610
18689TIP3    H277559   5.763   1.479   1.110  0.6596 -1.7512  1.6669
18690TIP3   OH277560   4.061   2.217  16.072  0.0327 -0.4442  0.4233
18690TIP3    H177561   4.009   2.196  16.150  1.0385 -0.9220  0.9777
18690TIP3    H277562   4.147   2.179  16.090  0.3993 -0.1787 -0.7415
18691TIP3   OH277563   1.343   4.815  11.631  0.3157 -0.5411  0.3033
18691TIP3    H177564   1.270   4.768  11.591  1.1259 -2.5393  1.0570
18691TIP3    H277565   1.354   4.893  11.576 -1.7473 -0.6646 -0.3749
18692TIP3   OH277566   5.596   3.287   1.927  0.1075 -0.8142  0.3214
18692TIP3    H177567   5.659   3.323   1.989 -1.1644  1.8084  0.2604
18692TIP3    H277568   5.627   3.317   1.841 -1.2846  0.7873  0.3187
18693TIP3   OH277569   3.597   3.007   2.233 -0.4301 -0.5476  0.3678
18693TIP3    H177570   3.627   3.029   2.146  0.3589  0.0819  0.7895
18693TIP3    H277571   3.503   2.991   2.223 -0.9785  2.3897 -0.1200
18694TIP3   OH277572   0.686   4.834   4.598 -0.1640  0.1179  0.4902
18694TIP3    H177573   0.741   4.758   4.583 -1.5293 -1.0266  1.0463
18694TIP3    H277574   0.699   4.855   4.691  1.0082  1.2689  0.1095
18695TIP3   OH277575   5.729   0.356  16.191  0.1063 -0.5660  0.6508
18695TIP3    H177576   5.643   0.395  16.206 -0.1699 -1.1582  0.6437
18695TIP3    H277577   5.725   0.321  16.102  0.6439  0.1308  0.3450
18696TIP3   OH277578   1.945   1.727  13.787  0.3824 -0.2007 -0.7388
18696TIP3    H177579   1.979   1.815  13.773 -1.4940  0.6473 -0.3603
18696TIP3    H277580   1.994   1.694  13.863  1.0089  0.5749 -0.7984
18697TIP3   OH277581   2.573   5.207  11.083 -0.0868 -0.2813  0.3198
18697TIP3    H177582   2.659   5.178  11.053 -0.1297 -2.9436  2.3904
18697TIP3    H277583   2.514   5.180  11.012  0.3929 -1.7965  0.4557
18698TIP3   OH277584   2.202   5.479   5.193 -0.5650  0.2053 -1.1602
18698TIP3    H177585   2.113   5.448   5.178 -0.4026 -1.4334  0.7767
18698TIP3    H277586   2.249   5.401   5.223  0.6871  1.6722  0.9488
18699TIP3   OH277587   5.143   3.002  17.065 -0.3677 -0.5151 -0.4083
18699TIP3    H177588   5.142   3.097  17.068  0.4620 -0.5372  1.1995
18699TIP3    H277589   5.201   2.975  17.136 -1.9193 -2.2643  0.3103
18700TIP3   OH277590   0.160   3.402   4.144  0.4430 -0.3219  0.4502
18700TIP3    H177591   0.189   3.432   4.230  1.6402  1.0104 -0.3727
18700TIP3    H277592   0.094   3.467   4.118  0.9223 -0.0471 -0.1051
18701TIP3   OH277593   0.576   5.675   2.986  0.1308  0.2778  0.4185
18701TIP3    H177594   0.618   5.589   2.992 -1.4010 -0.5534 -0.2162
18701TIP3    H277595   0.647   5.738   3.000  1.9849 -0.9929 -2.5192
18702TIP3   OH277596   4.142   2.663  16.815 -0.2422 -0.1165 -0.5077
18702TIP3    H177597   4.079   2.705  16.875  0.6975  0.6357 -0.0204
18702TIP3    H277598   4.179   2.736  16.766  0.3779 -0.5410 -0.6731
18703TIP3   OH277599   2.375   5.985   3.540  0.2954  0.1908 -0.4822
18703TIP3    H177600   2.292   6.019   3.505  0.3604  0.4676 -0.3722
18703TIP3    H277601   2.356   5.895   3.565  0.1887  0.0603 -1.0280
18704TIP3   OH277602   4.463   3.744  12.557 -0.1450  0.3457  0.0342
18704TIP3    H177603   4.500   3.801  12.489 -0.1199  0.7894  0.4129
18704TIP3    H277604   4.518   3.760  12.634  0.0559 -0.4261  0.0607
18705TIP3   OH277605   0.535   1.617  16.397  0.6087 -0.2678  0.4190
18705TIP3    H177606   0.566   1.689  16.452  1.6933  0.4512 -1.0459
18705TIP3    H277607   0.600   1.548  16.410 -0.6150 -1.1724  2.0877
18706TIP3   OH277608   6.389   3.743  13.897 -0.7145 -0.1938 -0.3097
18706TIP3    H177609   6.447   3.670  13.876 -0.0873  0.1253  0.2767
18706TIP3    H277610   6.328   3.747  13.824  0.3883 -0.1356 -1.2572
18707TIP3   OH277611   5.101   4.087   2.395  0.4273  0.1772 -0.2712
18707TIP3    H177612   5.111   4.160   2.456  1.3945 -0.4989  0.3999
18707TIP3    H277613   5.122   4.009   2.446  1.7661 -0.3708 -1.5548
18708TIP3   OH277614   6.631   6.838   1.281  0.1614 -0.1642 -0.1036
18708TIP3    H177615   6.543   6.801   1.274 -0.0526  0.1955  0.6641
18708TIP3    H277616   6.624   6.924   1.239 -0.1831  0.4100  1.1096
18709TIP3   OH277617   4.434   4.559  10.415 -0.4758 -0.1360  0.1776
18709TIP3    H177618   4.471   4.502  10.482  2.0425 -0.1044 -1.0523
18709TIP3    H277619   4.378   4.502  10.363  0.5155 -1.0672  0.0966
18710TIP3   OH277620   6.314   1.746  15.899  0.0530  0.5721  0.3628
18710TIP3    H177621   6.271   1.812  15.845  2.4624  1.4222 -0.6430
18710TIP3    H277622   6.298   1.773  15.989 -2.7820 -0.0553  0.1460
18711TIP3   OH277623   4.792   4.301  15.761 -0.1098  0.5810 -0.0251
18711TIP3    H177624   4.888   4.291  15.763 -0.1644 -0.1729 -0.5189
18711TIP3    H277625   4.759   4.215  15.785 -0.6521  0.5034 -0.9958
18712TIP3   OH277626   2.867   0.089  11.797 -0.4482  0.2691 -0.7357
18712TIP3    H177627   2.961   0.090  11.813 -0.6264  1.0806  0.3410
18712TIP3    H277628   2.846  -0.003  11.785  0.8008  0.1925 -3.1594
18713TIP3   OH277629   2.106   5.398   1.377  0.4344  0.0915  0.5935
18713TIP3    H177630   2.025   5.448   1.369 -0.4579 -1.1847  1.2716
18713TIP3    H277631   2.145   5.401   1.290  0.5534  2.1434  0.6667
18714TIP3   OH277632   4.781   5.401  14.535 -0.0293  0.3922  0.0293
18714TIP3    H177633   4.809   5.484  14.575  1.6084  0.6018 -1.4109
18714TIP3    H277634   4.778   5.421  14.441 -0.1174 -1.0382 -0.2839
18715TIP3   OH277635   2.165   6.832  12.771 -0.8343  0.1751 -0.0129
18715TIP3    H177636   2.112   6.804  12.846  0.6777 -0.4315  0.8682
18715TIP3    H277637   2.107   6.821  12.696 -1.4343 -2.0362  0.7073
18716TIP3   OH277638   3.715   4.301  14.214  0.7215  0.1859 -0.1294
18716TIP3    H177639   3.624   4.276  14.232  0.4567  2.0018  1.2945
18716TIP3    H277640   3.715   4.323  14.121 -0.2231 -0.0819 -0.2061
18717TIP3   OH277641   6.410   5.593  11.520 -0.1981 -0.2528  0.4819
18717TIP3    H177642   6.381   5.656  11.585  0.8558 -0.9731  1.6972
18717TIP3    H277643   6.474   5.640  11.467 -0.7273  0.2080  0.2523
18718TIP3   OH277644   2.063   2.613  11.901 -0.3517 -0.2694  0.2126
18718TIP3    H177645   2.048   2.536  11.846  3.5371  0.3718 -2.1000
18718TIP3    H277646   2.130   2.585  11.964  1.3233  1.1575 -0.8409
18719TIP3   OH277647   1.310   3.896  13.200 -0.4577  0.1696 -0.1949
18719TIP3    H177648   1.276   3.880  13.112  1.8057  0.9873 -1.3082
18719TIP3    H277649   1.311   3.991  13.209  1.3977  0.2043 -0.2403
18720TIP3   OH277650   6.215   0.021  14.881  0.2213 -0.6600 -0.1490
18720TIP3    H177651   6.176   0.098  14.924  0.0384 -1.1637  0.6021
18720TIP3    H277652   6.147  -0.010  14.821  0.9362  0.8001 -1.8073
18721TIP3   OH277653   3.494   4.414   2.094 -0.1846  0.8250 -0.4896
18721TIP3    H177654   3.413   4.435   2.140 -0.6592  2.4034 -1.9285
18721TIP3    H277655   3.563   4.454   2.147 -0.2353 -0.9380  1.0006
18722TIP3   OH277656   2.410   6.337   2.935  0.1345  0.5952  0.6684
18722TIP3    H177657   2.372   6.298   2.856  0.7086  1.3922 -0.0102
18722TIP3    H277658   2.440   6.262   2.987 -0.7575  0.0384  0.4089
18723TIP3   OH277659   0.344   2.656  11.329 -0.2521  0.8232 -0.1147
18723TIP3    H177660   0.300   2.659  11.243  0.8399  1.0664 -0.6830
18723TIP3    H277661   0.400   2.733  11.329  1.7089 -0.5447 -0.2678
18724TIP3   OH277662   4.861   2.160  16.772  0.4681  0.1841  0.7468
18724TIP3    H177663   4.857   2.089  16.836  0.8299 -0.9648 -0.4628
18724TIP3    H277664   4.774   2.200  16.776  0.1262 -0.5738  1.1812
18725TIP3   OH277665   6.129   2.831  13.087  0.1610 -0.6713  0.5685
18725TIP3    H177666   6.178   2.909  13.058 -1.2677 -0.5619 -1.8289
18725TIP3    H277667   6.194   2.779  13.134  1.6031  1.1501  0.7424
18726TIP3   OH277668   3.119   0.008   2.721 -0.2038 -0.1767  0.2537
18726TIP3    H177669   3.044   0.017   2.662 -0.5049  0.6520  0.7482
18726TIP3    H277670   3.179   0.078   2.694  1.1497 -1.7921 -1.1873
18727TIP3   OH277671   5.583   5.251  14.397 -0.2371 -0.2328  0.2863
18727TIP3    H177672   5.493   5.275  14.419  0.3696  1.2952  1.2173
18727TIP3    H277673   5.586   5.255  14.302 -1.4051 -1.2929  0.1783
18728TIP3   OH277674   0.623   2.227   4.285 -0.5443  0.5758 -0.0544
18728TIP3    H177675   0.551   2.289   4.292 -0.6443  0.6257 -1.4050
18728TIP3    H277676   0.587   2.144   4.316 -0.6313  1.0010  1.0226
18729TIP3   OH277677   4.384   4.165   4.783 -0.0405 -0.3257 -0.5654
18729TIP3    H177678   4.424   4.202   4.861 -0.1285  1.5453 -1.3289
18729TIP3    H277679   4.292   4.152   4.806 -0.3064  1.2387 -0.6404
18730TIP3   OH277680   1.629   5.539  10.614  1.0240 -0.2250 -0.1325
18730TIP3    H177681   1.682   5.519  10.691  1.6757 -0.1497 -0.5442
18730TIP3    H277682   1.539   5.522  10.641  1.1515  0.6798  0.9227
18731TIP3   OH277683   1.093   5.163  13.993  0.1962  0.2111 -0.2553
18731TIP3    H177684   1.065   5.228  14.057  0.0148 -1.0454  1.0151
18731TIP3    H277685   1.178   5.132  14.026  0.8247  0.6200 -1.4664
18732TIP3   OH277686   0.181   0.072  14.173  0.3138  0.1730 -0.2937
18732TIP3    H177687   0.128   0.150  14.192  1.9074  1.0220  0.9056
18732TIP3    H277688   0.135   0.001  14.217 -1.3143  0.3194 -1.6279
18733TIP3   OH277689   0.654   2.777  16.453  0.1372  0.6143 -0.7220
18733TIP3    H177690   0.579   2.790  16.395 -0.4998 -1.4404 -0.4041
18733TIP3    H277691   0.716   2.727  16.400 -0.1487 -0.6446  0.1146
18734TIP3   OH277692   0.110   1.683  15.818  0.4548  0.1973  0.2127
18734TIP3    H177693   0.043   1.752  15.821 -0.1620 -0.3771 -0.1980
18734TIP3    H277694   0.075   1.619  15.756  1.0841 -0.4240  0.4980
18735TIP3   OH277695   6.306   3.686   2.519 -0.2143 -0.3020 -0.2746
18735TIP3    H177696   6.350   3.683   2.434 -1.5694 -2.4061 -0.9605
18735TIP3    H277697   6.377   3.675   2.583  0.6967  0.2968 -1.1510
18736TIP3   OH277698   4.770   2.866  13.996 -0.1478  0.1177 -0.0497
18736TIP3    H177699   4.697   2.868  14.057  0.6461  0.0088  0.9482
18736TIP3    H277700   4.737   2.905  13.915 -1.6218 -0.9684 -0.0026
18737TIP3   OH277701   4.264   3.065   1.044 -0.2705 -0.1440 -0.0050
18737TIP3    H177702   4.353   3.034   1.028 -0.5087 -0.9590  0.1919
18737TIP3    H277703   4.216   3.042   0.964 -0.0575  1.3102 -0.5768
18738TIP3   OH277704   0.766   6.577  12.330  0.1053 -0.0983 -0.0562
18738TIP3    H177705   0.739   6.615  12.414 -0.5792  2.7745 -1.4539
18738TIP3    H277706   0.789   6.486  12.351 -0.4723  0.3776  3.1273
18739TIP3   OH277707   6.257   1.790   3.598  0.0720 -0.3497  0.1172
18739TIP3    H177708   6.340   1.814   3.640 -0.2797 -0.0942  0.6893
18739TIP3    H277709   6.190   1.833   3.653 -0.3892  0.2008 -0.8500
18740TIP3   OH277710   0.607   0.903   3.837  1.1163  0.1736 -0.7728
18740TIP3    H177711   0.568   0.847   3.904  1.4249 -0.5959 -1.2211
18740TIP3    H277712   0.651   0.972   3.886  1.2678 -0.3365 -0.1861
18741TIP3   OH277713   0.521   6.566   3.593 -0.0602 -0.3236  0.0815
18741TIP3    H177714   0.556   6.606   3.673  0.8823 -0.4920 -0.2354
18741TIP3    H277715   0.426   6.575   3.601 -0.1487 -2.1079  2.1790
18742TIP3   OH277716   6.190   5.192  13.612 -0.3656 -0.3876 -0.1614
18742TIP3    H177717   6.231   5.251  13.548  1.1277  0.2935  1.3478
18742TIP3    H277718   6.264   5.155  13.660 -1.4621 -0.1398  1.7980
18743TIP3   OH277719   5.447   2.945  15.790 -0.1696 -0.8451  0.5606
18743TIP3    H177720   5.527   2.995  15.809 -0.7301  0.8925 -1.2682
18743TIP3    H277721   5.413   2.920  15.875  0.7475  1.0125  1.5322
18744TIP3   OH277722   1.140   3.404   2.817 -0.2358 -0.2613 -0.0562
18744TIP3    H177723   1.111   3.417   2.907  0.5847 -0.7889  0.3012
18744TIP3    H277724   1.172   3.490   2.789  1.6300 -0.5733  0.9660
18745TIP3   OH277725   3.532   3.787  13.560 -0.4200  0.4136 -0.1940
18745TIP3    H177726   3.614   3.737  13.558 -0.0891  0.9540 -1.8849
18745TIP3    H277727   3.463   3.720  13.562  0.0449 -0.0525  0.6087
18746TIP3   OH277728   3.291   1.032   5.613  0.1064 -0.5979 -0.2309
18746TIP3    H177729   3.302   0.937   5.611  1.1336 -0.4832 -1.4824
18746TIP3    H277730   3.328   1.062   5.530  1.4253  1.0737  0.8890
18747TIP3   OH277731   1.095   1.016  12.390  0.1662 -0.7843 -0.2288
18747TIP3    H177732   1.021   1.077  12.396 -0.0964 -1.1954  0.9246
18747TIP3    H277733   1.152   1.041  12.463  0.6621 -1.1323 -0.4928
18748TIP3   OH277734   1.900   0.273   1.342  0.3205  0.8348 -0.4787
18748TIP3    H177735   1.811   0.259   1.309  1.3608 -0.3570 -3.1587
18748TIP3    H277736   1.906   0.367   1.357 -2.1563  0.6573  2.5411
18749TIP3   OH277737   3.520   3.820   3.398  0.2609 -0.1192 -0.4269
18749TIP3    H177738   3.521   3.748   3.335  0.5375 -0.2410 -0.2854
18749TIP3    H277739   3.539   3.898   3.346 -2.7437  0.2825 -1.0869
18750TIP3   OH277740   1.834   4.945  17.096 -0.0220  0.2472  0.2276
18750TIP3    H177741   1.842   4.867  17.151 -0.6595  0.9557  1.3606
18750TIP3    H277742   1.854   5.018  17.155 -0.8252  1.0385 -0.4545
18751TIP3   OH277743   3.400   5.869   6.271  0.9449  0.2559 -0.3002
18751TIP3    H177744   3.385   5.783   6.309  0.6745  0.7484  0.7298
18751TIP3    H277745   3.495   5.883   6.280  1.1802 -0.4061 -1.5296
18752TIP3   OH277746   3.801   4.185   4.409 -0.0969 -0.7589  0.2731
18752TIP3    H177747   3.744   4.184   4.333 -0.9427 -0.6812  0.8935
18752TIP3    H277748   3.806   4.093   4.436 -0.8053 -0.6356  0.8516
18753TIP3   OH277749   4.017   3.961  16.069  0.5679 -0.3560 -0.3354
18753TIP3    H177750   3.986   3.878  16.104 -0.1934 -0.6692 -1.6682
18753TIP3    H277751   4.064   3.937  15.989  0.9851  0.4439 -0.3417
18754TIP3   OH277752   5.573   5.665   2.119 -0.4119  0.3824 -0.5064
18754TIP3    H177753   5.566   5.755   2.088 -0.3501  0.3115 -0.7262
18754TIP3    H277754   5.575   5.612   2.040 -1.8926  0.0790 -0.3710
18755TIP3   OH277755   3.187   3.864  13.503 -0.2364 -0.2830 -0.5350
18755TIP3    H177756   3.271   3.909  13.504  0.4325 -1.5025  0.3758
18755TIP3    H277757   3.205   3.779  13.462 -0.9235 -0.7214  0.0284
18756TIP3   OH277758   4.934   0.510  15.868 -0.2005 -0.1237  0.4938
18756TIP3    H177759   5.010   0.494  15.813 -0.8314  0.3796 -0.5583
18756TIP3    H277760   4.878   0.434  15.855 -0.5897  0.2381  0.0124
18757TIP3   OH277761   1.512   4.015  11.751  0.4867 -0.3978  0.3047
18757TIP3    H177762   1.469   3.998  11.668  2.2828  0.2814 -0.8312
18757TIP3    H277763   1.556   3.933  11.772  3.4071  0.5128 -1.6093
18758TIP3   OH277764   1.270   5.745   0.086  0.0435 -0.0139  0.0187
18758TIP3    H177765   1.174   5.744   0.081  0.1192 -0.1847 -2.0530
18758TIP3    H277766   1.295   5.832   0.055  0.6003 -0.5803 -1.1834
18759TIP3   OH277767   2.795   4.967   5.610 -0.0691 -0.0301 -0.2821
18759TIP3    H177768   2.704   4.938   5.599 -0.5666  1.5723 -0.5418
18759TIP3    H277769   2.791   5.062   5.609  1.7023  0.0849 -0.9837
18760TIP3   OH277770   1.193   1.384   4.006  0.3120 -0.2478  0.4102
18760TIP3    H177771   1.176   1.428   3.922 -1.6808  1.3670  1.5690
18760TIP3    H277772   1.125   1.317   4.012 -1.2960  1.3847  1.8117
18761TIP3   OH277773   2.262   1.542  13.310 -0.4788  0.2080 -0.2709
18761TIP3    H177774   2.261   1.596  13.231 -1.7276 -0.9466 -1.0741
18761TIP3    H277775   2.298   1.600  13.378  1.2405  1.0224 -1.7886
18762TIP3   OH277776   1.423   0.842  16.106 -0.5414  0.6722 -0.2689
18762TIP3    H177777   1.367   0.916  16.082 -1.2055  0.9777  2.0290
18762TIP3    H277778   1.428   0.846  16.201 -0.3423 -2.0677 -0.1029
18763TIP3   OH277779   4.626   1.475  16.246 -0.4343 -0.3466 -0.2811
18763TIP3    H177780   4.583   1.486  16.331 -2.1020 -1.2793 -0.9605
18763TIP3    H277781   4.563   1.507  16.182  0.4243 -0.5115 -1.2453
18764TIP3   OH277782   0.543   4.888   0.607  0.0771  0.0811  0.0100
18764TIP3    H177783   0.451   4.887   0.634  0.0651 -1.9634  0.0760
18764TIP3    H277784   0.584   4.952   0.665 -1.1536  0.4344  0.5293
18765TIP3   OH277785   1.385   6.588   2.260  1.0790 -0.1798  0.3378
18765TIP3    H177786   1.313   6.651   2.263  1.2807  0.2502 -2.0546
18765TIP3    H277787   1.463   6.640   2.282  1.1223  0.2333 -0.7313
18766TIP3   OH277788   4.097   6.130   3.599 -0.1582  0.0007  0.8471
18766TIP3    H177789   4.046   6.119   3.518 -0.5669  1.6005  0.8550
18766TIP3    H277790   4.087   6.047   3.644 -1.8700 -0.1293  0.3288
18767TIP3   OH277791   4.958   5.686   3.034 -0.2442 -0.8041 -0.1939
18767TIP3    H177792   4.888   5.749   3.016 -0.1650 -0.6472  0.0442
18767TIP3    H277793   4.962   5.632   2.955  0.0136 -0.1987 -0.6040
18768TIP3   OH277794   2.888   6.295   1.078  0.2182 -0.2416  0.2127
18768TIP3    H177795   2.933   6.339   1.005 -0.3402  1.5347  0.8776
18768TIP3    H277796   2.957   6.281   1.143  0.1240  1.1889  0.6536
18769TIP3   OH277797   4.370   1.789  11.476  0.0350 -0.2898  0.1035
18769TIP3    H177798   4.448   1.809  11.423  0.7795  0.6456  1.4653
18769TIP3    H277799   4.310   1.861  11.458 -0.9324 -1.4566 -1.6123
18770TIP3   OH277800   3.728   2.508  15.224 -0.3129 -0.2035  0.7825
18770TIP3    H177801   3.752   2.485  15.314 -0.0705  0.3382  0.8543
18770TIP3    H277802   3.686   2.429  15.191 -0.0189 -0.5563  1.2304
18771TIP3   OH277803   3.321   2.803  13.114  0.0370  0.1293 -0.2523
18771TIP3    H177804   3.345   2.711  13.111  1.1281  0.3072  1.4897
18771TIP3    H277805   3.383   2.846  13.056  1.4714  0.0883  1.1834
18772TIP3   OH277806   3.102   3.547  10.903 -0.2419  0.0291  0.3021
18772TIP3    H177807   3.164   3.565  10.974 -0.2991  0.5336  0.2324
18772TIP3    H277808   3.148   3.575  10.824 -0.7058  0.8014  0.2918
18773TIP3   OH277809   3.552   3.490   3.399 -0.1563  0.3732 -0.1153
18773TIP3    H177810   3.501   3.410   3.414 -0.2923  0.5293  0.2610
18773TIP3    H277811   3.636   3.474   3.441 -0.4838  0.7524  0.6951
18774TIP3   OH277812   2.663   4.867   0.234  0.2043 -0.4566  0.2790
18774TIP3    H177813   2.604   4.898   0.165  1.6844  0.8635 -0.4652
18774TIP3    H277814   2.606   4.849   0.309 -1.0940  1.1809 -0.2702
18775TIP3   OH277815   3.884   3.333  12.563  0.0776 -0.5044 -0.1322
18775TIP3    H177816   3.894   3.428  12.555  1.2944 -0.4375  1.7154
18775TIP3    H277817   3.810   3.312  12.505 -0.8149  1.6782  0.1088
18776TIP3   OH277818   1.377   4.104   3.547  0.0927 -0.0635 -0.0437
18776TIP3    H177819   1.430   4.088   3.626  1.3016 -1.3946 -1.0716
18776TIP3    H277820   1.293   4.062   3.565  0.6046 -0.9781  0.2790
18777TIP3   OH277821   0.287   1.474   0.698  0.2096  0.1893  0.1462
18777TIP3    H177822   0.341   1.538   0.744 -0.6114  0.2329  1.0805
18777TIP3    H277823   0.198   1.511   0.701 -0.4087 -1.2765  1.2936
18778TIP3   OH277824   5.929   4.189  14.508  0.2835 -0.0898 -0.0689
18778TIP3    H177825   5.954   4.168  14.597  0.6143  1.3100  0.1998
18778TIP3    H277826   5.838   4.218  14.514  0.5157  0.6666 -0.0590
18779TIP3   OH277827   5.230   6.023   5.955 -0.0217  0.3456 -0.2610
18779TIP3    H177828   5.263   6.101   5.999 -0.5043  0.1315  0.4909
18779TIP3    H277829   5.235   5.954   6.021 -0.0779 -0.1437 -0.7606
18780TIP3   OH277830   6.232   1.615   5.259  0.3593  0.2604  0.2163
18780TIP3    H177831   6.140   1.611   5.285  0.2526  0.6978 -0.0911
18780TIP3    H277832   6.232   1.591   5.167  0.5044  0.6602  0.1106
18781TIP3   OH277833   0.388   0.810   4.470 -0.7023 -0.5297  0.2818
18781TIP3    H177834   0.332   0.831   4.545  0.9456  1.7052  0.9983
18781TIP3    H277835   0.338   0.840   4.394 -2.3624 -2.7618  0.3707
18782TIP3   OH277836   1.516   0.788   2.825  0.1378 -0.0310 -0.1649
18782TIP3    H177837   1.524   0.698   2.795  1.3285  0.7394 -2.3996
18782TIP3    H277838   1.572   0.793   2.903 -0.9163 -1.4662  0.7225
18783TIP3   OH277839   3.811   0.622  10.458 -0.5150  0.3394 -0.1780
18783TIP3    H177840   3.738   0.578  10.414 -1.0363 -1.6826  2.4532
18783TIP3    H277841   3.886   0.564  10.443 -0.6209 -0.1921  1.1622
18784TIP3   OH277842   5.689   5.616  15.630  0.3715 -0.6842  0.0077
18784TIP3    H177843   5.765   5.559  15.643 -0.3548 -2.1465 -1.7441
18784TIP3    H277844   5.717   5.679  15.565  0.5389 -0.2900  0.4574
18785TIP3   OH277845   6.227   6.712  14.079  0.5092  0.4445  0.0885
18785TIP3    H177846   6.310   6.746  14.045  0.5181 -0.1289 -0.4721
18785TIP3    H277847   6.160   6.767  14.040  0.5965  0.6122  0.1744
18786TIP3   OH277848   5.190   1.177  11.024 -1.0046 -0.0476  0.4051
18786TIP3    H177849   5.213   1.256  10.975 -0.2816 -0.8747 -0.6475
18786TIP3    H277850   5.096   1.184  11.037 -1.2056  0.2774 -1.0249
18787TIP3   OH277851   1.736   5.077  14.927 -0.5154  0.0794 -0.1855
18787TIP3    H177852   1.779   5.013  14.984  0.4949  0.6069 -0.3300
18787TIP3    H277853   1.776   5.064  14.841  0.8559  1.8694  0.0915
18788TIP3   OH277854   3.957   5.666   2.678  0.5893  0.0257  0.3752
18788TIP3    H177855   4.021   5.618   2.625  1.0614  0.7262  0.3018
18788TIP3    H277856   3.970   5.758   2.655 -0.2988  0.1989  0.5300
18789TIP3   OH277857   4.939   0.229  16.705  0.6008  0.5081  0.3895
18789TIP3    H177858   4.901   0.224  16.793 -1.4230 -1.7452 -0.4902
18789TIP3    H277859   4.891   0.299  16.662 -0.2187 -0.0670  0.3390
18790TIP3   OH277860   1.439   0.886  14.119  0.0698 -0.0198  0.6737
18790TIP3    H177861   1.533   0.881  14.136  0.0075 -0.8065  0.8155
18790TIP3    H277862   1.429   0.960  14.058  0.7307  0.3051  0.9534
18791TIP3   OH277863   3.711   3.077   5.616  0.0199 -0.0549 -0.0874
18791TIP3    H177864   3.791   3.042   5.657 -1.0281  0.0343  2.1689
18791TIP3    H277865   3.743   3.134   5.547  1.9171 -0.3369  0.4879
18792TIP3   OH277866   2.960   1.619  14.814 -0.0921 -0.1312  0.3040
18792TIP3    H177867   2.888   1.648  14.870  1.0247  2.1125  0.6983
18792TIP3    H277868   2.923   1.616  14.726 -1.0753 -0.6412  0.7262
18793TIP3   OH277869   4.717   5.839  14.083  0.8070  0.1558 -0.4333
18793TIP3    H177870   4.755   5.904  14.142 -0.5841 -1.3751  2.3896
18793TIP3    H277871   4.731   5.755  14.127 -1.4934 -0.9461 -1.5958
18794TIP3   OH277872   1.342   3.036  10.563 -0.2708 -0.2989 -0.3304
18794TIP3    H177873   1.296   3.068  10.640 -0.7569 -0.0766 -0.7049
18794TIP3    H277874   1.396   2.964  10.595  0.1628  0.3226  0.3619
18795TIP3   OH277875   2.914   1.481   0.765  0.2174  0.4436  0.0195
18795TIP3    H177876   2.822   1.491   0.739 -0.7471 -0.7840  2.5719
18795TIP3    H277877   2.942   1.570   0.788 -0.2877  0.8405 -0.8399
18796TIP3   OH277878   2.361   5.286  16.425 -0.1947 -0.2057 -0.6826
18796TIP3    H177879   2.442   5.252  16.389 -0.5354 -2.2577  0.3498
18796TIP3    H277880   2.388   5.364  16.474  1.5876 -2.0470  1.4823
18797TIP3   OH277881   0.142   4.714   5.659 -0.1401  0.2779 -0.4781
18797TIP3    H177882   0.189   4.637   5.692 -0.1915  0.7639  0.8042
18797TIP3    H277883   0.061   4.716   5.710  0.4007  1.8269  0.3849
18798TIP3   OH277884   2.553   2.141   2.830  0.0686 -0.6163  0.0323
18798TIP3    H177885   2.632   2.188   2.856  0.0384 -1.4679  1.8020
18798TIP3    H277886   2.496   2.146   2.907 -0.2527 -2.8085 -0.0009
18799TIP3   OH277887   0.499   4.681  10.952 -0.0745 -0.8751  0.2451
18799TIP3    H177888   0.495   4.765  10.907  0.4365 -0.5023  0.8721
18799TIP3    H277889   0.506   4.617  10.882 -1.0086 -0.4417 -0.2645
18800TIP3   OH277890   4.431   5.071   2.121  0.0498 -0.9168 -0.0738
18800TIP3    H177891   4.352   5.124   2.134  0.5873 -0.1274  0.0574
18800TIP3    H277892   4.501   5.136   2.110  0.7234 -1.6104  0.0839
18801TIP3   OH277893   1.893   0.780  15.812 -0.4098 -0.4945 -0.8429
18801TIP3    H177894   1.818   0.784  15.872  1.0281 -1.0003  1.1050
18801TIP3    H277895   1.968   0.764  15.869  1.1716 -0.2352 -2.7450
18802TIP3   OH277896   1.688   5.321  15.907 -0.2893  0.2021  0.2244
18802TIP3    H177897   1.758   5.260  15.929  0.6356  1.3797  0.6495
18802TIP3    H277898   1.651   5.347  15.991  0.2229  1.2401  0.1451
18803TIP3   OH277899   0.305   3.296  15.626 -0.2206 -0.0068 -0.2082
18803TIP3    H177900   0.225   3.278  15.577 -0.7286  0.3098  0.4918
18803TIP3    H277901   0.301   3.237  15.701  0.2503 -0.0590 -0.2223
18804TIP3   OH277902   3.000   6.204  15.641  0.2238 -0.1879  0.1357
18804TIP3    H177903   2.958   6.259  15.574 -0.5054 -1.6729 -0.6700
18804TIP3    H277904   2.983   6.250  15.724 -2.2153 -0.2401 -0.2692
18805TIP3   OH277905   0.827   5.842   2.969  0.0440 -0.5390  0.4140
18805TIP3    H177906   0.812   5.934   2.948 -3.4675 -0.5181  2.2201
18805TIP3    H277907   0.879   5.844   3.050  0.0516 -0.1628  0.4014
18806TIP3   OH277908   2.526   3.276  16.090  0.2485  0.1746 -0.1780
18806TIP3    H177909   2.449   3.223  16.068 -0.4709  1.5145 -1.0525
18806TIP3    H277910   2.516   3.355  16.037  1.3464  1.1359  0.9902
18807TIP3   OH277911   6.526   2.956  10.464 -0.5337 -0.8224  0.0520
18807TIP3    H177912   6.539   3.051  10.470 -1.8987 -0.6926  1.9236
18807TIP3    H277913   6.583   2.929  10.392  1.5402  1.0963  0.8303
18808TIP3   OH277914   3.525   2.373  13.708 -0.8345  0.6595 -0.2296
18808TIP3    H177915   3.595   2.429  13.742 -0.1496  1.6830 -3.0160
18808TIP3    H277916   3.471   2.432  13.656 -1.9318 -0.7223 -0.7108
18809TIP3   OH277917   6.377   4.951  11.579  0.4801  0.3291 -0.0013
18809TIP3    H177918   6.369   4.872  11.632 -2.9000  0.9396  0.6034
18809TIP3    H277919   6.330   4.931  11.498  0.7717  1.2921 -0.4253
18810TIP3   OH277920   4.499   0.413   0.106  1.0986  0.1231  0.3109
18810TIP3    H177921   4.511   0.451   0.019  0.2248 -0.6742 -0.1707
18810TIP3    H277922   4.585   0.422   0.148  1.3950  0.9637 -0.4417
18811TIP3   OH277923   6.331   6.314  11.040  0.2623  0.2557  0.4030
18811TIP3    H177924   6.261   6.250  11.023 -0.4430  1.1136 -0.0348
18811TIP3    H277925   6.366   6.289  11.125 -0.9897  0.1521  0.9119
18812TIP3   OH277926   6.349   6.206   2.505 -0.3314 -0.3870 -0.3901
18812TIP3    H177927   6.273   6.164   2.466 -0.6865 -1.2526  1.1335
18812TIP3    H277928   6.424   6.156   2.473 -0.6297 -1.2058  0.1680
18813TIP3   OH277929   2.974   6.780  12.093  0.4228  0.4140 -0.5817
18813TIP3    H177930   2.968   6.685  12.092  0.1609  0.4233 -1.5872
18813TIP3    H277931   2.883   6.810  12.096  0.4279  0.6124 -1.7961
18814TIP3   OH277932   6.705   1.251   1.526  0.2586 -0.0887 -0.1526
18814TIP3    H177933   6.753   1.328   1.558 -0.5371  0.8178 -1.0707
18814TIP3    H277934   6.621   1.254   1.573 -0.1424  0.1526 -0.8621
18815TIP3   OH277935   0.255   3.040  14.614  0.1837 -0.2711 -0.3879
18815TIP3    H177936   0.238   3.056  14.707  0.9065  0.4896 -0.3776
18815TIP3    H277937   0.350   3.027  14.609  0.1011 -0.6743 -0.9761
18816TIP3   OH277938   1.798   1.811  15.964  0.3741 -0.2202 -0.7828
18816TIP3    H177939   1.746   1.880  16.007 -0.3621 -1.2425  0.0020
18816TIP3    H277940   1.812   1.745  16.031  3.3495  0.3006 -0.7378
18817TIP3   OH277941   5.640   3.359   5.823  0.2763 -0.3265 -0.2668
18817TIP3    H177942   5.576   3.391   5.887 -0.6436  0.1126 -1.3768
18817TIP3    H277943   5.721   3.348   5.874 -0.6939 -1.0400  1.1999
18818TIP3   OH277944   0.471   3.404  12.559 -0.0500 -0.8659  0.7585
18818TIP3    H177945   0.417   3.325  12.553 -0.4611 -0.6694  1.7063
18818TIP3    H277946   0.471   3.439  12.470 -1.2229 -1.0490  0.6604
18819TIP3   OH277947   4.569   1.036   3.578 -0.3053  0.5386  0.5398
18819TIP3    H177948   4.644   1.016   3.633 -0.5904 -0.9062  0.4627
18819TIP3    H277949   4.600   1.021   3.489 -0.7052 -0.2127  0.5156
18820TIP3   OH277950   4.692   3.100  14.557 -0.0684  0.4877  0.0081
18820TIP3    H177951   4.674   3.189  14.529  0.8078  0.9749  0.9221
18820TIP3    H277952   4.740   3.110  14.639  1.5613 -0.7965 -0.7388
18821TIP3   OH277953   5.514   3.659   1.061  0.1710 -0.2296  0.0401
18821TIP3    H177954   5.497   3.730   1.123 -4.5440 -1.4480  0.6029
18821TIP3    H277955   5.434   3.655   1.008  2.0952 -2.2970 -2.9909
18822TIP3   OH277956   5.699   0.674   3.062 -0.0077  0.3914  0.1743
18822TIP3    H177957   5.651   0.668   3.145 -1.0899  0.8657 -0.3852
18822TIP3    H277958   5.730   0.764   3.060  1.8640 -0.1963  1.0119
18823TIP3   OH277959   0.190   5.135   0.075 -0.0421  0.9764  0.0779
18823TIP3    H177960   0.261   5.145   0.012 -0.1559 -1.7450 -0.6023
18823TIP3    H277961   0.122   5.087   0.028 -0.1491 -1.1200  2.1534
18824TIP3   OH277962   4.455   0.790  12.403  0.0919  0.6510 -0.7123
18824TIP3    H177963   4.394   0.835  12.461  1.9564  0.8886  1.1831
18824TIP3    H277964   4.481   0.712  12.451  0.3660 -0.0867 -2.0129
18825TIP3   OH277965   6.771   2.821  11.285  0.1941  0.6382  0.1491
18825TIP3    H177966   6.845   2.878  11.306  0.1237  0.7876 -0.0021
18825TIP3    H277967   6.775   2.811  11.190  0.9822 -0.6635  0.2848
18826TIP3   OH277968   3.699   2.053   2.076  0.2743  0.5403 -0.8698
18826TIP3    H177969   3.667   2.053   2.167  1.2516  0.3948 -0.5191
18826TIP3    H277970   3.771   2.116   2.077 -0.1473  1.0534 -1.7155
18827TIP3   OH277971   2.687   0.593   4.427 -0.0448 -0.0920  0.1649
18827TIP3    H177972   2.661   0.637   4.508  3.1849  1.9361  0.2671
18827TIP3    H277973   2.639   0.640   4.358  1.0624  1.6864  0.5480
18828TIP3   OH277974   1.075   5.557   0.342 -0.5400  0.3752 -0.2506
18828TIP3    H177975   1.144   5.523   0.284  0.5888  1.4586  0.4147
18828TIP3    H277976   1.116   5.563   0.428 -0.4890  3.7585 -0.3813
18829TIP3   OH277977   4.424   1.369  14.958 -0.4369  0.0333  0.3680
18829TIP3    H177978   4.485   1.320  15.014 -0.2508  2.0358  2.0496
18829TIP3    H277979   4.351   1.392  15.015  0.3011  3.1669  0.2809
18830TIP3   OH277980   3.218   2.752   4.540  0.2538 -0.6159  0.0071
18830TIP3    H177981   3.286   2.687   4.554 -0.6254 -1.5848 -0.0912
18830TIP3    H277982   3.264   2.827   4.502  1.0120 -1.9288 -1.8380
18831TIP3   OH277983   6.093   5.051  13.936 -0.3714  0.1495  0.6888
18831TIP3    H177984   6.088   5.142  13.967 -0.6052 -0.4089  2.3667
18831TIP3    H277985   6.002   5.022  13.930 -0.6094  1.0133 -3.2463
18832TIP3   OH277986   3.307   5.284   2.027 -0.2742 -0.6312 -0.0114
18832TIP3    H177987   3.351   5.369   2.031 -3.3347  1.4596 -3.5703
18832TIP3    H277988   3.244   5.286   2.099 -0.6211  0.4215 -0.3173
18833TIP3   OH277989   0.611   2.890   0.845  0.5741  0.2898 -0.2172
18833TIP3    H177990   0.676   2.830   0.807  0.7728  0.6916 -0.5185
18833TIP3    H277991   0.615   2.874   0.939 -0.3095 -1.1169 -0.3911
18834TIP3   OH277992   3.876   2.023   1.427 -0.3309  0.4541 -0.4149
18834TIP3    H177993   3.903   1.947   1.477 -0.2017  1.1718  0.6467
18834TIP3    H277994   3.886   2.097   1.488  0.0382  1.3896 -1.5632
18835TIP3   OH277995   4.172   3.502  15.561 -0.7304  0.3371  0.3239
18835TIP3    H177996   4.133   3.415  15.554  1.2817 -0.6275  0.3015
18835TIP3    H277997   4.177   3.519  15.655  2.4945 -1.4276  0.6153
18836TIP3   OH277998   1.260   0.564  12.181 -0.0373  0.1854 -0.4804
18836TIP3    H177999   1.167   0.582  12.167 -0.2396 -0.4269  0.0294
18836TIP3    H278000   1.268   0.469  12.172  0.0055 -0.1705  2.2379
18837TIP3   OH278001   1.928   2.364  14.743 -0.2533 -0.2270  0.0859
18837TIP3    H178002   1.904   2.320  14.824 -1.8152 -0.7649 -0.6313
18837TIP3    H278003   1.849   2.359  14.689  0.2449  1.4981 -0.8701
18838TIP3   OH278004   5.591   2.960  17.014 -0.0947 -0.1395  0.5029
18838TIP3    H178005   5.682   2.942  17.039  0.1942  2.2770  1.3626
18838TIP3    H278006   5.549   2.991  17.094 -0.9316  1.4226 -0.5004
18839TIP3   OH278007   0.457   6.167   3.766 -0.4949 -0.1797  0.4172
18839TIP3    H178008   0.505   6.178   3.684 -0.0285  0.3011  0.7518
18839TIP3    H278009   0.512   6.110   3.819 -0.9272 -0.7220  0.3019
18840TIP3   OH278010   4.083   4.249  12.031  0.0895  0.2093  0.0446
18840TIP3    H178011   4.049   4.332  11.999  0.8682  0.0764 -1.2169
18840TIP3    H278012   4.070   4.252  12.126 -0.6571  1.4031 -0.0778
18841TIP3   OH278013   4.938   0.029  13.787 -0.5931  0.0237  0.1052
18841TIP3    H178014   5.033   0.011  13.783 -0.3169  1.5449 -0.9652
18841TIP3    H278015   4.903  -0.043  13.840  1.0890 -0.8478  0.1241
18842TIP3   OH278016   6.375   1.096  14.257  0.2004  0.2725 -0.2328
18842TIP3    H178017   6.358   1.184  14.222 -0.7153 -0.3404 -1.3992
18842TIP3    H278018   6.311   1.086  14.328  0.1696  0.4788 -0.2307
18843TIP3   OH278019   4.597   4.661   0.457  0.6243 -0.1263 -0.6948
18843TIP3    H178020   4.578   4.736   0.512  1.7834  0.7119 -1.3982
18843TIP3    H278021   4.519   4.649   0.403 -0.0351 -0.2009  0.2636
18844TIP3   OH278022   6.619   6.119   5.243 -0.7070 -0.3399 -0.8200
18844TIP3    H178023   6.564   6.156   5.174 -0.1638  0.2875 -0.9319
18844TIP3    H278024   6.686   6.069   5.196 -0.5363 -0.1913 -0.7382
18845TIP3   OH278025   2.037   1.207  14.566  0.1503  0.2243 -0.5983
18845TIP3    H178026   2.002   1.155  14.494  0.0019 -0.1106 -0.2935
18845TIP3    H278027   2.079   1.282  14.524  1.2756 -0.6619 -1.1292
18846TIP3   OH278028   1.109   5.419   4.703 -0.2181  0.2941 -0.2093
18846TIP3    H178029   1.204   5.429   4.695 -0.2176  1.2123  0.6836
18846TIP3    H278030   1.084   5.361   4.631  1.0684 -0.2566 -0.2386
18847TIP3   OH278031   1.168   1.263   1.937  0.5727 -0.0829  0.2293
18847TIP3    H178032   1.121   1.281   1.855  0.3881  0.2361  0.4001
18847TIP3    H278033   1.194   1.171   1.930 -0.1313 -0.2852  0.1511
18848TIP3   OH278034   1.953   0.638  16.176 -0.2208  0.2609  0.3687
18848TIP3    H178035   2.037   0.673  16.207  0.2108 -2.5779  2.8529
18848TIP3    H278036   1.968   0.618  16.084  1.1793  1.6169  0.2674
18849TIP3   OH278037   0.506   4.590  16.790  0.0454  0.1977 -0.0231
18849TIP3    H178038   0.500   4.606  16.696  0.4521  2.1441  0.2401
18849TIP3    H278039   0.532   4.675  16.827 -0.0452 -0.5465  1.8376
18850TIP3   OH278040   4.919   4.623   1.935 -0.4495 -0.7976 -0.1888
18850TIP3    H178041   4.958   4.588   2.015 -1.0046 -2.6070 -0.6653
18850TIP3    H278042   4.876   4.548   1.895 -3.1126  0.7521 -0.4749
18851TIP3   OH278043   0.235   4.398  15.446  0.0202 -0.3044 -0.0465
18851TIP3    H178044   0.271   4.393  15.357 -0.0350  0.8172 -0.1554
18851TIP3    H278045   0.182   4.478  15.445  2.5780  1.6199  1.8692
18852TIP3   OH278046   3.140   2.352  12.911  0.2001 -0.7569 -0.1374
18852TIP3    H178047   3.130   2.288  12.841  2.4761 -0.7240 -0.5746
18852TIP3    H278048   3.234   2.351  12.932  0.7392  3.5148 -1.3092
18853TIP3   OH278049   3.976   5.816  11.887  0.3606  0.0390  0.4440
18853TIP3    H178050   4.002   5.883  11.951  0.9227 -0.6534  0.9563
18853TIP3    H278051   4.056   5.798  11.838 -0.3167  1.3815 -1.2616
18854TIP3   OH278052   4.580   3.989  16.255 -0.1801 -0.2265  0.3047
18854TIP3    H178053   4.619   3.908  16.288 -0.8794  0.1918  2.3142
18854TIP3    H278054   4.525   3.960  16.181  1.9316 -1.1196 -1.0013
18855TIP3   OH278055   2.632   1.190  14.412 -0.3788  0.6108 -0.0143
18855TIP3    H178056   2.561   1.147  14.365  1.4391 -1.6545 -0.9180
18855TIP3    H278057   2.710   1.138  14.390  1.1900  1.5939  2.6964
18856TIP3   OH278058   4.904   4.633   5.336 -0.5828  0.2796  0.2167
18856TIP3    H178059   4.908   4.596   5.247  0.1262 -0.1361  0.4090
18856TIP3    H278060   4.836   4.582   5.380  0.1790 -0.6287  0.3859
18857TIP3   OH278061   4.142   6.487   0.484  0.3490  0.6616  0.0740
18857TIP3    H178062   4.160   6.557   0.546  0.4282 -0.8767  1.8788
18857TIP3    H278063   4.136   6.408   0.538 -0.4746 -0.6221 -1.7837
18858TIP3   OH278064   1.822   3.970   3.806 -0.1296  0.3878 -0.0993
18858TIP3    H178065   1.831   4.032   3.878  0.9271  1.1143 -0.8400
18858TIP3    H278066   1.775   3.896   3.845 -0.2649  1.0921  1.1307
18859TIP3   OH278067   1.684   6.264   2.770  0.1074  0.1530 -0.3030
18859TIP3    H178068   1.741   6.188   2.775 -2.2178 -1.6822  0.5412
18859TIP3    H278069   1.648   6.262   2.682 -0.4649 -0.1648 -0.0707
18860TIP3   OH278070   1.531   4.599   4.629 -0.6133  0.2975  0.0142
18860TIP3    H178071   1.553   4.652   4.552  0.2981  0.8672  0.6511
18860TIP3    H278072   1.549   4.656   4.703 -0.5977 -0.5665  0.6891
18861TIP3   OH278073   4.661   0.713   5.355  0.1079  0.2268  0.2101
18861TIP3    H178074   4.682   0.779   5.290 -0.9255  1.0026  0.6446
18861TIP3    H278075   4.630   0.762   5.431  3.2331 -0.5113  2.1203
18862TIP3   OH278076   5.467   3.377  15.951 -0.1791 -0.0542  0.0976
18862TIP3    H178077   5.470   3.302  16.011  1.5392  0.2387  0.4418
18862TIP3    H278078   5.533   3.437  15.985  0.8039  0.1685 -2.0194
18863TIP3   OH278079   6.150   1.144  12.203 -0.2075  0.1510  0.3285
18863TIP3    H178080   6.100   1.102  12.273 -0.2344 -1.5798 -0.6713
18863TIP3    H278081   6.160   1.234  12.232 -3.6192  0.5362  0.7663
18864TIP3   OH278082   1.788   2.762  12.793 -1.0615  0.6405  0.1651
18864TIP3    H178083   1.711   2.745  12.740 -0.2718 -0.6244 -0.6206
18864TIP3    H278084   1.819   2.848  12.765 -0.6650  0.0022 -1.4455
18865TIP3   OH278085   4.936   5.879  12.853 -0.1696 -0.2397 -0.0240
18865TIP3    H178086   4.883   5.945  12.898  2.2825  0.7620  1.5438
18865TIP3    H278087   4.937   5.804  12.912  2.9593  1.0358  1.7237
18866TIP3   OH278088   2.296   0.098   4.678  0.1519  0.1424 -0.2510
18866TIP3    H178089   2.384   0.060   4.674  0.3975  0.6432  0.1439
18866TIP3    H278090   2.237   0.025   4.662  0.6574 -0.0918 -1.0949
18867TIP3   OH278091   3.938   4.231  16.589  0.3303 -0.2929 -0.1602
18867TIP3    H178092   3.885   4.165  16.544 -1.0376 -0.1769  1.1825
18867TIP3    H278093   3.925   4.213  16.682  2.3559  0.0287  0.2198
18868TIP3   OH278094   2.116   4.428   2.279  0.1655 -0.0995  0.1480
18868TIP3    H178095   2.089   4.346   2.320 -0.0966  1.0673  2.4985
18868TIP3    H278096   2.036   4.481   2.278  0.6776  0.6852  0.1345
18869TIP3   OH278097   4.984   0.585  16.411 -0.0142 -0.7910 -0.0273
18869TIP3    H178098   4.990   0.510  16.352  0.0842 -0.0252 -1.0225
18869TIP3    H278099   4.946   0.654  16.358 -2.3041 -0.7759  1.5114
18870TIP3   OH278100   2.011   1.952   5.192  0.1856  0.1290  0.2637
18870TIP3    H178101   1.972   2.036   5.164  1.1625  1.1685  1.8559
18870TIP3    H278102   1.963   1.930   5.272  1.2552  0.2175  0.9476
18871TIP3   OH278103   0.517   0.081   0.567 -0.3970 -0.2147  0.4988
18871TIP3    H178104   0.458   0.146   0.604  0.7065  2.2453 -1.6881
18871TIP3    H278105   0.516   0.100   0.473  0.7977 -2.7355 -0.0965
18872TIP3   OH278106   6.750   2.315   1.947 -0.4974  0.1920 -0.2111
18872TIP3    H178107   6.685   2.385   1.947  0.7016  1.3481  0.3941
18872TIP3    H278108   6.812   2.340   1.879 -0.5647 -0.8061 -0.6544
18873TIP3   OH278109   5.083   4.396  12.648  0.5874 -0.2780  0.3892
18873TIP3    H178110   5.103   4.481  12.609  0.0605 -1.1355 -1.9077
18873TIP3    H278111   4.992   4.405  12.678  1.1096  0.4997  1.8769
18874TIP3   OH278112   2.748   3.369  13.131 -0.1131  0.4950  0.3279
18874TIP3    H178113   2.782   3.368  13.221 -0.2654 -0.8349  0.3893
18874TIP3    H278114   2.683   3.299  13.130 -0.7578  1.0978 -0.5870
18875TIP3   OH278115   6.661   0.273   1.100 -0.7533 -0.2800  0.2403
18875TIP3    H178116   6.694   0.280   1.189 -0.0542 -2.7174  0.2474
18875TIP3    H278117   6.717   0.332   1.049 -0.5533  0.4192  1.2506
18876TIP3   OH278118   3.240   0.235   3.694  0.3543 -0.3917  0.0167
18876TIP3    H178119   3.180   0.176   3.741 -0.7217 -0.2738 -1.1353
18876TIP3    H278120   3.224   0.215   3.602 -0.5235  2.1094 -0.4461
18877TIP3   OH278121   0.784   0.362   5.419 -0.0431  0.1797  0.3493
18877TIP3    H178122   0.827   0.311   5.487 -1.6300  0.4670  1.6420
18877TIP3    H278123   0.831   0.341   5.338  2.6995  0.7964  1.6980
18878TIP3   OH278124   2.667   4.663   1.103 -0.6261  0.4064 -0.2219
18878TIP3    H178125   2.720   4.689   1.027 -0.1903 -0.4537 -0.2341
18878TIP3    H278126   2.656   4.568   1.092 -1.9088  0.5187 -0.0409
18879TIP3   OH278127   2.016   5.295   1.996 -0.3625 -0.1286 -0.1633
18879TIP3    H178128   1.964   5.269   2.072 -1.5894  0.3908 -0.7933
18879TIP3    H278129   1.955   5.290   1.922  0.2909  1.1871 -0.8228
18880TIP3   OH278130   4.376   1.853  14.011 -0.5801  0.5911  0.1204
18880TIP3    H178131   4.450   1.912  14.024 -1.6180  2.3293 -1.3906
18880TIP3    H278132   4.305   1.890  14.064 -0.7621 -0.3418  0.5625
18881TIP3   OH278133   3.582   3.620   3.963  0.3998 -0.0333  0.4034
18881TIP3    H178134   3.639   3.693   3.988  2.4622 -2.0296  1.9030
18881TIP3    H278135   3.493   3.655   3.971  1.3099  2.7320 -0.4559
18882TIP3   OH278136   5.920   5.049  11.814  0.3054 -0.4476  0.3876
18882TIP3    H178137   5.989   5.115  11.819 -0.4658  0.4557 -0.3028
18882TIP3    H278138   5.839   5.099  11.826 -0.3468 -1.1484 -0.8817
18883TIP3   OH278139   4.394   3.274  12.441 -0.4158 -0.3958 -0.1890
18883TIP3    H178140   4.396   3.346  12.378 -0.3817  0.4196  0.7325
18883TIP3    H278141   4.456   3.209  12.405 -0.9262 -0.2602 -1.3501
18884TIP3   OH278142   2.465   1.027  15.969  0.4268  0.2422  0.1128
18884TIP3    H178143   2.482   0.941  16.007  0.4273 -0.2758 -1.0371
18884TIP3    H278144   2.406   1.010  15.896  0.8614  1.1536 -0.4598
18885TIP3   OH278145   5.536   0.298   0.183  0.4663 -0.7169  0.3604
18885TIP3    H178146   5.476   0.245   0.130  0.0274 -0.5512  0.6828
18885TIP3    H278147   5.610   0.240   0.201  0.5243 -0.8389 -0.2582
18886TIP3   OH278148   4.104   0.198   0.764 -0.4140  0.1633 -0.6578
18886TIP3    H178149   4.167   0.249   0.714  2.1974 -1.1005  1.0921
18886TIP3    H278150   4.107   0.111   0.724 -1.7735  0.3091 -1.1108
18887TIP3   OH278151   0.383   3.217  15.326  0.0522  0.4340 -0.0484
18887TIP3    H178152   0.397   3.159  15.252 -1.9854 -0.8777  0.5147
18887TIP3    H278153   0.369   3.303  15.287  0.7437  0.1118 -1.0510
18888TIP3   OH278154   4.374   3.715  17.069  0.3227  0.6519  0.8743
18888TIP3    H178155   4.324   3.646  17.113 -0.7230  0.4215 -0.6110
18888TIP3    H278156   4.331   3.797  17.096 -1.1555  0.4353 -0.6774
18889TIP3   OH278157   0.032   2.847  12.188  0.0879 -0.2579 -0.3680
18889TIP3    H178158  -0.036   2.813  12.130  0.1856  0.6226 -1.0236
18889TIP3    H278159  -0.016   2.890  12.259 -0.0320 -0.5155 -0.2902
18890TIP3   OH278160   6.297   3.246  14.384 -0.6813 -0.1717  0.5470
18890TIP3    H178161   6.363   3.178  14.373  0.2628  0.4164  2.1470
18890TIP3    H278162   6.302   3.298  14.305  1.0320  0.0460  0.7649
18891TIP3   OH278163   0.147   0.904  11.825 -0.6556 -0.4178  0.0033
18891TIP3    H178164   0.110   0.902  11.913 -0.7361  0.2189 -0.0111
18891TIP3    H278165   0.104   0.833  11.779 -3.3764  1.4892 -0.6101
18892TIP3   OH278166   3.762   2.792   4.049  0.3968  0.1670  0.5162
18892TIP3    H178167   3.776   2.877   4.006 -0.3497  1.0125  1.8858
18892TIP3    H278168   3.678   2.762   4.014  1.6772 -1.1111 -1.6509
18893TIP3   OH278169   0.531   2.065   1.003 -0.1400 -0.1796 -0.2063
18893TIP3    H178170   0.580   2.145   0.981 -0.7918  0.1828 -0.3708
18893TIP3    H278171   0.508   2.077   1.096  1.0795 -0.8934  0.2140
18894TIP3   OH278172   3.946   6.722   3.046 -0.0899 -0.1222  0.4112
18894TIP3    H178173   4.013   6.720   3.115  0.8797  1.2035 -0.4276
18894TIP3    H278174   3.995   6.707   2.965 -0.5253  2.2410 -0.3768
18895TIP3   OH278175   5.606   4.603  10.800 -0.2535  0.0632 -0.2723
18895TIP3    H178176   5.606   4.646  10.886  0.1094  0.7449 -0.6118
18895TIP3    H278177   5.522   4.557  10.797  0.0618 -0.6389  0.7746
18896TIP3   OH278178   5.424   2.345   1.920  0.2115  0.4079 -0.1969
18896TIP3    H178179   5.371   2.383   1.990 -0.2388 -0.3186 -0.1336
18896TIP3    H278180   5.514   2.372   1.941  0.1604 -0.3033  1.0124
18897TIP3   OH278181   3.942   0.786  13.031 -0.2058 -0.2522  0.0859
18897TIP3    H178182   3.941   0.691  13.035  0.1396 -0.3272 -1.2537
18897TIP3    H278183   4.024   0.808  12.988  0.0899  0.6992  1.0694
18898TIP3   OH278184   3.378   4.276  14.006  0.1368  0.2714  0.0108
18898TIP3    H178185   3.287   4.298  13.987 -0.0146 -0.2553  0.1166
18898TIP3    H278186   3.387   4.288  14.101 -0.1967 -0.9762  0.2218
18899TIP3   OH278187   6.818   1.236  13.901  0.1304 -0.2731 -0.3169
18899TIP3    H178188   6.772   1.311  13.939  0.3877 -0.1223 -0.2991
18899TIP3    H278189   6.905   1.270  13.879 -0.2342 -0.1635 -1.6891
18900TIP3   OH278190   2.418   5.318  14.015  0.1297 -0.2316 -0.3197
18900TIP3    H178191   2.459   5.291  14.097 -2.8556 -0.9977  1.0864
18900TIP3    H278192   2.386   5.236  13.976  0.2404  0.2693 -1.5016
18901TIP3   OH278193   1.572   2.662   3.056 -0.5569 -0.0339  0.0580
18901TIP3    H178194   1.509   2.606   3.010 -1.0832  1.1797 -0.7489
18901TIP3    H278195   1.566   2.747   3.011 -0.3733  0.9217  1.7401
18902TIP3   OH278196   3.981   1.633  16.643 -0.3759 -0.2803 -0.2682
18902TIP3    H178197   4.041   1.706  16.659 -0.6598  0.7740 -3.4446
18902TIP3    H278198   4.037   1.555  16.647  0.3046  0.2409  1.1352
18903TIP3   OH278199   3.866   2.982   1.550  0.2363 -0.3191 -0.1203
18903TIP3    H178200   3.836   2.943   1.467 -0.1440  0.1605 -0.2137
18903TIP3    H278201   3.927   3.051   1.523 -2.4442  2.2020 -0.2472
18904TIP3   OH278202   4.955   1.050  15.366 -0.0436 -0.0140 -0.0411
18904TIP3    H178203   4.859   1.056  15.374 -0.0295  1.0726 -0.6194
18904TIP3    H278204   4.989   1.108  15.434  0.2270 -0.9506  0.6403
18905TIP3   OH278205   0.437   6.755   2.694  0.1773  0.0759 -0.4325
18905TIP3    H178206   0.511   6.813   2.675  0.7516  0.6514  2.8434
18905TIP3    H278207   0.362   6.813   2.706  0.7308  0.3532  2.7534
18906TIP3   OH278208   2.968   3.473  11.150  0.0657  0.1471  0.0013
18906TIP3    H178209   3.016   3.501  11.072  0.5634  2.4105  1.0501
18906TIP3    H278210   2.876   3.478  11.124  0.2067  1.3402 -0.3292
18907TIP3   OH278211   3.067   0.783  10.392  0.4028  0.1788  0.2448
18907TIP3    H178212   3.005   0.820  10.455  1.1920  0.8704  0.6338
18907TIP3    H278213   3.063   0.689  10.408 -0.8798  0.1661 -0.0565
18908TIP3   OH278214   5.880   1.618   0.599 -0.1827 -0.2254  0.1435
18908TIP3    H178215   5.974   1.629   0.587  0.0237 -0.7931  1.1241
18908TIP3    H278216   5.845   1.707   0.598  0.2284 -0.0565 -1.1643
18909TIP3   OH278217   3.583   3.202  11.436 -0.0184  0.5659 -0.6035
18909TIP3    H178218   3.622   3.115  11.424 -1.0135 -0.3536  2.0180
18909TIP3    H278219   3.657   3.262  11.439  0.8213 -0.4430 -0.6870
18910TIP3   OH278220   3.979   5.551  11.399 -0.2528  0.2815 -0.4429
18910TIP3    H178221   4.057   5.556  11.455 -0.2308  3.3732 -0.5475
18910TIP3    H278222   3.907   5.578  11.456 -1.3860 -2.7729 -0.2802
18911TIP3   OH278223   6.311   0.504   0.063  0.5274  0.6929  0.3899
18911TIP3    H178224   6.239   0.443   0.076  2.0763 -1.5271 -0.7795
18911TIP3    H278225   6.278   0.588   0.095 -2.3531 -0.3323  0.3624
18912TIP3   OH278226   0.476   6.536  16.242  0.3593  0.1915  0.0031
18912TIP3    H178227   0.422   6.482  16.184 -0.7188  0.6134  0.5909
18912TIP3    H278228   0.485   6.619  16.195 -1.2926  0.8594  0.8191
18913TIP3   OH278229   1.795   0.225  16.497 -0.3452 -0.0025  0.8969
18913TIP3    H178230   1.803   0.193  16.407  1.1287  0.0798  0.9734
18913TIP3    H278231   1.827   0.315  16.494 -1.0339  0.2657  1.3632
18914TIP3   OH278232   1.255   1.900   3.991 -0.4425 -0.2451 -0.1227
18914TIP3    H178233   1.320   1.849   4.039 -0.0179 -1.1081 -1.5680
18914TIP3    H278234   1.200   1.940   4.060  1.3971  0.2724  1.1106
18915TIP3   OH278235   5.677   0.715  16.157  0.5898 -0.0304 -0.5263
18915TIP3    H178236   5.584   0.734  16.148  0.5580  0.0419 -0.0789
18915TIP3    H278237   5.691   0.639  16.101 -0.4397 -2.1095  1.8305
18916TIP3   OH278238   1.211   6.308  10.787 -0.2920  0.4495  0.7029
18916TIP3    H178239   1.258   6.241  10.836  1.0321 -0.6733 -1.9202
18916TIP3    H278240   1.260   6.389  10.803 -0.8931  0.4952  2.5117
18917TIP3   OH278241   6.598   0.638  12.278 -0.2168  0.5726 -0.1419
18917TIP3    H178242   6.530   0.611  12.216 -0.0935  2.0873 -0.9637
18917TIP3    H278243   6.561   0.714  12.323  1.0564  1.6608 -0.8760
18918TIP3   OH278244   2.640   1.651   2.695  0.1291  0.0908  0.3657
18918TIP3    H178245   2.576   1.718   2.670 -0.8716 -1.2359 -0.7961
18918TIP3    H278246   2.588   1.572   2.709  1.4980 -1.0838 -0.7852
18919TIP3   OH278247   4.674   5.526   0.187 -0.4795 -0.0176 -0.2657
18919TIP3    H178248   4.702   5.605   0.233 -1.7476  1.0542 -1.2529
18919TIP3    H278249   4.687   5.456   0.251  2.7386  0.5860 -0.0815
18920TIP3   OH278250   0.603   0.749   4.260 -0.5680 -0.5918 -0.4945
18920TIP3    H178251   0.694   0.727   4.278 -0.2088 -0.5227 -2.0833
18920TIP3    H278252   0.574   0.798   4.337  1.0913  0.3584 -0.4328
18921TIP3   OH278253   5.884   1.647   4.530  0.1453 -0.6344  0.6577
18921TIP3    H178254   5.838   1.668   4.448 -0.8256 -0.7652  1.1543
18921TIP3    H278255   5.860   1.556   4.548  0.8991 -0.8219  0.7445
18922TIP3   OH278256   0.055   5.112  11.529 -0.5429 -0.3833 -0.1161
18922TIP3    H178257   0.123   5.126  11.463 -1.0384  0.2572 -0.5069
18922TIP3    H278258   0.000   5.043  11.493 -2.3550  1.7097 -1.6880
18923TIP3   OH278259   6.106   1.527  15.221 -0.5065 -0.4101 -0.4838
18923TIP3    H178260   6.033   1.588  15.227 -0.1286 -0.0425  0.5248
18923TIP3    H278261   6.160   1.561  15.150 -1.8375 -1.2789 -1.9692
18924TIP3   OH278262   1.416   4.385   4.932  0.2498 -0.4950  0.5007
18924TIP3    H178263   1.328   4.420   4.949  1.0569  1.7064  0.4716
18924TIP3    H278264   1.400   4.307   4.879 -1.6712  0.7120 -0.8643
18925TIP3   OH278265   6.641   6.696  14.578 -0.8133  0.0413  0.5000
18925TIP3    H178266   6.647   6.606  14.611 -0.7961  0.4749  1.7260
18925TIP3    H278267   6.724   6.710  14.533  0.3451  0.3019  2.6062
18926TIP3   OH278268   2.449   4.255  15.055 -0.2029 -0.4214  1.1806
18926TIP3    H178269   2.408   4.184  15.103  0.7834 -1.1138  1.0424
18926TIP3    H278270   2.498   4.211  14.985 -1.9627  0.5638 -0.7850
18927TIP3   OH278271   6.759   1.871  15.791 -0.0483  0.1957 -0.5522
18927TIP3    H178272   6.695   1.824  15.737 -0.8363 -1.5470  1.7735
18927TIP3    H278273   6.713   1.891  15.872  1.0911  2.7988 -0.4435
18928TIP3   OH278274   4.151   5.660   3.333  0.2970  0.0458 -0.6169
18928TIP3    H178275   4.170   5.569   3.310  2.2777  0.6521 -1.5768
18928TIP3    H278276   4.093   5.690   3.264  0.0744 -0.3321 -0.5968
18929TIP3   OH278277   4.051   2.585   4.227  0.1753 -0.2233  0.7529
18929TIP3    H178278   4.121   2.563   4.165  0.0121 -0.1409  0.5381
18929TIP3    H278279   4.073   2.672   4.258 -1.3404  1.0605 -1.4864
18930TIP3   OH278280   2.813   0.996  15.476 -0.4814  0.0134  0.4237
18930TIP3    H178281   2.908   0.988  15.474 -0.5986 -1.5153 -0.4013
18930TIP3    H278282   2.792   1.061  15.409 -0.2252 -2.8546 -2.6753
18931TIP3   OH278283   5.867   2.172  14.276 -0.0143 -0.3289  0.7324
18931TIP3    H178284   5.839   2.260  14.301  1.3702  0.1769  0.5449
18931TIP3    H278285   5.929   2.146  14.344  2.3238  0.2914 -1.0748
18932TIP3   OH278286   3.504   3.262  16.525 -0.4525 -0.0511 -0.3454
18932TIP3    H178287   3.436   3.214  16.572  1.7085 -1.6492  1.3480
18932TIP3    H278288   3.505   3.223  16.438 -0.3364 -1.4912  0.2718
18933TIP3   OH278289   1.616   2.416  11.419 -0.3549  0.2291  0.2254
18933TIP3    H178290   1.599   2.322  11.417  0.2068  0.1248 -0.0336
18933TIP3    H278291   1.690   2.428  11.359 -2.0540  1.1955 -1.8054
18934TIP3   OH278292   3.012   5.265   1.514 -0.1494 -0.0806 -0.1552
18934TIP3    H178293   2.963   5.218   1.581  0.1315  0.0694  0.1608
18934TIP3    H278294   3.099   5.278   1.552  0.2255 -0.5885 -0.8200
18935TIP3   OH278295   4.188   1.941  14.213 -0.2904 -0.3362 -0.0228
18935TIP3    H178296   4.098   1.911  14.200 -1.7628  2.9161  1.4386
18935TIP3    H278297   4.211   1.908  14.300  0.3394 -1.9472 -0.7725
18936TIP3   OH278298   3.224   5.693   2.407 -0.0477  0.0382  0.2316
18936TIP3    H178299   3.145   5.737   2.375  0.0267  1.7707  2.2227
18936TIP3    H278300   3.192   5.608   2.439 -0.8521  0.1420 -0.2562
18937TIP3   OH278301   5.962   0.348   1.989 -0.2134 -1.0764  0.1810
18937TIP3    H178302   5.881   0.328   1.942  0.8160 -0.3592 -2.0224
18937TIP3    H278303   5.995   0.263   2.017 -0.4960 -1.6250 -1.0756
18938TIP3   OH278304   0.560   0.400  16.151 -0.1044 -0.4471  0.0314
18938TIP3    H178305   0.544   0.491  16.126  1.6534 -0.3651 -0.9564
18938TIP3    H278306   0.508   0.388  16.231 -1.8566  0.8418 -0.8350
18939TIP3   OH278307   3.686   6.577  16.379 -0.3267  0.5007 -0.1518
18939TIP3    H178308   3.599   6.579  16.341 -0.5462 -2.3327 -0.0001
18939TIP3    H278309   3.745   6.565  16.304 -0.3796 -0.6453 -0.0355
18940TIP3   OH278310   2.731   0.494  14.737  0.0664 -0.0123  0.1835
18940TIP3    H178311   2.715   0.403  14.711 -0.4770 -0.4127  1.7537
18940TIP3    H278312   2.656   0.515  14.794 -0.2670  1.7163 -0.8264
18941TIP3   OH278313   5.318   2.928   3.245  0.0989  0.4854  0.0073
18941TIP3    H178314   5.411   2.933   3.222  0.0701  2.6624  0.1580
18941TIP3    H278315   5.316   2.951   3.338 -0.5391 -0.1540  0.1548
18942TIP3   OH278316   6.281   6.810   3.587  0.1453  0.1871 -0.3985
18942TIP3    H178317   6.232   6.752   3.528 -0.5433 -0.8714  1.1396
18942TIP3    H278318   6.218   6.876   3.614 -0.0259 -0.2900  0.4025
18943TIP3   OH278319   4.502   1.806  14.963 -0.4133  0.4785 -0.0820
18943TIP3    H178320   4.421   1.855  14.974  0.3278  1.8602 -0.5835
18943TIP3    H278321   4.566   1.871  14.935  0.7033 -0.7115 -0.3919
18944TIP3   OH278322   6.223   1.526   4.977  0.1570 -0.1864  0.6778
18944TIP3    H178323   6.304   1.524   4.926  0.3643 -1.2033  1.0323
18944TIP3    H278324   6.158   1.564   4.917  1.1112  1.6860  0.7464
18945TIP3   OH278325   4.957   5.719  13.079  0.5749 -0.3178 -0.5617
18945TIP3    H178326   5.038   5.762  13.107  1.1173 -1.9234  0.5038
18945TIP3    H278327   4.984   5.629  13.057 -0.7723 -0.6295 -1.0474
18946TIP3   OH278328   2.009   2.362  11.292  0.4248  0.2315 -0.0179
18946TIP3    H178329   1.933   2.305  11.303  0.1315  0.6580  0.2096
18946TIP3    H278330   2.048   2.367  11.379  0.6386  0.1191 -0.1063
18947TIP3   OH278331   4.617   5.104  13.704  0.5510  0.3181 -0.4465
18947TIP3    H178332   4.541   5.123  13.759  1.4707 -2.8770  2.2499
18947TIP3    H278333   4.580   5.076  13.620 -1.3288 -1.2381  0.8155
18948TIP3   OH278334   3.388   1.674   0.737 -0.3365 -0.6578 -0.2426
18948TIP3    H178335   3.306   1.722   0.752 -0.2817 -0.8916  0.8903
18948TIP3    H278336   3.362   1.598   0.685 -1.0443 -1.3259  1.0533
18949TIP3   OH278337   3.047   6.034  13.005  0.2586  0.4208  0.6304
18949TIP3    H178338   3.024   6.112  12.955 -0.2555  0.3692  0.7821
18949TIP3    H278339   3.062   5.966  12.938  0.0465  0.4744  0.5291
18950TIP3   OH278340   0.125   1.618  12.721  0.3612 -0.1047 -0.5822
18950TIP3    H178341   0.183   1.609  12.796  0.2356  0.2383 -0.4411
18950TIP3    H278342   0.054   1.674  12.753  0.6346  0.5736 -1.1377
18951TIP3   OH278343   1.994   4.682  12.910  0.1884 -0.0481  0.0558
18951TIP3    H178344   2.079   4.726  12.913 -0.4038  1.0956  1.5014
18951TIP3    H278345   1.936   4.747  12.871 -0.3579 -0.1783  0.6463
18952TIP3   OH278346   6.509   6.230   3.333 -0.1940  0.2008 -0.0035
18952TIP3    H178347   6.556   6.272   3.261 -0.9610 -0.9234 -1.2264
18952TIP3    H278348   6.431   6.193   3.291 -0.3495 -1.0320  1.3006
18953TIP3   OH278349   3.078   4.058   0.005  0.2703 -0.0465 -0.2319
18953TIP3    H178350   3.127   4.135  -0.024 -0.0473  0.8168  1.3888
18953TIP3    H278351   2.988   4.088   0.015  0.1685 -0.5653  0.5570
18954TIP3   OH278352   0.811   0.973   4.085  0.3262 -0.5789  0.5159
18954TIP3    H178353   0.846   0.949   4.170  0.6753  0.3635  0.6499
18954TIP3    H278354   0.888   0.992   4.031  0.0904  2.1437  1.0065
18955TIP3   OH278355   5.564   0.956  16.863  0.4251 -0.4181 -0.4099
18955TIP3    H178356   5.626   0.978  16.793  0.9074  0.2547  0.2210
18955TIP3    H278357   5.549   1.038  16.910  0.9013 -1.0603  0.9036
18956TIP3   OH278358   0.463   2.174   5.269  0.7129 -0.3571  0.7658
18956TIP3    H178359   0.501   2.262   5.263 -2.0476  0.8425 -0.8846
18956TIP3    H278360   0.460   2.155   5.363  1.4173  1.2607  1.1504
18957TIP3   OH278361   5.842   6.158   2.325 -0.1832 -0.7110 -0.2960
18957TIP3    H178362   5.884   6.078   2.293 -0.1138 -1.3867  1.3834
18957TIP3    H278363   5.777   6.128   2.388 -1.2456  0.4970 -0.7566
18958TIP3   OH278364   4.019   0.754  11.850 -0.4176 -0.2727 -0.2788
18958TIP3    H178365   3.993   0.665  11.872 -1.6010 -0.4500 -2.1413
18958TIP3    H278366   4.084   0.744  11.781  1.0156  0.3034  0.9251
18959TIP3   OH278367   4.817   4.218   1.672  0.0342 -0.3217  0.3687
18959TIP3    H178368   4.745   4.155   1.669  0.2201 -0.4940 -0.5889
18959TIP3    H278369   4.812   4.255   1.761 -0.8723 -0.7439  0.5065
18960TIP3   OH278370   2.512   2.261  11.696  0.1866  0.2283 -0.3553
18960TIP3    H178371   2.576   2.255  11.766  0.8439  3.0776 -0.5571
18960TIP3    H278372   2.433   2.219  11.730  1.1087 -0.2193  1.2869
18961TIP3   OH278373   5.981   0.753  11.209 -1.0314  0.0551  0.4460
18961TIP3    H178374   6.063   0.706  11.190 -1.5286 -0.3812 -0.7570
18961TIP3    H278375   5.913   0.696  11.174 -1.6225  2.0008 -1.8267
18962TIP3   OH278376   2.486   4.458   2.793  0.3399  0.1630  0.4827
18962TIP3    H178377   2.530   4.460   2.878  0.3196 -0.3336  0.5045
18962TIP3    H278378   2.440   4.374   2.791  0.3333  0.1744 -0.0145
18963TIP3   OH278379   6.135   2.081   4.958  0.1336 -0.6471  0.5202
18963TIP3    H178380   6.086   2.159   4.986 -0.7567 -0.4883 -1.3672
18963TIP3    H278381   6.075   2.008   4.974  0.1531 -0.7092  0.3095
18964TIP3   OH278382   3.626   5.563  11.468 -0.1799 -0.0507 -0.1753
18964TIP3    H178383   3.672   5.570  11.384  0.7773 -1.6748  0.1669
18964TIP3    H278384   3.684   5.605  11.530 -1.7177  2.8491 -0.5106
18965TIP3   OH278385   6.356   2.975  13.510 -0.7468 -0.4315  0.1269
18965TIP3    H178386   6.311   3.035  13.569 -0.0072  0.1446  0.1311
18965TIP3    H278387   6.336   2.888  13.543 -0.8172 -0.1340  0.8748
18966TIP3   OH278388   0.404   3.527  14.184 -0.2819 -0.0168  0.4090
18966TIP3    H178389   0.404   3.623  14.181  0.2387 -0.0361 -1.2551
18966TIP3    H278390   0.379   3.501  14.095  1.3495 -1.4047  0.3076
18967TIP3   OH278391   1.177   4.347  11.306  0.0524 -0.1330 -0.5434
18967TIP3    H178392   1.177   4.293  11.385  0.4438  2.4090  1.3010
18967TIP3    H278393   1.115   4.302  11.247 -0.0966 -2.2094  1.0709
18968TIP3   OH278394   1.228   5.613   4.076  0.4776  0.8378  0.0172
18968TIP3    H178395   1.214   5.678   4.008  1.0485  2.1682  1.1103
18968TIP3    H278396   1.141   5.594   4.111  0.2884  0.8591 -0.4442
18969TIP3   OH278397   0.690   2.294   1.564 -0.0698  0.1980 -0.2073
18969TIP3    H178398   0.732   2.349   1.498 -0.5413 -3.5972 -4.1043
18969TIP3    H278399   0.600   2.284   1.534 -0.8498 -0.2827  2.0671
18970TIP3   OH278400   3.367   0.638   2.760 -0.0236 -0.1310 -0.2496
18970TIP3    H178401   3.314   0.645   2.680 -0.7794 -1.4669  0.1052
18970TIP3    H278402   3.437   0.577   2.737 -1.0793 -1.6831  0.5002
18971TIP3   OH278403   1.140   1.815   4.988 -0.2681 -0.3362  0.0329
18971TIP3    H178404   1.072   1.882   4.978 -0.1427 -0.4621 -2.3319
18971TIP3    H278405   1.092   1.737   5.018 -1.0837 -0.2160 -0.8842
18972TIP3   OH278406   1.201   0.355  16.960  0.1599  0.5540  0.2811
18972TIP3    H178407   1.171   0.384  17.046  0.1607 -0.8097  0.7617
18972TIP3    H278408   1.271   0.292  16.979 -0.1390 -0.0940 -0.7049
18973TIP3   OH278409   6.199   6.071   3.522  0.1796 -0.5485  0.0916
18973TIP3    H178410   6.115   6.072   3.476  0.1190  0.0360  0.2008
18973TIP3    H278411   6.264   6.057   3.454  0.0494 -0.2138 -0.1044
18974TIP3   OH278412   3.994   6.528  13.521  0.2849  0.2663 -0.0719
18974TIP3    H178413   4.057   6.501  13.588  1.3808  3.2788  0.2528
18974TIP3    H278414   4.041   6.516  13.439 -0.8930 -2.9728 -0.4160
18975TIP3   OH278415   4.024   6.714  11.684  0.2145 -0.5609  0.1010
18975TIP3    H178416   4.091   6.736  11.619  0.0698  1.4805  0.5613
18975TIP3    H278417   4.037   6.621  11.702  1.6215 -0.6746 -1.2806
18976TIP3   OH278418   0.726   4.822   2.839 -0.4903  0.6216  0.2849
18976TIP3    H178419   0.799   4.786   2.788  0.4319  2.8465 -0.1083
18976TIP3    H278420   0.702   4.902   2.792 -2.1564  0.7585  1.3031
18977TIP3   OH278421   4.978   4.352   6.328  0.1932 -0.1717  0.5307
18977TIP3    H178422   4.913   4.339   6.258  0.1968  1.3307  0.2088
18977TIP3    H278423   4.927   4.346   6.409 -0.6509  2.1928  0.2522
18978TIP3   OH278424   4.655   6.160   4.462  0.0952 -0.4836 -0.0319
18978TIP3    H178425   4.560   6.158   4.451  0.1887  0.9221 -1.6612
18978TIP3    H278426   4.670   6.145   4.555 -1.5869 -2.8190 -0.0667
18979TIP3   OH278427   2.649   2.271  12.825  0.6321  0.0359  0.0286
18979TIP3    H178428   2.657   2.338  12.893  1.6535  1.0589 -1.0519
18979TIP3    H278429   2.664   2.189  12.871  0.1313  0.6052  1.2453
18980TIP3   OH278430   1.514   6.143  16.878 -0.3356  0.4157 -0.3616
18980TIP3    H178431   1.588   6.143  16.818  0.1951  0.9055  0.2868
18980TIP3    H278432   1.498   6.050  16.896 -0.5151  0.2632 -1.2647
18981TIP3   OH278433   1.649   5.634  15.598  0.0656 -0.7881 -0.0196
18981TIP3    H178434   1.627   5.629  15.505 -1.7274 -2.6650  0.4262
18981TIP3    H278435   1.710   5.561  15.612  1.1440  0.1111  0.1202
18982TIP3   OH278436   4.626   2.295  16.690 -0.1241  0.1140  0.0417
18982TIP3    H178437   4.619   2.277  16.596  0.8323  0.0960 -0.0344
18982TIP3    H278438   4.544   2.262  16.726 -0.4689  0.0419 -0.7733
18983TIP3   OH278439   0.894   2.139   2.348  1.6075  0.7209  0.4597
18983TIP3    H178440   0.804   2.165   2.367  0.1146 -2.1778 -1.8157
18983TIP3    H278441   0.924   2.203   2.283 -0.0997 -0.0659 -1.2182
18984TIP3   OH278442   0.528   5.652   4.975  0.0025 -0.1033  0.0515
18984TIP3    H178443   0.495   5.740   4.993  0.3544 -0.3825  2.3127
18984TIP3    H278444   0.460   5.594   5.009 -0.3955 -0.7691 -1.7453
18985TIP3   OH278445   1.015   1.578  15.643 -0.1090 -0.4308 -0.5862
18985TIP3    H178446   1.033   1.655  15.696 -1.9494  2.2676 -3.4882
18985TIP3    H278447   1.099   1.531  15.640  1.1580  1.5214  1.1732
18986TIP3   OH278448   1.927   4.620   6.685 -0.3374  0.4353  0.3716
18986TIP3    H178449   1.998   4.677   6.655 -0.5263  1.3135  1.5148
18986TIP3    H278450   1.869   4.679   6.734  0.2332 -0.9618  2.8942
18987TIP3   OH278451   5.984   5.845  16.904 -0.2190 -0.3754  0.1791
18987TIP3    H178452   6.027   5.930  16.915 -1.4085  0.3114 -0.2290
18987TIP3    H278453   5.897   5.867  16.871 -0.0407 -1.8373 -1.3963
18988TIP3   OH278454   4.344   4.211   1.335 -0.2042 -0.1257 -0.1354
18988TIP3    H178455   4.417   4.149   1.340  1.1424  1.3941 -0.2399
18988TIP3    H278456   4.274   4.169   1.384  0.5124 -1.9083 -0.5492
18989TIP3   OH278457   6.027   0.087  14.655 -0.1772 -0.6847 -0.1844
18989TIP3    H178458   6.108   0.137  14.662 -0.5248  0.0195 -1.1293
18989TIP3    H278459   6.034   0.040  14.572 -2.6183  2.9009 -2.6866
18990TIP3   OH278460   1.287   3.221  16.098  0.3952  0.4245  0.3917
18990TIP3    H178461   1.268   3.128  16.091 -1.0038  0.5532  1.7669
18990TIP3    H278462   1.376   3.225  16.132  1.1176 -0.3501 -1.3497
18991TIP3   OH278463   2.146   4.951   2.187 -0.2112  0.0478 -0.2447
18991TIP3    H178464   2.117   5.014   2.252  0.4928  0.2708 -0.1323
18991TIP3    H278465   2.097   4.871   2.206  1.2896 -0.4901  1.7628
18992TIP3   OH278466   2.273   5.971  10.316 -0.5940  0.9659 -0.7915
18992TIP3    H178467   2.263   6.053  10.268 -0.9745  2.0595  1.0526
18992TIP3    H278468   2.356   5.979  10.362 -0.8960  0.5651 -0.1566
18993TIP3   OH278469   3.442   1.367  16.668  0.4536  0.3971  0.5076
18993TIP3    H178470   3.436   1.318  16.586 -0.5949  0.4416  0.5379
18993TIP3    H278471   3.455   1.458  16.641  1.0714  0.2888  0.4211
18994TIP3   OH278472   6.490   0.878  15.724  0.6315 -0.0467 -0.2880
18994TIP3    H178473   6.582   0.902  15.717  0.1750  1.8229 -0.2531
18994TIP3    H278474   6.472   0.827  15.645  1.4879  0.2885 -0.7073
18995TIP3   OH278475   0.916   3.448  16.432 -0.2088  0.6434 -0.3994
18995TIP3    H178476   0.986   3.399  16.390  0.1933  2.1216 -1.5781
18995TIP3    H278477   0.910   3.412  16.520  0.6466 -0.8699 -0.9287
18996TIP3   OH278478   2.578   3.020   5.258 -0.5500 -0.2588  0.1282
18996TIP3    H178479   2.597   2.988   5.170  0.4002  0.9315 -0.1207
18996TIP3    H278480   2.525   2.950   5.297  0.5842 -1.6654 -0.7253
18997TIP3   OH278481   0.045   4.521  13.723  0.1888  0.3286  0.4895
18997TIP3    H178482   0.062   4.583  13.652  1.6815  1.8014  2.0478
18997TIP3    H278483  -0.035   4.552  13.764  1.6559  2.1726  2.1292
18998TIP3   OH278484   1.972   1.764  10.933 -0.1115  0.3786 -0.1287
18998TIP3    H178485   1.893   1.712  10.951 -1.1720  2.5786  2.0576
18998TIP3    H278486   1.949   1.817  10.857  0.9641 -2.0890 -2.3540
18999TIP3   OH278487   2.131   0.191   2.206  0.3204 -0.0787  0.0862
18999TIP3    H178488   2.184   0.112   2.215  2.2685  0.8494 -2.2024
18999TIP3    H278489   2.192   0.257   2.172 -1.5134  2.0917  0.7340
19000TIP3   OH278490   4.627   1.657  16.715  0.1121  0.3944 -0.3254
19000TIP3    H178491   4.642   1.751  16.703  0.0257  0.3241 -1.0398
19000TIP3    H278492   4.701   1.627  16.767 -0.4309  1.0613  0.8789
19001TIP3   OH278493   5.655   5.567  14.015  0.5080 -0.1274  0.8161
19001TIP3    H178494   5.686   5.480  14.042  2.7557 -0.3768 -2.0465
19001TIP3    H278495   5.579   5.549  13.959  1.0066 -0.2893  0.1780
19002TIP3   OH278496   4.334   5.712  11.986 -0.1517 -0.3197  0.3060
19002TIP3    H178497   4.404   5.679  11.930 -0.7574 -0.1070 -0.5996
19002TIP3    H278498   4.313   5.798  11.950 -1.7604 -0.9096 -0.2565
19003TIP3   OH278499   5.201   3.073   1.364  0.4213  0.7597  0.6840
19003TIP3    H178500   5.287   3.053   1.401 -0.7041 -1.7234  2.2825
19003TIP3    H278501   5.207   3.044   1.273  1.1796  0.1832  0.9016
19004TIP3   OH278502   1.324   0.174   5.674  0.8189 -0.9032 -0.5732
19004TIP3    H178503   1.276   0.164   5.756  0.0869  1.3562 -0.6521
19004TIP3    H278504   1.379   0.095   5.668  0.0571 -1.6528  1.4994
19005TIP3   OH278505   5.292   6.563  11.447  0.4767 -0.5253  0.5741
19005TIP3    H178506   5.203   6.552  11.479 -0.5673 -0.7389 -2.1277
19005TIP3    H278507   5.322   6.474  11.427  0.8680 -0.3548  0.3812
19006TIP3   OH278508   6.288   1.868   5.103  0.0960 -0.0204  0.4467
19006TIP3    H178509   6.208   1.856   5.052  1.3559 -0.4403 -1.5233
19006TIP3    H278510   6.280   1.804   5.174 -1.8808  0.8498  1.0867
19007TIP3   OH278511   6.798   1.071   4.987  0.6320  0.1877  0.5135
19007TIP3    H178512   6.745   0.992   4.998 -1.4816  1.7211  2.3459
19007TIP3    H278513   6.796   1.089   4.893 -1.1717 -0.4495  0.3953
19008TIP3   OH278514   5.637   4.295  13.569  0.4359 -0.1800 -0.5586
19008TIP3    H178515   5.549   4.278  13.602  0.0732 -2.5705 -2.4689
19008TIP3    H278516   5.624   4.316  13.476  1.8624 -0.1179 -0.7667
19009TIP3   OH278517   5.497   6.291  13.496  0.2465  0.0805 -0.6271
19009TIP3    H178518   5.556   6.348  13.446  1.3947  0.5938  1.2252
19009TIP3    H278519   5.477   6.341  13.575 -1.2510 -0.8483 -0.3827
19010TIP3   OH278520   5.667   4.607   1.985  0.1344  0.0972 -0.0107
19010TIP3    H178521   5.719   4.532   1.955  1.2340  0.5935  0.5735
19010TIP3    H278522   5.580   4.592   1.950  0.7003 -0.7189 -1.1117
19011TIP3   OH278523   6.415   2.201   6.144  0.4779 -0.7138  0.3720
19011TIP3    H178524   6.487   2.255   6.111  0.8161 -1.4522 -0.0985
19011TIP3    H278525   6.458   2.130   6.191  0.0270 -0.5444  1.0602
19012TIP3   OH278526   4.921   0.157  14.821 -0.0006 -0.0216  0.2104
19012TIP3    H178527   4.869   0.097  14.767  1.2582  0.9858 -2.3018
19012TIP3    H278528   4.989   0.189  14.761  1.8166  0.8143  2.5934
19013TIP3   OH278529   3.898   3.395   1.144  0.0169  0.4752  0.2374
19013TIP3    H178530   3.957   3.443   1.087  0.3531  0.0893  0.2565
19013TIP3    H278531   3.873   3.318   1.092 -0.2878  0.5211  0.3161
19014TIP3   OH278532   5.368   0.169  14.893 -0.3202 -0.0536  0.3062
19014TIP3    H178533   5.391   0.155  14.802 -0.3900 -0.1107  0.2969
19014TIP3    H278534   5.312   0.095  14.916 -0.7301  0.2329  0.2447
19015TIP3   OH278535   0.423   3.291   4.284 -0.6892  0.2967  0.1095
19015TIP3    H178536   0.406   3.264   4.194 -0.5644  0.4701  0.0327
19015TIP3    H278537   0.352   3.251   4.335 -0.3531 -0.3991  0.0442
19016TIP3   OH278538   0.233   0.777  14.565  0.6260 -0.6868 -0.3090
19016TIP3    H178539   0.141   0.771  14.594 -0.8072  2.3739 -3.5341
19016TIP3    H278540   0.277   0.824  14.636 -1.4736  1.9393 -0.6106
19017TIP3   OH278541   2.154   6.639   3.906  0.3299 -0.4613  0.0693
19017TIP3    H178542   2.235   6.620   3.953  0.3696  0.6483  0.4791
19017TIP3    H278543   2.164   6.594   3.822  1.1235 -0.8019  0.3355
19018TIP3   OH278544   4.203   4.229  13.853  0.1882 -0.1020 -0.5423
19018TIP3    H178545   4.142   4.170  13.897  1.0112  0.4304  1.4219
19018TIP3    H278546   4.287   4.213  13.897  0.5751  2.0371 -0.4082
19019TIP3   OH278547   4.473   6.717  12.427  0.5004 -0.6995  0.4996
19019TIP3    H178548   4.456   6.707  12.333  0.0138 -0.0210  0.5038
19019TIP3    H278549   4.400   6.772  12.458 -0.3612 -2.3915  1.6231
19020TIP3   OH278550   1.238   0.100   1.315 -0.0605 -0.6916  0.0045
19020TIP3    H178551   1.202   0.188   1.325  0.0767 -0.5184 -0.8783
19020TIP3    H278552   1.161   0.043   1.315 -0.4898 -0.2578 -2.6257
19021TIP3   OH278553   3.830   5.011  15.226 -0.2755 -0.0577 -0.1824
19021TIP3    H178554   3.822   5.085  15.165  1.2750 -0.2032 -0.6012
19021TIP3    H278555   3.804   5.047  15.311  0.4547  0.9922 -0.3810
19022TIP3   OH278556   3.923   5.773  15.624 -0.0654 -0.2304 -0.0093
19022TIP3    H178557   3.956   5.685  15.605 -0.4549 -0.0888 -1.4878
19022TIP3    H278558   3.970   5.830  15.562 -0.5013  0.4621  0.2861
19023TIP3   OH278559   3.848   3.680  11.339 -0.2312 -0.0602 -0.8168
19023TIP3    H178560   3.872   3.737  11.266  1.7502 -0.0984 -0.2630
19023TIP3    H278561   3.921   3.688  11.401 -2.1760  0.6113  1.5699
19024TIP3   OH278562   2.056   3.730  13.136  0.3523 -0.1514 -0.2809
19024TIP3    H178563   2.021   3.645  13.163 -1.0829  0.1838 -0.9537
19024TIP3    H278564   2.118   3.754  13.204  0.5173 -1.5750  0.0956
19025TIP3   OH278565   0.647   6.523   1.830  0.1912 -0.2034  0.2052
19025TIP3    H178566   0.731   6.496   1.866  0.5425 -1.0135 -1.1449
19025TIP3    H278567   0.606   6.442   1.799  0.1812  0.4724 -1.6964
19026TIP3   OH278568   5.166   4.444  14.719 -0.0535 -0.1977 -0.4994
19026TIP3    H178569   5.076   4.433  14.751 -0.0894  0.5314 -0.3204
19026TIP3    H278570   5.202   4.356  14.718 -0.4173 -0.3787  0.4918
19027TIP3   OH278571   4.430   4.844  11.954 -0.1178  0.0032  0.0291
19027TIP3    H178572   4.366   4.790  11.999 -0.3384  1.1936  1.1688
19027TIP3    H278573   4.385   4.925  11.934  0.3319 -0.0375 -1.3255
19028TIP3   OH278574   6.018   3.225  11.783 -0.1324  0.2466  0.7146
19028TIP3    H178575   5.995   3.306  11.828 -2.0415 -0.6336  1.4186
19028TIP3    H278576   6.011   3.157  11.849  0.0706 -0.6768 -0.1818
19029TIP3   OH278577   0.033   2.368   1.721 -0.2831 -0.2311 -0.0412
19029TIP3    H178578   0.049   2.322   1.639  0.1401 -0.4058  0.1323
19029TIP3    H278579  -0.031   2.435   1.699 -1.1928 -1.1295 -0.2221
19030TIP3   OH278580   6.778   2.499  17.185 -0.0819 -0.2092  0.1535
19030TIP3    H178581   6.820   2.435  17.127 -1.0524 -0.4863 -0.2567
19030TIP3    H278582   6.769   2.452  17.268  0.9322  0.0498  0.4266
19031TIP3   OH278583   2.845   2.390   1.320 -0.3161  0.0465 -0.6622
19031TIP3    H178584   2.816   2.449   1.389  2.4292  0.0853  0.5793
19031TIP3    H278585   2.882   2.447   1.253 -0.7838 -0.1256 -1.0763
19032TIP3   OH278586   0.318   0.052  15.272 -0.0514 -0.3920 -0.5490
19032TIP3    H178587   0.375   0.044  15.349  1.7221 -1.5324 -1.9220
19032TIP3    H278588   0.344   0.135  15.232 -1.8137  0.8159  0.6612
19033TIP3   OH278589   4.926   1.198  11.073 -0.1166 -0.1641  0.4357
19033TIP3    H178590   4.879   1.156  11.002 -0.3303 -1.0703  1.0892
19033TIP3    H278591   4.857   1.222  11.136  0.2784 -2.3503  1.8404
19034TIP3   OH278592   6.256   4.822  12.484 -0.6415  0.6134 -0.5208
19034TIP3    H178593   6.222   4.897  12.435 -1.8912  0.1037 -0.4598
19034TIP3    H278594   6.199   4.815  12.560 -0.9116 -0.7386 -0.8189
19035TIP3   OH278595   3.523   3.582  11.582  0.2057 -0.2463  0.3923
19035TIP3    H178596   3.586   3.630  11.636  0.0856  1.1296 -0.6517
19035TIP3    H278597   3.577   3.524  11.528  0.5465  0.4775 -0.0553
19036TIP3   OH278598   0.310   1.456   4.064  0.6948 -0.0895 -0.2150
19036TIP3    H178599   0.352   1.540   4.078  2.0484 -0.6081 -0.9833
19036TIP3    H278600   0.378   1.391   4.083 -0.3944 -1.0420  0.6538
19037TIP3   OH278601   1.411   5.810  15.405 -0.2320 -0.2010  0.1885
19037TIP3    H178602   1.377   5.882  15.458  0.5372  0.9534 -0.8346
19037TIP3    H278603   1.333   5.774  15.362 -0.3996  1.7017 -1.2710
19038TIP3   OH278604   0.122   1.070   4.539  0.2514  0.4160 -0.1304
19038TIP3    H178605   0.045   1.073   4.482  0.4736 -2.2887 -0.7364
19038TIP3    H278606   0.194   1.096   4.482  0.4159 -1.8976 -1.1057
19039TIP3   OH278607   4.495   1.589  14.223 -0.7601  0.4328  0.2364
19039TIP3    H178608   4.589   1.575  14.213 -0.8724  0.2014 -0.5182
19039TIP3    H278609   4.487   1.638  14.306  0.0194  0.4740  0.2937
19040TIP3   OH278610   6.614   1.390  13.428  0.2708 -0.3407  0.1519
19040TIP3    H178611   6.684   1.433  13.379 -1.1495 -0.1437 -1.8483
19040TIP3    H278612   6.649   1.379  13.516  2.4519  0.5658 -0.5358
19041TIP3   OH278613   5.281   5.833   2.576 -0.3637 -0.0554 -0.0833
19041TIP3    H178614   5.280   5.847   2.482  0.0372 -0.7126 -0.1872
19041TIP3    H278615   5.310   5.743   2.587  2.3655  0.8421  0.7607
19042TIP3   OH278616   3.547   0.880   5.850  0.1132  0.0091 -0.1215
19042TIP3    H178617   3.642   0.883   5.837  0.1979 -0.6360  0.3126
19042TIP3    H278618   3.535   0.898   5.943 -0.3104  1.7887 -0.4905
19043TIP3   OH278619   6.755   3.335  14.120  0.1043 -0.4553  0.0960
19043TIP3    H178620   6.756   3.408  14.181  0.3833 -1.7133  1.6509
19043TIP3    H278621   6.688   3.276  14.154 -0.0190 -0.9999 -1.0521
19044TIP3   OH278622   6.765   2.944   1.920  0.2292 -0.3509  0.3088
19044TIP3    H178623   6.796   2.894   1.996  0.7087  0.4188  0.6397
19044TIP3    H278624   6.817   3.025   1.923 -0.6148  0.2161 -0.1309
19045TIP3   OH278625   4.894   1.044  13.056  0.2898 -0.0116 -0.4099
19045TIP3    H178626   4.927   1.121  13.103 -0.9597 -0.6133  1.5664
19045TIP3    H278627   4.802   1.037  13.081  0.1357 -1.6267 -1.2522
19046TIP3   OH278628   0.683   0.178   1.533  0.1420 -0.4845  0.5443
19046TIP3    H178629   0.698   0.098   1.482  0.2504 -0.7062  0.9166
19046TIP3    H278630   0.591   0.175   1.556 -0.0104 -0.1589 -0.0120
19047TIP3   OH278631   3.566   1.321   2.342 -0.1937  0.2163 -0.1060
19047TIP3    H178632   3.472   1.323   2.356 -0.2867  0.7422 -0.7720
19047TIP3    H278633   3.579   1.267   2.264 -0.2379  2.7530 -1.9979
19048TIP3   OH278634   2.641   1.394  15.655 -0.2202 -0.4305 -0.5132
19048TIP3    H178635   2.608   1.306  15.670 -1.0400 -0.0753 -0.1412
19048TIP3    H278636   2.706   1.385  15.586 -0.7486 -1.2363 -0.9179
19049TIP3   OH278637   4.784   5.424   1.122 -0.2311  0.2219  0.3254
19049TIP3    H178638   4.800   5.510   1.083  0.1284 -0.5104 -1.2153
19049TIP3    H278639   4.854   5.369   1.087 -1.2443 -1.0306  0.2285
19050TIP3   OH278640   4.607   3.126   4.086 -0.5163  0.4051  0.3163
19050TIP3    H178641   4.524   3.083   4.107 -0.2727 -0.4886 -0.4987
19050TIP3    H278642   4.612   3.199   4.149 -0.7488 -0.9537  1.9956
19051TIP3   OH278643   5.452   6.132  10.810  0.2244  0.0352 -0.3984
19051TIP3    H178644   5.419   6.212  10.769 -0.2855  0.3556  0.6107
19051TIP3    H278645   5.460   6.070  10.738 -2.5663 -0.0534 -0.7597
19052TIP3   OH278646   5.669   4.986   2.546 -0.9031 -0.4500  0.3265
19052TIP3    H178647   5.686   4.892   2.559  0.0144 -0.0362  2.4751
19052TIP3    H278648   5.705   5.028   2.624 -0.6694  1.7911 -0.9082
19053TIP3   OH278649   3.607   0.867  16.517 -0.2300 -0.1752 -0.2833
19053TIP3    H178650   3.531   0.809  16.516 -0.4696 -0.0692  2.7911
19053TIP3    H278651   3.681   0.809  16.500 -0.8310 -0.4193 -2.4342
19054TIP3   OH278652   3.553   3.737  13.126 -0.5278  0.1999 -0.3000
19054TIP3    H178653   3.462   3.739  13.158 -0.5362 -1.1925 -0.1478
19054TIP3    H278654   3.598   3.679  13.187  0.0301 -0.5631 -1.4069
19055TIP3   OH278655   0.728   4.806   3.874 -0.5714  0.5217 -0.6597
19055TIP3    H178656   0.739   4.851   3.790  0.8898  1.4693  0.0105
19055TIP3    H278657   0.634   4.811   3.892 -0.9794 -0.0600 -2.4061
19056TIP3   OH278658   1.900   6.416   1.751 -0.5712 -0.3169 -0.3993
19056TIP3    H178659   1.970   6.353   1.766 -0.5075 -0.5449 -1.5470
19056TIP3    H278660   1.937   6.500   1.775 -0.6333 -0.6816  1.0809
19057TIP3   OH278661   0.399   4.030   1.515 -0.1139 -0.1148  0.3089
19057TIP3    H178662   0.437   4.083   1.444 -0.8452 -1.2487 -0.9784
19057TIP3    H278663   0.393   4.090   1.589  0.3660  1.2169 -0.6869
19058TIP3   OH278664   4.028   3.815   0.536 -0.3539 -0.6021 -0.0867
19058TIP3    H178665   3.945   3.811   0.583  0.7850 -0.2586  2.0376
19058TIP3    H278666   4.061   3.903   0.551  1.9483 -1.6983  2.0048
19059TIP3   OH278667   5.763   0.804  17.035 -0.2623 -0.5277 -0.1951
19059TIP3    H178668   5.767   0.751  16.956 -2.5517 -1.4354  0.2014
19059TIP3    H278669   5.757   0.894  17.004  0.2824 -0.7607 -0.9920
19060TIP3   OH278670   0.870   6.029  12.798  0.7822  0.4311 -0.1652
19060TIP3    H178671   0.779   6.011  12.822  0.3733 -1.0485 -2.4533
19060TIP3    H278672   0.920   6.011  12.877 -0.8231  0.5094  0.9165
19061TIP3   OH278673   5.052   1.880   5.648 -0.0403  0.7880 -0.1852
19061TIP3    H178674   5.051   1.805   5.587 -1.0078  0.3825  0.3037
19061TIP3    H278675   5.101   1.849   5.723  1.7597  1.5240 -1.0064
19062TIP3   OH278676   5.124   3.563   1.845 -0.1549  0.1093  0.3324
19062TIP3    H178677   5.172   3.488   1.811  0.8122  1.2349 -0.9222
19062TIP3    H278678   5.095   3.536   1.932  0.9899 -1.3597  0.2937
19063TIP3   OH278679   2.677   0.714   0.281  0.9237  0.0907 -0.2418
19063TIP3    H178680   2.693   0.720   0.187  0.4125  2.5436 -0.2337
19063TIP3    H278681   2.764   0.723   0.321  0.8907  1.6778 -0.4629
19064TIP3   OH278682   0.757   2.634   4.025 -0.2848 -0.6104 -0.6081
19064TIP3    H178683   0.664   2.654   4.021 -0.1139  0.2809 -0.4103
19064TIP3    H278684   0.785   2.669   4.110  0.4351  0.0503 -1.1108
19065TIP3   OH278685   6.269   1.880  16.146 -0.4138 -0.7808  0.1587
19065TIP3    H178686   6.179   1.906  16.168 -0.6517 -0.9624 -0.5837
19065TIP3    H278687   6.321   1.957  16.167 -1.0735  0.2524 -1.7442
19066TIP3   OH278688   4.192   3.960  11.258  0.2773 -0.1953  0.0417
19066TIP3    H178689   4.265   3.991  11.312  0.6337  1.5760 -1.3534
19066TIP3    H278690   4.120   4.020  11.277 -0.2883 -0.8777  0.1138
19067TIP3   OH278691   1.179   1.081  15.122 -0.4695 -0.1549 -0.7392
19067TIP3    H178692   1.233   1.003  15.110  0.5598  0.5978 -1.1105
19067TIP3    H278693   1.123   1.060  15.197  0.7431 -0.7541  0.0380
19068TIP3   OH278694   1.859   5.597   5.459  0.3983  0.3342 -0.1131
19068TIP3    H178695   1.859   5.611   5.365  1.7676 -0.4534 -0.2567
19068TIP3    H278696   1.779   5.638   5.490 -0.5470 -0.2315 -1.7379
19069TIP3   OH278697   0.450   6.437  15.940  0.5875 -0.0204  0.0101
19069TIP3    H178698   0.478   6.374  15.875  3.7116  0.6263  0.5305
19069TIP3    H278699   0.525   6.496  15.949 -1.0395  1.9417  1.7194
19070TIP3   OH278700   0.776   4.107  16.875 -0.0205 -0.0735  0.0505
19070TIP3    H178701   0.844   4.090  16.810  0.0625 -1.1543  0.4003
19070TIP3    H278702   0.742   4.021  16.898 -1.6897  0.4726 -0.2764
19071TIP3   OH278703   6.530   0.550  15.480 -0.5564 -0.0062  0.3371
19071TIP3    H178704   6.458   0.610  15.463 -1.5018 -1.6802 -2.2809
19071TIP3    H278705   6.504   0.469  15.436  2.1813 -1.2257  0.7412
19072TIP3   OH278706   0.666   4.118  17.147  0.0257  0.0563  0.2082
19072TIP3    H178707   0.693   4.044  17.201  1.0898  0.3983  0.1865
19072TIP3    H278708   0.718   4.109  17.067 -1.4110 -0.3558 -0.7022
19073TIP3   OH278709   5.781   0.081   3.677  0.1438 -0.1587  0.4807
19073TIP3    H178710   5.711   0.114   3.621  1.2090 -0.5356 -1.1597
19073TIP3    H278711   5.743   0.078   3.765 -0.8969  2.6032  0.2082
19074TIP3   OH278712   4.601   3.125   5.485  0.4571 -0.2780 -0.1072
19074TIP3    H178713   4.520   3.081   5.461 -0.4772  0.7304  1.0361
19074TIP3    H278714   4.578   3.218   5.488  1.8716  0.1195 -0.5527
19075TIP3   OH278715   0.653   2.823  14.763 -0.4793  0.0347 -0.3595
19075TIP3    H178716   0.642   2.737  14.722  1.3248 -0.8048  0.7811
19075TIP3    H278717   0.586   2.826  14.831 -0.1323 -0.7886  0.0403
19076TIP3   OH278718   4.703   5.070  12.743  0.3372  0.4094  0.0313
19076TIP3    H178719   4.665   4.995  12.787  1.2631  0.1729  0.4492
19076TIP3    H278720   4.725   5.131  12.813  0.5448  0.6323 -0.2213
19077TIP3   OH278721   4.970   4.475   1.644  0.1908  0.0378  0.3373
19077TIP3    H178722   4.882   4.439   1.644  0.3058 -0.2437 -0.1869
19077TIP3    H278723   4.993   4.485   1.552 -0.7791  3.7653  0.3245
19078TIP3   OH278724   4.600   3.523  12.443  0.4096  0.1597 -0.1807
19078TIP3    H178725   4.587   3.505  12.350 -0.0412  0.9219 -0.2683
19078TIP3    H278726   4.530   3.584  12.466  1.6073  1.4158  0.2267
19079TIP3   OH278727   2.499   6.813   5.629  0.7587  0.5742 -0.4760
19079TIP3    H178728   2.457   6.770   5.703 -1.5248  1.1469 -1.3442
19079TIP3    H278729   2.578   6.853   5.665  0.1532  0.1270  1.4569
19080TIP3   OH278730   2.421   0.738   1.717 -0.0372 -0.2507  0.4029
19080TIP3    H178731   2.369   0.672   1.763  1.1185 -1.6451 -0.2013
19080TIP3    H278732   2.461   0.690   1.644  0.6511  1.1866 -0.2041
19081TIP3   OH278733   6.146   1.533  13.076 -0.3209  0.1049  0.1237
19081TIP3    H178734   6.069   1.520  13.131  0.2098 -1.2539  0.5770
19081TIP3    H278735   6.216   1.488  13.123  0.8389  1.5739 -0.1254
19082TIP3   OH278736   2.243   6.098  14.807 -0.0351  0.3966 -0.3317
19082TIP3    H178737   2.227   6.181  14.852  2.0000  0.6005  0.1499
19082TIP3    H278738   2.335   6.079  14.826  0.7494  0.0837 -3.7326
19083TIP3   OH278739   5.291   1.969   4.101  0.4226  0.4836  0.4540
19083TIP3    H178740   5.290   2.063   4.117 -0.2398  0.4910  0.3768
19083TIP3    H278741   5.246   1.958   4.017 -0.2983  0.0296  0.8874
19084TIP3   OH278742   6.644   5.415   2.079 -0.3361 -0.3973  0.7359
19084TIP3    H178743   6.609   5.502   2.093  0.1894  0.1777 -1.2069
19084TIP3    H278744   6.735   5.421   2.106 -1.0008 -1.2148  3.4279
19085TIP3   OH278745   0.127   1.295  13.313 -0.3992  0.3747  0.3045
19085TIP3    H178746   0.086   1.302  13.400  1.2836 -0.0734  1.1841
19085TIP3    H278747   0.168   1.380  13.299 -0.8316  0.5139 -0.1694
19086TIP3   OH278748   3.028   3.664   0.707  0.6695  0.0118 -0.3434
19086TIP3    H178749   3.071   3.738   0.750  2.0726 -0.5491 -0.7407
19086TIP3    H278750   2.941   3.697   0.685  1.0894  1.3810 -0.0457
19087TIP3   OH278751   4.966   4.807  11.650  0.4733 -0.6930 -0.2796
19087TIP3    H178752   4.882   4.852  11.666  0.4841 -0.2244 -1.4479
19087TIP3    H278753   4.970   4.798  11.555  2.7177  1.2304 -0.4593
19088TIP3   OH278754   3.237   6.822  15.872  0.2028 -0.0813  0.3531
19088TIP3    H178755   3.294   6.880  15.821 -1.1152  1.1418  0.2136
19088TIP3    H278756   3.203   6.759  15.809  0.3164  0.0402  0.1705
19089TIP3   OH278757   3.158   2.415  15.895  0.1728  0.6677 -0.1194
19089TIP3    H178758   3.085   2.443  15.840  0.3031  3.0523  0.8252
19089TIP3    H278759   3.141   2.322  15.912 -2.6884  1.1647  0.1652
19090TIP3   OH278760   4.954   4.286   4.963 -0.0409 -0.0633  0.3027
19090TIP3    H178761   5.030   4.268   5.019 -0.9531  1.1504  2.0496
19090TIP3    H278762   4.938   4.379   4.974 -1.9797 -0.3533  0.2563
19091TIP3   OH278763   3.906   4.356   4.630 -0.5526  0.2885 -0.2904
19091TIP3    H178764   3.879   4.294   4.563  0.4068 -1.6356  1.0142
19091TIP3    H278765   3.901   4.441   4.587  0.2397 -0.8712 -2.8674
19092TIP3   OH278766   3.938   5.141  14.231  0.0197  0.3200  0.3514
19092TIP3    H178767   3.984   5.223  14.249  0.7810 -0.1795  0.7556
19092TIP3    H278768   4.008   5.076  14.226 -0.4288 -0.0756 -1.4537
19093TIP3   OH278769   4.004   5.605   4.728 -0.0217 -0.1138 -0.2046
19093TIP3    H178770   4.023   5.697   4.745  0.1084 -0.2869  0.6396
19093TIP3    H278771   4.091   5.563   4.721 -0.0372  0.1219 -2.4275
19094TIP3   OH278772   5.878   4.588   2.486  0.1421  0.4191 -0.1021
19094TIP3    H178773   5.834   4.616   2.567 -0.0887  0.8015 -0.3547
19094TIP3    H278774   5.822   4.622   2.416 -1.0236 -2.0105 -0.4513
19095TIP3   OH278775   4.421   6.222   5.218  0.2762  0.0826 -0.3756
19095TIP3    H178776   4.344   6.220   5.275 -0.4227 -1.8866 -1.2959
19095TIP3    H278777   4.403   6.154   5.152  2.3980  0.2207 -1.1472
19096TIP3   OH278778   3.475   0.391  12.841  0.3836 -0.3844  0.4905
19096TIP3    H178779   3.506   0.480  12.856 -0.7782  0.4960 -1.8094
19096TIP3    H278780   3.545   0.350  12.789 -1.3201  1.1521 -3.4571
19097TIP3   OH278781   1.518   3.229  16.936 -0.1642 -0.2070  0.6209
19097TIP3    H178782   1.599   3.179  16.945  0.4988  0.3952 -1.4813
19097TIP3    H278783   1.467   3.206  17.013  1.9601 -0.6698  1.9688
19098TIP3   OH278784   4.332   0.993  14.168  0.5049  0.1224 -0.1059
19098TIP3    H178785   4.306   0.902  14.178 -0.3479  0.4735  1.0146
19098TIP3    H278786   4.258   1.044  14.202  1.0953  1.2254 -0.4151
19099TIP3   OH278787   1.374   4.312   5.922 -0.0894 -0.2468  0.4155
19099TIP3    H178788   1.445   4.355   5.874 -0.1660 -1.0912 -0.4767
19099TIP3    H278789   1.410   4.300   6.010  1.5044 -2.0391 -0.4018
19100TIP3   OH278790   1.461   2.871   2.096 -0.5488 -0.1710  0.2958
19100TIP3    H178791   1.428   2.958   2.118  0.3102 -0.3391  2.4913
19100TIP3    H278792   1.538   2.888   2.041 -1.8318  0.3227 -1.4460
19101TIP3   OH278793   6.693   0.600   1.913  0.2165  0.0958 -0.2782
19101TIP3    H178794   6.762   0.552   1.958  0.1050 -1.0288 -1.2545
19101TIP3    H278795   6.646   0.646   1.983  1.2033 -0.0823  0.5214
19102TIP3   OH278796   1.318   2.410   4.939 -0.0130 -0.2949 -0.2005
19102TIP3    H178797   1.245   2.457   4.898 -0.1210 -0.9812 -0.8279
19102TIP3    H278798   1.335   2.337   4.879  0.0148 -1.1743  0.8488
19103TIP3   OH278799   0.843   3.614   2.452 -0.0503  0.1219  0.2142
19103TIP3    H178800   0.766   3.558   2.463 -1.1170  1.5698  0.3594
19103TIP3    H278801   0.852   3.660   2.535 -0.0805  1.2346 -0.3823
19104TIP3   OH278802   0.463   5.104   5.074 -0.2164  0.1060  0.0052
19104TIP3    H178803   0.516   5.171   5.118 -1.4699  0.7323  0.6015
19104TIP3    H278804   0.466   5.028   5.132 -1.0311  0.5850  0.6790
19105TIP3   OH278805   1.195   2.713   1.603 -0.3539 -0.0534  0.4307
19105TIP3    H178806   1.272   2.668   1.568 -1.5897 -1.4673 -0.6471
19105TIP3    H278807   1.227   2.798   1.631  1.2034  0.2411 -1.9697
19106TIP3   OH278808   6.695   4.574  14.003  0.3018  0.4206  0.6569
19106TIP3    H178809   6.684   4.502  13.940 -0.2941  0.0726  1.1520
19106TIP3    H278810   6.607   4.609  14.015  0.6616  1.5917  0.0166
19107TIP3   OH278811   4.202   4.671   6.110  0.1629  0.0503  0.3048
19107TIP3    H178812   4.238   4.621   6.037  0.6359 -0.4092  0.8454
19107TIP3    H278813   4.237   4.628   6.189 -1.2963 -0.2026  0.8486
19108TIP3   OH278814   1.675   2.317   5.773 -0.5377 -0.1653 -0.0404
19108TIP3    H178815   1.596   2.317   5.828  0.0447  0.4572  0.8153
19108TIP3    H278816   1.676   2.404   5.733 -0.6541 -0.4186 -0.5993
19109TIP3   OH278817   1.098   2.634   5.332 -0.4617  0.5999 -0.3054
19109TIP3    H178818   1.166   2.567   5.324 -0.8297  0.3210 -1.1616
19109TIP3    H278819   1.145   2.711   5.365 -0.0846 -0.1428  0.9266
19110TIP3   OH278820   3.199   4.795  10.480  0.1287 -0.1745 -0.1409
19110TIP3    H178821   3.118   4.751  10.452  0.6366 -1.2609  0.0508
19110TIP3    H278822   3.191   4.883  10.445  0.5800 -1.3210 -3.5147
19111TIP3   OH278823   5.422   5.241   1.125  0.3954  0.4258 -0.2936
19111TIP3    H178824   5.470   5.323   1.123  0.6166  0.2992 -1.9283
19111TIP3    H278825   5.378   5.237   1.040 -0.0442 -0.9003 -0.0335
19112TIP3   OH278826   4.326   3.998  13.148  0.4506 -0.2008 -0.4016
19112TIP3    H178827   4.297   4.086  13.170 -1.2406 -1.4035  2.6856
19112TIP3    H278828   4.259   3.965  13.087  0.2695  0.1174 -0.3745
19113TIP3   OH278829   0.820   1.040   6.334  0.1869  0.1099 -0.2876
19113TIP3    H178830   0.757   0.989   6.283  0.2171  1.5359 -1.8530
19113TIP3    H278831   0.902   0.992   6.326  0.2335  0.3865 -1.8022
19114TIP3   OH278832   2.480   0.272   5.032  0.0358 -0.1734  0.0565
19114TIP3    H178833   2.395   0.304   5.001  0.2055  1.3433  1.0703
19114TIP3    H278834   2.486   0.183   4.997 -2.7577 -1.0080  1.4100
19115TIP3   OH278835   4.732   3.870  12.580  0.2043  0.1118  0.2602
19115TIP3    H178836   4.712   3.961  12.560 -0.2512  0.2431  1.2590
19115TIP3    H278837   4.754   3.870  12.674 -0.6870 -0.9324  0.4919
19116TIP3   OH278838   6.463   5.842  14.581 -0.1717  0.0355  0.2773
19116TIP3    H178839   6.371   5.863  14.596 -0.4260 -1.1546  0.5323
19116TIP3    H278840   6.462   5.784  14.504  0.3502 -0.0914  0.3589
19117TIP3   OH278841   0.991   2.486  13.149 -0.1508 -0.0017  0.1859
19117TIP3    H178842   1.086   2.479  13.141 -0.2035  0.5725 -1.3118
19117TIP3    H278843   0.969   2.428  13.222  1.1890 -1.3732 -0.4308
19118TIP3   OH278844   2.711   3.063   4.972  0.1600 -0.0733 -0.1816
19118TIP3    H178845   2.721   3.157   4.983  2.5095  0.2810 -3.7608
19118TIP3    H278846   2.784   3.025   5.020  0.3120  0.0887 -0.2830
19119TIP3   OH278847   2.169   6.343  11.756  0.3714 -0.0258 -0.1748
19119TIP3    H178848   2.098   6.387  11.804 -1.2215  1.3994 -3.5582
19119TIP3    H278849   2.240   6.336  11.821 -1.9129  0.7837  2.6450
19120TIP3   OH278850   1.100   2.281  13.701  0.3144  0.5516 -0.3416
19120TIP3    H178851   1.072   2.265  13.611  2.4201  1.1898 -1.1640
19120TIP3    H278852   1.020   2.303  13.748 -1.0692 -1.3572 -1.6701
19121TIP3   OH278853   6.416   5.259  16.796 -0.7775  0.5985  0.0316
19121TIP3    H178854   6.502   5.254  16.837 -0.0140  0.6980 -1.4771
19121TIP3    H278855   6.385   5.168  16.792 -0.9739  0.6171  1.0239
19122TIP3   OH278856   2.661   4.482  12.686  0.0863  0.2384  0.1691
19122TIP3    H178857   2.616   4.555  12.728 -2.3416 -1.3703  0.5717
19122TIP3    H278858   2.594   4.440  12.633  1.8282 -0.7768 -1.3545
19123TIP3   OH278859   5.466   1.683   4.999  0.0393 -0.3911 -0.4662
19123TIP3    H178860   5.426   1.635   4.926  1.0028 -0.8079 -0.7371
19123TIP3    H278861   5.427   1.644   5.077  0.0709 -0.9518 -0.7200
19124TIP3   OH278862   2.890   1.846   5.026  0.2678 -0.3637 -0.1464
19124TIP3    H178863   2.917   1.919   4.970 -1.0131 -1.2920 -2.0963
19124TIP3    H278864   2.808   1.816   4.988 -0.5906 -1.1791  2.1939
19125TIP3   OH278865   4.949   2.988   5.957  0.2236 -0.0850 -0.1388
19125TIP3    H178866   4.983   3.075   5.939 -1.5985  0.6539 -0.2157
19125TIP3    H278867   4.856   2.993   5.936 -0.3188 -1.5086  1.6086
19126TIP3   OH278868   0.732   6.634   5.163 -0.7636  0.1991 -0.2171
19126TIP3    H178869   0.802   6.684   5.121  0.4821 -0.9724  0.3408
19126TIP3    H278870   0.736   6.661   5.255 -2.3797  1.5496 -0.5043
19127TIP3   OH278871   5.063   2.315  15.511  0.4261 -0.2946  0.3794
19127TIP3    H178872   4.983   2.298  15.462 -0.6593 -2.0187  2.5268
19127TIP3    H278873   5.068   2.410  15.518 -0.2792 -0.0887 -1.5466
19128TIP3   OH278874   4.218   2.239  10.438  0.3228  0.1406  0.0501
19128TIP3    H178875   4.213   2.246  10.533 -2.2654 -0.6046  0.0239
19128TIP3    H278876   4.295   2.185  10.422  2.1840  2.1460  1.5483
19129TIP3   OH278877   5.173   3.639  10.558 -0.0042  0.5624 -0.1861
19129TIP3    H178878   5.097   3.676  10.601 -0.0821 -0.1178  0.2848
19129TIP3    H278879   5.241   3.638  10.625 -0.2560 -0.9197  0.0741
19130TIP3   OH278880   3.981   2.644  14.776 -0.2905  0.6152  0.1226
19130TIP3    H178881   3.932   2.610  14.851 -0.5377 -0.4826 -0.5187
19130TIP3    H278882   4.067   2.601  14.783  0.0613  1.3343  0.3611
19131TIP3   OH278883   0.540   0.947  15.974  0.1718  0.1632  0.3979
19131TIP3    H178884   0.474   0.992  16.026  0.5398  0.9080  0.2373
19131TIP3    H278885   0.502   0.942  15.886  0.2621  0.4597  0.3400
19132TIP3   OH278886   1.951   4.367  13.326 -0.6962 -0.1356  0.0136
19132TIP3    H178887   1.952   4.390  13.233  0.0569  1.5551  0.3976
19132TIP3    H278888   2.010   4.292  13.333 -1.0448 -0.5148 -0.9059
19133TIP3   OH278889   3.898   2.557  15.016  0.4973  0.1342 -0.5491
19133TIP3    H178890   3.825   2.538  15.075 -1.0282 -2.1393 -2.9193
19133TIP3    H278891   3.976   2.525  15.062 -0.4331 -0.3770  0.7266
19134TIP3   OH278892   0.545   6.487  11.405 -0.0441 -0.9200  0.3591
19134TIP3    H178893   0.599   6.434  11.347  0.4425 -2.5376  2.1424
19134TIP3    H278894   0.455   6.459  11.387  0.1927 -2.3103  1.1338
19135TIP3   OH278895   1.275   6.550   5.178 -0.5067 -0.0922 -0.4040
19135TIP3    H178896   1.295   6.637   5.212  1.4790 -0.7744  0.3467
19135TIP3    H278897   1.359   6.516   5.148 -1.2626 -1.6954 -0.8343
19136TIP3   OH278898   1.196   4.782   0.190  0.1993  0.6251  0.3789
19136TIP3    H178899   1.270   4.769   0.249  0.6776  0.6432 -0.2118
19136TIP3    H278900   1.227   4.846   0.126  0.3227 -0.7689 -0.9904
19137TIP3   OH278901   2.426   2.411  14.218  0.3824 -0.5558  0.2313
19137TIP3    H178902   2.439   2.331  14.270  1.3020 -0.6304 -0.1008
19137TIP3    H278903   2.343   2.447  14.251  0.3354 -1.2428  0.9069
19138TIP3   OH278904   1.057   3.791  11.873 -0.6909 -0.4326 -0.0788
19138TIP3    H178905   1.051   3.827  11.784  0.0046 -0.6455 -0.2214
19138TIP3    H278906   1.019   3.703  11.866 -0.2109 -0.6287 -0.2787
19139TIP3   OH278907   0.113   4.928   0.864  0.1568  0.2717  0.4689
19139TIP3    H178908   0.168   4.869   0.914 -2.8596 -1.8711  1.5716
19139TIP3    H278909   0.091   4.999   0.925  1.9133  1.3640 -0.1107
19140TIP3   OH278910   5.083   2.140  13.526 -0.5350 -0.1198 -0.0237
19140TIP3    H178911   5.136   2.081  13.580  1.3949  0.6204 -1.0104
19140TIP3    H278912   4.999   2.144  13.571  0.7182 -0.1514  2.4854
19141TIP3   OH278913   4.114   0.182  13.555  0.4692 -0.0203  0.2457
19141TIP3    H178914   4.083   0.096  13.585 -0.0291  0.2489  0.5128
19141TIP3    H278915   4.035   0.228  13.528  0.7046  0.4569  0.3636
19142TIP3   OH278916   1.241   6.654   4.817  0.3035 -0.1318  0.3827
19142TIP3    H178917   1.305   6.592   4.852  2.9549  0.0152 -3.4784
19142TIP3    H278918   1.181   6.599   4.766  0.3106  0.1004  0.1198
19143TIP3   OH278919   3.841   5.356  15.431  0.0413  0.4236 -0.0592
19143TIP3    H178920   3.892   5.275  15.425  0.3742  0.5806  0.4832
19143TIP3    H278921   3.785   5.356  15.354  1.0669  0.3803 -0.8251
19144TIP3   OH278922   4.175   5.612   1.920  0.3768  0.1598  0.5738
19144TIP3    H178923   4.182   5.527   1.876  0.2050  0.6651 -0.4602
19144TIP3    H278924   4.097   5.603   1.975  1.3910 -0.9584  1.9026
19145TIP3   OH278925   3.888   0.006   5.863  0.0863 -0.2104  0.1193
19145TIP3    H178926   3.801  -0.033   5.860  0.0737 -0.2410  0.7437
19145TIP3    H278927   3.934  -0.043   5.930 -0.1249  1.1981  1.3549
19146TIP3   OH278928   2.150   4.125   2.009 -0.2077  0.0305 -0.5788
19146TIP3    H178929   2.085   4.105   2.077  0.8531  0.2060  0.5191
19146TIP3    H278930   2.228   4.150   2.057  0.8208 -0.5877 -1.8619
19147TIP3   OH278931   5.248   5.495  13.061  0.1253  0.0007 -0.0092
19147TIP3    H178932   5.272   5.562  12.997  0.2302  2.0044  1.9948
19147TIP3    H278933   5.169   5.530  13.103  1.2403 -0.1725  2.3749
19148TIP3   OH278934   3.204   4.995   1.546 -0.2627  0.4893  0.9444
19148TIP3    H178935   3.154   5.048   1.608 -2.8079 -1.8491  1.1168
19148TIP3    H278936   3.210   4.909   1.588  1.9948  0.0620 -0.1194
19149TIP3   OH278937   5.695   2.870  15.375  0.5355  0.2530  0.6478
19149TIP3    H178938   5.603   2.893  15.388  0.1763 -1.0981  0.6371
19149TIP3    H278939   5.702   2.780  15.408  1.1450 -0.8344 -2.2196
19150TIP3   OH278940   5.315   0.222   0.026 -0.0235 -0.4224 -0.3656
19150TIP3    H178941   5.361   0.265  -0.046  0.9239  0.0377  0.4927
19150TIP3    H278942   5.223   0.247   0.014  0.4444  1.6307 -0.0714
19151TIP3   OH278943   6.159   2.277   0.092 -0.5092  0.3814 -0.1937
19151TIP3    H178944   6.238   2.262   0.144 -1.9786 -2.3290  1.5054
19151TIP3    H278945   6.107   2.337   0.146 -0.0212  1.4672 -0.9022
19152TIP3   OH278946   0.675   2.422  12.194 -0.5141  0.6711  0.6471
19152TIP3    H178947   0.679   2.487  12.124 -0.6638  1.2527  1.1756
19152TIP3    H278948   0.765   2.417  12.228 -0.1149 -0.6306 -0.4841
19153TIP3   OH278949   5.398   6.167  12.473  0.2318 -0.2958  0.2244
19153TIP3    H178950   5.465   6.101  12.456  0.4167  0.0017 -0.2195
19153TIP3    H278951   5.433   6.247  12.434  0.2415  0.1897  1.2067
19154TIP3   OH278952   2.062   5.886  14.709 -0.2483  0.7746  0.2653
19154TIP3    H178953   2.133   5.942  14.740 -1.4553  1.4382  1.9781
19154TIP3    H278954   1.982   5.928  14.742 -1.4203 -0.2402 -1.1396
19155TIP3   OH278955   4.541   5.612  13.392 -0.4005 -0.2262 -0.5658
19155TIP3    H178956   4.622   5.571  13.423 -1.2293 -0.8802  0.8608
19155TIP3    H278957   4.471   5.563  13.437 -1.4876  1.8655  0.1376
19156TIP3   OH278958   3.705   0.708  13.965  0.0183  0.4113  0.1804
19156TIP3    H178959   3.691   0.756  13.883  0.8147  0.7527  0.2315
19156TIP3    H278960   3.719   0.618  13.938  1.4693  0.7215 -0.1756
19157TIP3   OH278961   1.485   5.329   4.398  0.1642  0.2135 -0.2438
19157TIP3    H178962   1.560   5.376   4.363  0.4237  0.4044  0.5503
19157TIP3    H278963   1.522   5.268   4.462 -0.4686  1.4765  1.4039
19158TIP3   OH278964   5.678   6.737  17.148  0.6252  0.1465  0.0071
19158TIP3    H178965   5.712   6.656  17.186 -0.1722  0.5072  1.5949
19158TIP3    H278966   5.589   6.717  17.122 -0.2100  0.9354  2.0739
19159TIP3   OH278967   4.612   5.906  16.601  0.1318  0.0334 -0.5250
19159TIP3    H178968   4.589   5.832  16.657  0.9176 -0.0778 -0.3389
19159TIP3    H278969   4.705   5.921  16.617  0.2118  0.4334 -1.3006
19160TIP3   OH278970   2.752   6.319  11.883  0.0281  0.1028  0.8392
19160TIP3    H178971   2.735   6.273  11.966 -0.2692  0.3217  0.9020
19160TIP3    H278972   2.729   6.255  11.816  1.7915 -0.6501  0.9022
19161TIP3   OH278973   6.248   2.231  13.327 -0.3428 -0.4193 -0.1638
19161TIP3    H178974   6.248   2.229  13.231 -0.7327  0.1258 -0.1788
19161TIP3    H278975   6.212   2.146  13.353  2.1280 -1.6467 -0.4520
19162TIP3   OH278976   5.708   0.937  12.148  0.8417 -0.4241  0.6839
19162TIP3    H178977   5.725   1.020  12.105 -1.2945 -1.7859 -3.2539
19162TIP3    H278978   5.643   0.957  12.215  0.3415  1.0580 -0.2201
19163TIP3   OH278979   5.590   3.759   1.490 -0.2710  0.0050  0.4840
19163TIP3    H178980   5.590   3.854   1.478  0.9166  0.3040  2.5258
19163TIP3    H278981   5.679   3.732   1.465 -0.2266 -0.4012  1.0796
19164TIP3   OH278982   6.676   4.763   1.632 -0.0649  0.7425  0.1337
19164TIP3    H178983   6.604   4.709   1.598  1.1614 -1.2405  0.5652
19164TIP3    H278984   6.729   4.783   1.555 -0.4027  1.1734  0.0075
19165TIP3   OH278985   0.242   1.629  14.931 -0.0093  0.3287 -0.3256
19165TIP3    H178986   0.323   1.657  14.973  0.4554 -1.5113  0.1052
19165TIP3    H278987   0.249   1.662  14.841 -1.0350  4.3580  0.8753
19166TIP3   OH278988   3.331   6.584  13.356  0.4345 -0.6106  0.5618
19166TIP3    H178989   3.346   6.622  13.442 -1.3494  0.0835  0.5959
19166TIP3    H278990   3.246   6.541  13.363  0.6305 -1.2155 -0.6227
19167TIP3   OH278991   6.299   5.231   2.875  0.6215 -0.4494 -0.1106
19167TIP3    H178992   6.215   5.206   2.913  1.1321 -0.8533  0.7740
19167TIP3    H278993   6.290   5.212   2.782 -1.0018  1.4658 -0.4169
19168TIP3   OH278994   6.543   1.952   3.983  0.2482  0.2811 -0.6664
19168TIP3    H178995   6.466   1.900   3.958 -0.5482  2.1003 -2.2291
19168TIP3    H278996   6.603   1.942   3.910 -0.8681  3.2727 -2.1327
19169TIP3   OH278997   4.280   1.658  14.824 -0.2078 -0.5914 -0.3382
19169TIP3    H178998   4.365   1.678  14.863  0.2936 -1.9083 -0.7191
19169TIP3    H278999   4.233   1.741  14.826  0.5897 -0.1484  1.0929
19170TIP3   OH279000   1.233   6.081  11.385 -0.3969 -0.1466  0.2543
19170TIP3    H179001   1.150   6.042  11.358 -0.2066 -0.4663  0.1208
19170TIP3    H279002   1.220   6.175  11.373 -0.7569 -0.1901  0.2877
19171TIP3   OH279003   3.752   0.514  14.485 -0.3426  0.1505  0.2654
19171TIP3    H179004   3.693   0.497  14.412  0.6632 -0.7928 -0.3717
19171TIP3    H279005   3.784   0.603  14.470 -0.0756 -0.0661 -0.5120
19172TIP3   OH279006   4.984   2.700   2.557 -0.2743  0.2065 -0.0592
19172TIP3    H179007   5.047   2.771   2.566  2.0282 -1.3827 -2.1968
19172TIP3    H279008   5.004   2.660   2.472 -1.3734 -3.0461  1.0432
19173TIP3   OH279009   1.948   1.740  10.542  0.4128  0.1461 -0.0819
19173TIP3    H179010   1.950   1.815  10.483  0.9081 -0.7288 -1.2137
19173TIP3    H279011   2.022   1.753  10.600  0.0610  0.8980  0.2090
19174TIP3   OH279012   0.196   2.272   5.287  0.3585 -0.6736  0.2548
19174TIP3    H179013   0.286   2.240   5.280  1.0986  1.2378  0.6296
19174TIP3    H279014   0.185   2.333   5.214  0.0887  0.6931  1.3870
19175TIP3   OH279015   0.366   6.475   0.303  0.0653 -0.0925  0.6750
19175TIP3    H179016   0.379   6.545   0.367 -1.9971 -0.7647  1.9465
19175TIP3    H279017   0.412   6.400   0.340 -0.3832 -0.2400  0.9463
19176TIP3   OH279018   5.177   4.889   3.777  0.3185  0.6725 -0.2163
19176TIP3    H179019   5.220   4.899   3.692  0.4559  0.1936 -0.2054
19176TIP3    H279020   5.194   4.798   3.802 -1.1378  0.3138 -0.4436
19177TIP3   OH279021   4.006   2.966   3.810  0.1599 -0.1430 -0.1432
19177TIP3    H179022   3.957   2.885   3.802 -0.2668  0.2945 -3.2486
19177TIP3    H279023   3.945   3.027   3.851 -0.7283 -0.5285 -0.8475
19178TIP3   OH279024   1.660   0.985   4.967  0.5611 -0.3892 -0.3463
19178TIP3    H179025   1.591   0.919   4.977 -1.6548  1.3974 -2.7332
19178TIP3    H279026   1.696   0.969   4.880  0.3580  1.1607 -0.7415
19179TIP3   OH279027   5.255   6.510   6.620  0.3215  0.2110 -0.7167
19179TIP3    H179028   5.336   6.493   6.669  0.0008  2.2003  0.6156
19179TIP3    H279029   5.195   6.442   6.648 -0.1885  1.8164  2.6087
19180TIP3   OH279030   5.805   6.467   0.053 -0.6000 -0.0951  0.5738
19180TIP3    H179031   5.879   6.463  -0.007 -1.5302 -1.3338 -0.5415
19180TIP3    H279032   5.812   6.387   0.106 -1.4198 -0.4911  0.1007
19181TIP3   OH279033   2.713   5.435  15.932  0.5987  0.1373 -0.8854
19181TIP3    H179034   2.688   5.459  15.843  1.2611 -0.6663 -1.2979
19181TIP3    H279035   2.694   5.342  15.938  0.6200  0.1746 -0.2103
19182TIP3   OH279036   5.923   5.088  13.602  0.3370  0.5187 -0.3173
19182TIP3    H179037   5.863   5.162  13.590 -0.5998  0.1340  1.6199
19182TIP3    H279038   6.007   5.130  13.623  0.2123  1.0421 -0.8363
19183TIP3   OH279039   6.567   0.103  14.203 -0.0088  1.3552  0.3288
19183TIP3    H179040   6.575   0.099  14.107 -0.7248  1.4270  0.2569
19183TIP3    H279041   6.586   0.014  14.232 -0.0500  1.2664  0.0921
19184TIP3   OH279042   1.012   3.391  11.353 -0.5811 -0.5190  0.4087
19184TIP3    H179043   1.074   3.448  11.308  1.4068  0.2444  3.7583
19184TIP3    H279044   0.986   3.327  11.288  1.0451  1.2081 -2.1038
19185TIP3   OH279045   5.386   4.289   0.184 -0.7361 -0.6373 -0.0862
19185TIP3    H179046   5.470   4.302   0.228 -1.1331  1.6622  0.1180
19185TIP3    H279047   5.386   4.197   0.159  2.2781 -0.4988 -0.9710
19186TIP3   OH279048   3.267   2.897   4.781 -0.1623  0.1214  0.7966
19186TIP3    H179049   3.255   2.803   4.796  0.7485 -0.0912  0.2656
19186TIP3    H279050   3.186   2.924   4.739  1.2340 -1.4460 -3.4680
19187TIP3   OH279051   2.571   3.763   2.057 -0.3738 -0.1469  0.2421
19187TIP3    H179052   2.514   3.836   2.084  0.3091 -0.0032  1.3598
19187TIP3    H279053   2.512   3.700   2.016 -1.1092  0.6474  0.0549
19188TIP3   OH279054   0.692   0.189   5.831  0.1556  0.3012 -0.3387
19188TIP3    H179055   0.669   0.106   5.874 -0.7666  0.4553 -0.5171
19188TIP3    H279056   0.730   0.242   5.901  0.6406 -0.2219 -0.1965
19189TIP3   OH279057   3.551   6.306   1.189  0.3506 -0.0546  0.0104
19189TIP3    H179058   3.479   6.363   1.160  0.3170  0.7020  1.4822
19189TIP3    H279059   3.605   6.362   1.246  1.5855 -0.8749 -0.3117
19190TIP3   OH279060   5.759   5.853   5.678  0.3278  0.3352 -0.4883
19190TIP3    H179061   5.747   5.779   5.618  0.7643 -1.4725  1.5587
19190TIP3    H279062   5.816   5.820   5.747  2.2068  3.2008 -0.4768
19191TIP3   OH279063   5.902   5.527  12.491 -0.1478  0.3958 -0.2189
19191TIP3    H179064   5.941   5.591  12.550  0.0796 -0.6181  0.7788
19191TIP3    H279065   5.946   5.445  12.512 -0.5041 -0.1175 -1.3902
19192TIP3   OH279066   2.870   2.959  11.303  0.0321  0.2699 -0.3111
19192TIP3    H179067   2.787   2.911  11.300 -0.3083  0.8506 -2.4305
19192TIP3    H279068   2.884   2.979  11.395 -2.3655  0.4168  0.0802
19193TIP3   OH279069   1.559   5.807  17.045  0.2021  0.1412  0.1015
19193TIP3    H179070   1.510   5.745  16.992  0.6920  0.7929 -1.1651
19193TIP3    H279071   1.648   5.806  17.008  0.2353  1.5264  0.0862
19194TIP3   OH279072   5.354   0.741   3.728  0.0772  1.1439 -0.0374
19194TIP3    H179073   5.364   0.778   3.816 -0.4805 -0.8783  0.9381
19194TIP3    H279074   5.275   0.687   3.734  0.3264  0.5508 -1.6407
19195TIP3   OH279075   2.263   4.654   2.301 -0.8192 -1.0184  0.3653
19195TIP3    H179076   2.359   4.648   2.305 -0.8019 -0.2814  1.2929
19195TIP3    H279077   2.234   4.563   2.291  0.0563 -1.1007 -2.7694
19196TIP3   OH279078   6.026   4.460   0.879  0.0197  0.2316 -0.0296
19196TIP3    H179079   6.022   4.552   0.902  1.4277  0.4129 -0.3978
19196TIP3    H279080   5.990   4.415   0.955  1.3604  0.9956  1.1155
19197TIP3   OH279081   1.465   3.278   2.325 -0.7006 -0.2178 -0.6574
19197TIP3    H179082   1.559   3.258   2.321 -0.0413  1.2466  3.0362
19197TIP3    H279083   1.432   3.222   2.395 -3.2721 -2.4052 -3.3637
19198TIP3   OH279084   6.159   5.515  15.500  0.3213  0.2462  0.3198
19198TIP3    H179085   6.142   5.582  15.566  0.0646  0.2785  0.2229
19198TIP3    H279086   6.249   5.530  15.473  0.7680 -0.3925  1.3784
19199TIP3   OH279087   3.625   0.815   4.254  0.5932 -0.0491  0.1964
19199TIP3    H179088   3.717   0.820   4.279  0.5253 -0.2271  0.4861
19199TIP3    H279089   3.612   0.724   4.226  0.3659 -0.1849  0.7229
19200TIP3   OH279090   2.130   1.411   4.132 -0.1842  0.0861 -0.5921
19200TIP3    H179091   2.062   1.394   4.198 -1.7924  2.0882 -1.6343
19200TIP3    H279092   2.204   1.447   4.182 -0.3663 -0.8297  0.3906
19201TIP3   OH279093   1.849   6.008   3.494  0.2793 -0.0432 -0.5964
19201TIP3    H179094   1.771   5.985   3.444  1.4127 -2.3450 -1.4803
19201TIP3    H279095   1.850   5.946   3.567  1.4916 -0.3954 -0.8778
19202TIP3   OH279096   0.862   5.098  13.695  0.3654 -0.0859  0.0464
19202TIP3    H179097   0.859   5.046  13.614 -1.1136 -1.0591  0.6752
19202TIP3    H279098   0.950   5.134  13.697  0.1256  0.8698 -2.5541
19203TIP3   OH279099   4.540   3.333   1.078  0.5781 -0.2551  0.5198
19203TIP3    H179100   4.481   3.346   1.152  1.0787 -1.0483  1.0696
19203TIP3    H279101   4.482   3.321   1.002  0.0008 -1.9157  1.1859
19204TIP3   OH279102   6.394   5.781  11.712 -0.2053 -0.4182  0.1398
19204TIP3    H179103   6.487   5.802  11.722 -0.1622 -0.8150  0.6402
19204TIP3    H279104   6.361   5.775  11.802 -0.6590 -0.5156 -0.0285
19205TIP3   OH279105   2.670   1.244  16.364 -0.0443 -0.1636 -0.0314
19205TIP3    H179106   2.607   1.176  16.340 -1.1843  0.7087  0.4246
19205TIP3    H279107   2.729   1.249  16.288 -0.8392 -0.6228 -0.7056
19206TIP3   OH279108   1.893   3.527   5.358  0.7627  0.3532  0.1541
19206TIP3    H179109   1.845   3.482   5.428  0.1242 -2.2187 -1.7912
19206TIP3    H279110   1.830   3.590   5.322  0.5762  0.5823  0.8604
19207TIP3   OH279111   6.672   1.780   1.787  0.3259 -0.2465 -0.1987
19207TIP3    H179112   6.681   1.876   1.794  0.1746 -0.3295  1.8958
19207TIP3    H279113   6.746   1.746   1.838 -0.7008 -1.1978  0.7158
19208TIP3   OH279114   1.943   6.456  11.576  0.2281 -0.2846 -0.1736
19208TIP3    H179115   2.015   6.412  11.622  1.4650 -0.8593 -2.5046
19208TIP3    H279116   1.971   6.547  11.569 -0.3611 -0.0004  0.8849
19209TIP3   OH279117   4.801   6.713  13.984  0.2884 -0.0555 -0.2377
19209TIP3    H179118   4.741   6.764  14.037  3.3751  3.2818  0.4734
19209TIP3    H279119   4.834   6.646  14.044 -0.7046 -0.2022  0.1650
19210TIP3   OH279120   5.684   0.809   1.580  0.1903  0.3595 -0.2842
19210TIP3    H179121   5.748   0.871   1.615 -1.3076  0.6042  2.2690
19210TIP3    H279122   5.671   0.745   1.650 -1.8351 -0.0553 -0.9671
19211TIP3   OH279123   0.601   1.542   6.315 -0.3988  0.1631 -0.8622
19211TIP3    H179124   0.509   1.535   6.337  0.0304 -1.4259  0.5967
19211TIP3    H279125   0.615   1.636   6.299 -1.6531  0.8777  1.8207
19212TIP3   OH279126   4.183   1.613  13.933 -0.2380 -0.2909 -0.1475
19212TIP3    H179127   4.227   1.698  13.926  0.5784 -0.6388  0.6070
19212TIP3    H279128   4.254   1.551  13.949 -0.8846 -1.0519 -0.1817
19213TIP3   OH279129   6.646   4.728   5.526  0.2603 -0.8322  0.1383
19213TIP3    H179130   6.677   4.763   5.609 -1.6279 -0.5506  0.7726
19213TIP3    H279131   6.614   4.640   5.548  0.2639 -0.9718 -0.4015
19214TIP3   OH279132   2.082   4.328   4.279  0.3549 -0.4404 -0.4720
19214TIP3    H179133   2.028   4.251   4.295  0.6255 -0.3628  1.0421
19214TIP3    H279134   2.152   4.298   4.222 -1.5247 -0.4125 -2.9442
19215TIP3   OH279135   2.477   2.162  12.377  0.5681 -0.4165  0.0712
19215TIP3    H179136   2.531   2.234  12.409  1.1966  0.1524 -2.1409
19215TIP3    H279137   2.393   2.202  12.357  0.8308 -0.3282 -0.8960
19216TIP3   OH279138   1.885   0.802  15.064 -0.2980  0.0046 -0.2131
19216TIP3    H179139   1.877   0.817  15.158 -0.9473 -0.5747 -0.1649
19216TIP3    H279140   1.886   0.706  15.055  0.9481  0.0399 -0.7081
19217TIP3   OH279141   1.202   2.445   2.464 -0.8634 -0.2427  0.5002
19217TIP3    H179142   1.224   2.369   2.517  0.3174 -0.6225 -0.4830
19217TIP3    H279143   1.128   2.417   2.411 -0.4656 -0.6980  0.1818
19218TIP3   OH279144   2.992   2.853  16.805 -0.3924  0.0409  0.0003
19218TIP3    H179145   2.936   2.852  16.728 -0.9862 -1.3320  0.4172
19218TIP3    H279146   3.075   2.816  16.774  0.2824  1.9481 -0.5854
19219TIP3   OH279147   4.960   5.453  14.000 -0.0844  0.5970 -0.4236
19219TIP3    H179148   4.909   5.373  14.009 -1.3675  1.4778  0.4395
19219TIP3    H279149   5.032   5.429  13.941  0.1441 -1.4482  0.5925
19220TIP3   OH279150   4.319   1.935  15.847  0.1765 -0.4253 -0.0725
19220TIP3    H179151   4.229   1.937  15.879 -0.0932  3.2203 -0.5809
19220TIP3    H279152   4.312   1.905  15.757 -0.4429 -0.8233  0.1054
19221TIP3   OH279153   2.304   1.016   1.741  0.1565 -0.1351  0.1397
19221TIP3    H179154   2.354   1.065   1.675  0.5284  2.3759  2.1166
19221TIP3    H279155   2.348   0.931   1.747  1.5512  0.4559 -1.1661
19222TIP3   OH279156   5.874   2.984   1.896  0.4261  0.0419  0.0547
19222TIP3    H179157   5.800   2.944   1.851 -0.7423  0.6562  1.3590
19222TIP3    H279158   5.895   3.061   1.844 -1.9272  1.6338  1.2622
19223TIP3   OH279159   0.086   2.013   3.958  1.1061 -0.1614  0.4234
19223TIP3    H179160  -0.007   2.022   3.934  1.0991  2.0312  1.1087
19223TIP3    H279161   0.100   1.918   3.960 -0.7441 -0.5421 -1.0570
19224TIP3   OH279162   5.269   2.872  14.663 -0.1768 -0.2587  0.3854
19224TIP3    H179163   5.267   2.830  14.576 -0.4605  0.2095  0.1646
19224TIP3    H279164   5.281   2.965  14.644 -2.9401  0.2296  0.7223
19225TIP3   OH279165   0.229   6.230  14.556  0.2822  0.0434  0.6150
19225TIP3    H179166   0.150   6.179  14.542  0.5787 -0.8083  1.8892
19225TIP3    H279167   0.298   6.164  14.566  0.9240  0.7320  0.8132
19226TIP3   OH279168   1.544   6.177  13.192  0.0180 -0.1533  0.2908
19226TIP3    H179169   1.461   6.204  13.152 -0.6464  0.5067  1.9791
19226TIP3    H279170   1.542   6.219  13.279  0.2337 -3.4043  2.0050
19227TIP3   OH279171   5.872   2.133   4.493 -0.0709  0.1989 -0.0064
19227TIP3    H179172   5.902   2.073   4.561  0.2065  0.5450  0.1832
19227TIP3    H279173   5.938   2.203   4.492  1.2408 -0.9606 -2.2383
19228TIP3   OH279174   5.685   5.812   2.320  0.1954 -0.9959 -0.4297
19228TIP3    H179175   5.638   5.734   2.291 -1.4778 -1.5918  3.2683
19228TIP3    H279176   5.620   5.882   2.315  0.2958 -0.8339  0.4485
19229TIP3   OH279177   3.511   0.735   0.879 -0.1268 -0.3963 -0.4307
19229TIP3    H179178   3.529   0.819   0.838  0.4200 -0.0414  0.5015
19229TIP3    H279179   3.596   0.691   0.883  0.2465  0.3737  2.0142
19230TIP3   OH279180   4.097   4.750  11.729  0.7961 -0.2642  0.2643
19230TIP3    H179181   4.009   4.781  11.751 -0.0136 -2.4694  0.3472
19230TIP3    H279182   4.122   4.802  11.652 -1.5879 -1.2231 -1.2744
19231TIP3   OH279183   4.061   3.116   1.865  0.3163 -0.0903 -0.2926
19231TIP3    H179184   3.989   3.172   1.835 -0.8839 -1.8275 -0.8408
19231TIP3    H279185   4.124   3.118   1.793  0.6860  1.1831  0.0475
19232TIP3   OH279186   5.408   3.882  14.161 -0.0977  0.0546 -0.1647
19232TIP3    H179187   5.430   3.974  14.172 -0.7777  0.3049 -0.8702
19232TIP3    H279188   5.373   3.856  14.247 -1.1982  0.8237 -0.3661
19233TIP3   OH279189   6.135   5.088  16.574  0.0570  0.7689  0.1688
19233TIP3    H179190   6.095   5.164  16.616  1.2778  0.3123  2.3148
19233TIP3    H279191   6.164   5.120  16.488 -0.6785  2.3277  0.4642
19234TIP3   OH279192   2.490   1.780   4.279 -0.2436 -0.2404 -0.0542
19234TIP3    H179193   2.484   1.850   4.343  1.4409 -0.6159  0.5744
19234TIP3    H279194   2.582   1.781   4.251 -1.0723  0.4434 -3.1055
19235TIP3   OH279195   2.799   2.409  11.901 -0.1079  0.3164  0.6949
19235TIP3    H179196   2.718   2.459  11.905  0.4979  1.3631  0.1200
19235TIP3    H279197   2.869   2.474  11.905  0.7045 -0.2078 -2.3220
19236TIP3   OH279198   5.658   4.232   1.016  0.1605  0.4731 -0.3547
19236TIP3    H179199   5.621   4.293   1.079  2.7060  1.1585  0.5925
19236TIP3    H279200   5.753   4.243   1.024  0.6242 -0.7207 -3.0381
19237TIP3   OH279201   4.480   5.295   5.911 -0.1542 -0.0294  0.1896
19237TIP3    H179202   4.545   5.358   5.883 -0.4401  0.9023  1.5310
19237TIP3    H279203   4.418   5.345   5.964 -0.4618 -1.3859  1.1934
19238TIP3   OH279204   0.124   1.086  12.567  0.1780 -0.1064  0.6000
19238TIP3    H179205   0.094   1.088  12.658 -0.9458  1.2126  0.2238
19238TIP3    H279206   0.050   1.052  12.517  0.8873 -1.0956  0.2002
19239TIP3   OH279207   3.266   6.663  11.076 -0.6246  0.6716 -1.1266
19239TIP3    H179208   3.353   6.702  11.061 -0.7628  1.7986  0.6543
19239TIP3    H279209   3.212   6.698  11.006 -0.3626  2.5404 -0.4462
19240TIP3   OH279210   2.148   2.716  16.567  0.6530  0.1768  0.1252
19240TIP3    H179211   2.093   2.697  16.492 -1.2812 -1.9474  1.9545
19240TIP3    H279212   2.215   2.647  16.566  1.3733  0.8573 -0.2662
19241TIP3   OH279213   4.554   4.102   0.858  0.0880  0.2094  0.0473
19241TIP3    H179214   4.471   4.080   0.816 -0.6905  3.0833 -0.1173
19241TIP3    H279215   4.530   4.126   0.947  0.5629  1.8601 -0.2333
19242TIP3   OH279216   1.927   6.017  13.097 -0.0527 -0.4904 -0.0995
19242TIP3    H179217   2.014   6.034  13.062 -0.2503  0.2782 -0.2397
19242TIP3    H279218   1.873   6.000  13.020  0.1801 -1.9933  0.0507
19243TIP3   OH279219   5.247   1.297  12.857  0.3113 -0.3855 -0.0446
19243TIP3    H179220   5.332   1.300  12.900  0.2533 -2.0174  0.2365
19243TIP3    H279221   5.253   1.223  12.797 -1.3320 -1.3693  0.9438
19244TIP3   OH279222   2.017   1.773  12.687 -0.1045  0.1072 -0.5490
19244TIP3    H179223   2.009   1.759  12.592  1.1819  0.1818 -0.6852
19244TIP3    H279224   2.060   1.858  12.695  0.4042 -0.2053  0.0889
19245TIP3   OH279225   6.686   3.288  13.346  0.0306 -0.2104 -0.3385
19245TIP3    H179226   6.690   3.361  13.407 -1.1240  0.2953 -0.8454
19245TIP3    H279227   6.594   3.262  13.345 -0.1343  0.2868 -2.4216
19246TIP3   OH279228   6.519   1.066   4.274  0.1909  0.5140 -0.1773
19246TIP3    H179229   6.543   0.989   4.222  0.5901  1.7947 -1.9776
19246TIP3    H279230   6.461   1.116   4.217 -1.2998  0.8491  1.5352
19247TIP3   OH279231   0.214   2.661  16.968 -0.7772  0.2027  0.2449
19247TIP3    H179232   0.167   2.644  16.886 -1.0578  0.7046  0.3018
19247TIP3    H279233   0.306   2.663  16.942 -0.2444 -4.8535  0.7264
19248TIP3   OH279234   4.261   0.747   2.830 -0.4135 -0.5957 -0.3763
19248TIP3    H179235   4.180   0.754   2.881 -1.2923 -0.8758 -1.6793
19248TIP3    H279236   4.241   0.792   2.747  0.9459 -0.2116 -0.5192
19249TIP3   OH279237   4.532   3.241  16.059 -0.8182  0.3647  0.1541
19249TIP3    H179238   4.485   3.177  16.112 -0.4773 -0.4486 -0.5219
19249TIP3    H279239   4.547   3.198  15.975  1.3654  0.4909  0.4203
19250TIP3   OH279240   3.478   5.661  12.048  0.3309 -0.8855  0.6041
19250TIP3    H179241   3.460   5.749  12.078 -0.0678 -0.7739  0.0484
19250TIP3    H279242   3.487   5.669  11.953  2.3742 -1.0887  0.7352
19251TIP3   OH279243   6.776   0.069  16.326 -0.3983 -0.2987  0.0419
19251TIP3    H179244   6.785   0.056  16.231 -1.8949 -1.9992  0.0649
19251TIP3    H279245   6.739  -0.014  16.357  0.6824 -0.0206  2.2328
19252TIP3   OH279246   3.207   5.388   5.778  0.1768  0.6268  0.0263
19252TIP3    H179247   3.275   5.395   5.712  0.6812  1.9063  0.6488
19252TIP3    H279248   3.160   5.472   5.774 -1.6727 -0.3830 -0.6921
19253TIP3   OH279249   4.304   4.117   1.689  0.5023  0.5463  0.2084
19253TIP3    H179250   4.235   4.076   1.638  0.5450 -0.6531  1.0710
19253TIP3    H279251   4.265   4.197   1.723 -0.1456  0.3799 -0.1307
19254TIP3   OH279252   4.524   6.235  15.578 -0.3782 -0.3978 -0.7117
19254TIP3    H179253   4.513   6.320  15.620  0.3264 -0.6700  0.0388
19254TIP3    H279254   4.617   6.214  15.589 -1.0544 -2.6050  1.7091
19255TIP3   OH279255   6.840   5.024  13.876 -0.2771 -0.6989 -0.3068
19255TIP3    H179256   6.866   4.950  13.821  1.0741  0.2587 -1.0050
19255TIP3    H279257   6.865   4.999  13.965  1.2229 -0.6315 -0.6956
19256TIP3   OH279258   5.486   4.612   2.530  0.0066 -0.2219  0.0504
19256TIP3    H179259   5.430   4.682   2.564  0.8961  0.0523  1.0177
19256TIP3    H279260   5.574   4.635   2.561  0.5850 -0.8750 -1.0489
19257TIP3   OH279261   0.897   3.543   5.230 -0.0961  1.1596  0.4814
19257TIP3    H179262   0.955   3.590   5.170 -1.0308  1.8939  0.1413
19257TIP3    H279263   0.925   3.571   5.317  2.1615 -0.9113  0.5592
19258TIP3   OH279264   3.622   3.617  12.867 -0.3087  0.0211  0.0125
19258TIP3    H179265   3.581   3.689  12.916  2.2242  1.6088 -0.0352
19258TIP3    H279266   3.624   3.544  12.929 -2.4505  0.0865  0.2461
19259TIP3   OH279267   1.509   6.500   1.485  0.5978 -0.0481  0.6297
19259TIP3    H179268   1.471   6.548   1.411  0.6233 -0.7010  0.1785
19259TIP3    H279269   1.477   6.545   1.563  0.9157  0.9196  0.2208
19260TIP3   OH279270   3.486   4.632  12.181  0.4874 -0.4413  0.2950
19260TIP3    H179271   3.482   4.687  12.102  0.9293 -0.3188  0.3577
19260TIP3    H279272   3.556   4.670  12.233 -0.6222  0.2380  1.3303
19261TIP3   OH279273   6.158   1.363   2.038 -0.6909  0.0131 -0.2135
19261TIP3    H179274   6.241   1.366   1.990 -1.7043  2.1731 -1.9981
19261TIP3    H279275   6.103   1.304   1.988 -1.5161  1.7202 -1.3898
19262TIP3   OH279276   3.633   5.116  10.749  0.4054  0.2767  0.3568
19262TIP3    H179277   3.694   5.161  10.808  1.9635  1.4005 -2.0000
19262TIP3    H279278   3.670   5.028  10.739  2.2871  1.1933 -1.7167
19263TIP3   OH279279   1.335   2.285  11.121 -0.1001  0.1872  0.1027
19263TIP3    H179280   1.340   2.190  11.123 -1.1703  0.1013 -0.5688
19263TIP3    H279281   1.390   2.311  11.047 -1.7699 -0.0972 -1.2876
19264TIP3   OH279282   0.390   5.974   0.964 -0.1695 -0.4058  0.4276
19264TIP3    H179283   0.367   6.034   0.894  0.2710 -1.1415 -0.3589
19264TIP3    H279284   0.306   5.946   1.001 -0.4088 -0.1651  0.0649
19265TIP3   OH279285   0.105   4.023   3.246 -0.2932 -0.5824  0.0809
19265TIP3    H179286   0.117   4.109   3.207 -0.7437 -1.1017 -1.2735
19265TIP3    H279287   0.176   4.015   3.309  0.5735  0.2405 -0.7594
19266TIP3   OH279288   6.652   3.676   3.803 -0.7070 -0.5597  0.4282
19266TIP3    H179289   6.601   3.704   3.728 -0.2255 -0.5464  0.1008
19266TIP3    H279290   6.698   3.598   3.773  2.2035  1.3279 -0.4925
19267TIP3   OH279291   6.773   3.879  15.761 -0.0018  0.1401  0.6393
19267TIP3    H179292   6.745   3.812  15.698  0.5475  0.1228  0.4090
19267TIP3    H279293   6.867   3.887  15.748  0.0567  0.4255  1.1862
19268TIP3   OH279294   3.102   0.081   3.160 -0.1576 -0.2473 -0.1435
19268TIP3    H179295   3.072   0.037   3.080 -1.1701  1.2415 -0.6189
19268TIP3    H279296   3.141   0.163   3.129 -0.8281  0.4791  0.9080
19269TIP3   OH279297   4.553   2.587   4.439 -0.1853 -0.9974  0.2885
19269TIP3    H179298   4.516   2.635   4.364 -0.5063  0.0360  1.0783
19269TIP3    H279299   4.647   2.602   4.433  0.1696 -3.4638 -1.6142
19270TIP3   OH279300   6.685   0.256  13.976 -0.1204 -0.5151  0.0377
19270TIP3    H179301   6.762   0.313  13.978 -0.4400 -0.0684 -0.3366
19270TIP3    H279302   6.618   0.305  14.025 -0.7583 -0.0353 -1.2856
19271TIP3   OH279303   5.503   0.197  15.549 -0.1244 -0.0195  0.0498
19271TIP3    H179304   5.573   0.231  15.605  0.3332  2.3098 -1.7947
19271TIP3    H279305   5.498   0.104  15.570  3.2380 -0.1770  0.5698
19272TIP3   OH279306   4.580   1.200  13.836 -0.4807 -0.1232 -0.2926
19272TIP3    H179307   4.556   1.108  13.847 -1.0265  0.0008 -0.3881
19272TIP3    H279308   4.656   1.199  13.779 -0.3994 -0.5236 -0.1775
19273TIP3   OH279309   5.395   3.127   1.743  0.6088 -0.2704 -0.0745
19273TIP3    H179310   5.481   3.131   1.785  0.6499  0.2457 -0.1992
19273TIP3    H279311   5.406   3.068   1.669  1.2833  1.0294 -1.0498
19274TIP3   OH279312   3.295   4.604   4.331  0.0742 -0.3352 -0.0504
19274TIP3    H179313   3.299   4.659   4.253  0.1943  1.3277  1.0660
19274TIP3    H279314   3.252   4.659   4.397 -0.2064 -1.7615  1.0040
19275TIP3   OH279315   4.737   5.329  14.274  0.0218 -0.0821  0.3303
19275TIP3    H179316   4.642   5.321  14.284 -0.1290  2.9297  2.3472
19275TIP3    H279317   4.766   5.240  14.255 -3.1931 -1.0601 -0.6846
19276TIP3   OH279318   1.406   2.475   5.779 -0.4549 -0.0754 -0.8353
19276TIP3    H179319   1.448   2.513   5.856  0.7332 -1.6665 -0.6562
19276TIP3    H279320   1.319   2.516   5.777 -0.8688 -0.6310  1.8601
19277TIP3   OH279321   4.801   1.495   3.542 -0.0560 -0.7568 -0.4739
19277TIP3    H179322   4.881   1.461   3.503  0.2368  2.0553 -2.6710
19277TIP3    H279323   4.744   1.515   3.467 -1.8713 -0.5058  0.8974
19278TIP3   OH279324   0.997   4.259  15.686 -0.1288 -0.6996 -0.6705
19278TIP3    H179325   0.964   4.171  15.671  1.0269 -1.2397 -0.1574
19278TIP3    H279326   1.064   4.248  15.753 -0.2138  0.6253 -0.3420
19279TIP3   OH279327   6.270   1.289  16.978  0.0177 -0.5688 -0.3438
19279TIP3    H179328   6.341   1.267  17.040  0.2262 -1.0687 -0.7559
19279TIP3    H279329   6.281   1.382  16.963  0.0246 -0.4551  0.3035
19280TIP3   OH279330   6.288   2.673   0.084  0.3017  0.6695 -0.1624
19280TIP3    H179331   6.329   2.624   0.156 -0.4307  0.1161 -0.1137
19280TIP3    H279332   6.362   2.712   0.037  0.9798 -1.1113 -0.6625
19281TIP3   OH279333   3.429   6.581  15.072 -0.2746 -0.1004  0.1350
19281TIP3    H179334   3.522   6.581  15.052 -0.0850  1.9804  0.8088
19281TIP3    H279335   3.426   6.568  15.167 -0.6271  0.7516  0.2408
19282TIP3   OH279336   1.109   1.127  15.725 -0.5636 -0.0184 -0.5053
19282TIP3    H179337   1.057   1.205  15.744  0.0462  0.5747 -1.1990
19282TIP3    H279338   1.045   1.060  15.703 -1.0775  0.3740 -0.2285
19283TIP3   OH279339   6.203   1.294  14.163  0.1491 -0.1638  0.1358
19283TIP3    H179340   6.184   1.374  14.114 -0.9387 -0.3913  0.1795
19283TIP3    H279341   6.135   1.233  14.137  0.7573 -0.9644  0.3881
19284TIP3   OH279342   1.792   5.074  13.100 -0.2703 -0.3328  0.3519
19284TIP3    H179343   1.711   5.102  13.142  0.1420  0.8251  0.4088
19284TIP3    H279344   1.827   5.154  13.059  1.9319 -0.2978  2.1077
19285TIP3   OH279345   3.510   1.018  15.696  0.3098  0.1495  0.0073
19285TIP3    H179346   3.434   1.075  15.690  1.7464  2.2437  0.7044
19285TIP3    H279347   3.560   1.035  15.617  1.5493  1.1087  0.9642
19286TIP3   OH279348   4.411   5.083  16.556  0.6887  0.2315  0.2228
19286TIP3    H179349   4.418   4.990  16.534  0.9666  0.2706  0.1390
19286TIP3    H279350   4.501   5.110  16.575  0.4765  0.2327  1.2702
19287TIP3   OH279351   4.619   5.338   5.621 -0.3400 -0.4882  0.4554
19287TIP3    H179352   4.561   5.369   5.552  0.5418 -0.5747 -0.3332
19287TIP3    H279353   4.587   5.383   5.700 -0.7574  0.3567 -0.1762
19288TIP3   OH279354   0.805   6.728   2.659  0.1111  0.2237 -0.5972
19288TIP3    H179355   0.787   6.813   2.700 -0.0949 -0.7918  1.5767
19288TIP3    H279356   0.791   6.743   2.566 -0.5394  2.4052 -0.2170
19289TIP3   OH279357   4.218   0.263  17.157  0.2361 -0.7663  0.2829
19289TIP3    H179358   4.145   0.294  17.210 -0.5182 -0.9319 -0.6264
19289TIP3    H279359   4.212   0.314  17.076  1.8346  0.0526  0.6193
19290TIP3   OH279360   6.554   0.755   4.509  0.3662 -0.3935  0.2786
19290TIP3    H179361   6.555   0.775   4.603  2.4435  0.2495  0.1754
19290TIP3    H279362   6.521   0.835   4.468 -1.4076 -0.9833  0.4679
19291TIP3   OH279363   4.272   3.026  16.191 -0.7095 -0.3219  0.5821
19291TIP3    H179364   4.239   2.964  16.256 -1.6674  0.2360  0.6354
19291TIP3    H279365   4.359   3.050  16.223 -1.0308 -0.3236  1.4697
19292TIP3   OH279366   1.685   1.297   6.030  0.8401  0.1726 -0.2588
19292TIP3    H179367   1.703   1.228   6.094 -1.2335  0.7559  1.0550
19292TIP3    H279368   1.756   1.289   5.966  1.1466 -2.6279  0.2674
19293TIP3   OH279369   4.638   3.820   0.453  0.4210  0.1511  0.7088
19293TIP3    H179370   4.593   3.812   0.537 -0.0862 -0.8596  0.3558
19293TIP3    H279371   4.709   3.755   0.458 -1.2800 -1.9745 -0.6564
19294TIP3   OH279372   2.145   4.376   2.744  0.1860 -0.1591 -0.7592
19294TIP3    H179373   2.237   4.369   2.719  0.2121 -0.1115 -0.6785
19294TIP3    H279374   2.098   4.325   2.679  0.3744 -1.1550 -0.1305
19295TIP3   OH279375   3.978   4.555  13.796  0.4755  0.5622  0.5239
19295TIP3    H179376   3.970   4.622  13.864  1.9473  1.5913 -0.2718
19295TIP3    H279377   3.959   4.473  13.842 -0.4168  1.4046  1.7335
19296TIP3   OH279378   0.274   2.120  16.686 -0.4364 -0.2275  0.1857
19296TIP3    H179379   0.338   2.098  16.618  0.2640  2.0553  0.0257
19296TIP3    H279380   0.326   2.159  16.756 -1.5456  0.7854  0.4666
19297TIP3   OH279381   0.615   2.549   3.729 -0.0675  0.4025  0.2092
19297TIP3    H179382   0.648   2.633   3.696  0.7220 -0.4292 -1.2492
19297TIP3    H279383   0.541   2.529   3.672  0.5209 -0.4524 -0.2765
19298TIP3   OH279384   3.483   1.630  14.748 -0.2150  0.2492 -0.8078
19298TIP3    H179385   3.488   1.536  14.766  1.3607  0.5943  0.7013
19298TIP3    H279386   3.389   1.650  14.754 -0.4414 -0.9763  0.1919
19299TIP3   OH279387   0.458   4.308  17.147 -0.4236  0.0132 -0.4626
19299TIP3    H179388   0.531   4.365  17.123 -0.1545  0.2859  0.8883
19299TIP3    H279389   0.499   4.221  17.158 -0.7587 -0.3738 -2.1139
19300TIP3   OH279390   0.199   1.716  12.217 -0.4032 -0.2691 -0.4801
19300TIP3    H179391   0.285   1.674  12.208  0.2606  1.0266 -0.4842
19300TIP3    H279392   0.219   1.810  12.216 -2.0738  0.1379 -3.1999
19301TIP3   OH279393   2.346   2.147   5.617  0.3252  0.1686 -0.8088
19301TIP3    H179394   2.407   2.211   5.579  0.5879  1.3718  1.4340
19301TIP3    H279395   2.265   2.197   5.630  0.9228  0.5617  2.1646
19302TIP3   OH279396   5.404   4.911  17.163 -0.5526  0.1725 -0.3694
19302TIP3    H179397   5.474   4.975  17.152 -1.5285  0.9802 -2.1114
19302TIP3    H279398   5.427   4.840  17.103  1.3334 -2.0029  2.5883
19303TIP3   OH279399   5.942   6.217   1.364  0.3580  0.4070 -0.3432
19303TIP3    H179400   5.967   6.283   1.299 -0.3753  0.2584 -0.7766
19303TIP3    H279401   5.853   6.241   1.390 -0.0901 -0.6833 -0.8399
19304TIP3   OH279402   1.106   3.953   1.703  0.5161 -0.0127 -0.3912
19304TIP3    H179403   1.085   3.909   1.621  0.4537 -0.8802  0.0852
19304TIP3    H279404   1.038   3.925   1.764  0.1153  1.2220 -0.2294
19305TIP3   OH279405   0.713   0.895  12.232 -0.8502 -0.1268  0.6677
19305TIP3    H179406   0.794   0.847  12.250 -0.8165 -1.7655 -2.9595
19305TIP3    H279407   0.645   0.828  12.228 -1.2164  0.2717 -2.2431
19306TIP3   OH279408   3.099   4.398   3.007 -0.0599 -0.1940  0.4032
19306TIP3    H179409   3.108   4.323   3.066 -2.4658 -1.1177 -0.2995
19306TIP3    H279410   3.010   4.429   3.022 -0.3139  0.2925 -1.8682
19307TIP3   OH279411   2.937   1.453   2.941  0.0650  0.3937 -0.5408
19307TIP3    H179412   2.880   1.397   2.889 -1.1353  0.3711  0.7363
19307TIP3    H279413   2.937   1.537   2.894 -0.9854  0.3715 -0.6023
19308TIP3   OH279414   2.826   0.370   5.846 -0.2422 -0.3255 -0.2540
19308TIP3    H179415   2.770   0.319   5.905 -0.7651  0.8738  0.3015
19308TIP3    H279416   2.896   0.404   5.902  0.4225 -0.8533 -0.7302
19309TIP3   OH279417   2.336   1.163  11.883  0.3229  0.0628  0.2279
19309TIP3    H179418   2.256   1.203  11.850 -0.4097 -1.4675  0.0223
19309TIP3    H279419   2.322   1.156  11.977 -0.2700 -1.1110  0.0826
19310TIP3   OH279420   1.055   1.749  14.688 -0.1093  0.0886 -0.3251
19310TIP3    H179421   1.042   1.816  14.621  0.9982  0.3223 -0.3296
19310TIP3    H279422   1.046   1.666  14.642 -0.0688  0.2431 -0.6113
19311TIP3   OH279423   4.251   4.457  11.269 -0.0009 -0.4992 -0.1931
19311TIP3    H179424   4.319   4.427  11.209 -0.0098 -0.1670 -0.3744
19311TIP3    H279425   4.261   4.552  11.271 -0.7087 -0.4059 -0.5251
19312TIP3   OH279426   0.564   2.481  14.842  0.3972 -0.0184  0.0845
19312TIP3    H179427   0.476   2.519  14.838 -0.1717 -1.4179 -2.3392
19312TIP3    H279428   0.597   2.486  14.753  1.6064 -2.1875  0.3467
19313TIP3   OH279429   4.776   1.281  14.041 -0.1202 -0.4467 -0.4348
19313TIP3    H179430   4.682   1.265  14.033 -0.7757  2.0989  1.0354
19313TIP3    H279431   4.811   1.199  14.074 -1.9998 -1.1612 -0.0828
19314TIP3   OH279432   2.005   6.623   3.113  0.5980 -0.2438  0.2238
19314TIP3    H179433   2.000   6.633   3.208 -0.1525 -1.3612  0.3165
19314TIP3    H279434   2.080   6.565   3.098  1.1985  0.5586  0.0756
19315TIP3   OH279435   0.214   3.761  14.964 -0.3302 -0.4657 -0.1784
19315TIP3    H179436   0.228   3.811  14.884  0.6848 -0.5303 -0.0476
19315TIP3    H279437   0.271   3.685  14.955 -0.2136 -0.4792  0.6047
19316TIP3   OH279438   0.812   6.548   0.827 -0.1338 -0.5490 -0.0132
19316TIP3    H179439   0.763   6.607   0.770  0.4203  0.7951  0.8680
19316TIP3    H279440   0.751   6.478   0.848 -2.0541  1.5060  1.7751
19317TIP3   OH279441   2.842   6.377   4.316  0.0383 -0.1257 -0.3048
19317TIP3    H179442   2.928   6.338   4.335 -0.7330 -1.7366  0.0052
19317TIP3    H279443   2.862   6.449   4.255  1.7045  0.1677  0.5312
19318TIP3   OH279444   5.700   2.130  15.328 -0.7693 -0.4030 -0.0909
19318TIP3    H179445   5.676   2.174  15.246  1.0554 -1.3132 -1.1860
19318TIP3    H279446   5.680   2.038  15.312  2.4047 -1.0989 -0.7962
19319TIP3   OH279447   4.408   0.810  10.843 -0.3635 -0.1655 -0.1817
19319TIP3    H179448   4.315   0.832  10.844 -0.0535  1.2703  1.7283
19319TIP3    H279449   4.451   0.881  10.891  1.4801 -1.8061  0.7549
19320TIP3   OH279450   3.718   2.206  17.128 -0.2875  0.0762  0.1035
19320TIP3    H179451   3.653   2.175  17.190  1.4011 -1.2128  1.3241
19320TIP3    H279452   3.684   2.179  17.042 -1.0675 -1.1033  0.7529
19321TIP3   OH279453   5.813   2.900   1.409 -0.3476  0.0911  0.3927
19321TIP3    H179454   5.856   2.948   1.338  0.1925 -0.6814  0.1727
19321TIP3    H279455   5.748   2.960   1.444 -2.0192 -0.1387 -2.0471
19322TIP3   OH279456   5.522   3.148  15.317 -0.1883 -0.0723  0.5017
19322TIP3    H179457   5.520   3.133  15.411  1.8936  0.8240  0.7519
19322TIP3    H279458   5.437   3.187  15.296 -0.7245 -0.4185  1.9632
19323TIP3   OH279459   5.622   3.873  15.825 -0.0123 -0.5263  0.0930
19323TIP3    H179460   5.657   3.798  15.778 -1.0390 -1.0617  0.1604
19323TIP3    H279461   5.528   3.871  15.808 -0.2426 -0.0525  1.2090
19324TIP3   OH279462   3.869   5.682  13.493  0.8197  0.5107  0.5483
19324TIP3    H179463   3.879   5.752  13.428  1.6389  0.4464  0.5839
19324TIP3    H279464   3.778   5.687  13.522  0.6231  0.9561 -0.1360
19325TIP3   OH279465   6.736   1.858   0.690 -0.3257 -0.3089 -0.0270
19325TIP3    H179466   6.668   1.917   0.724 -0.9857 -1.3788  0.5929
19325TIP3    H279467   6.687   1.793   0.639  0.5304  0.4814 -1.9190
19326TIP3   OH279468   4.991   2.302   0.180  0.4607  1.0072  0.0005
19326TIP3    H179469   5.038   2.235   0.229  0.2562  1.7356  1.2098
19326TIP3    H279470   4.931   2.253   0.124  0.6904  0.1762  0.4679
19327TIP3   OH279471   0.077   0.907   3.208 -0.2912  0.1281  0.1368
19327TIP3    H179472   0.152   0.967   3.205  0.5505 -0.8625  0.7141
19327TIP3    H279473   0.006   0.959   3.246 -0.3820  1.5603 -1.8678
19328TIP3   OH279474   0.468   0.849  11.465  0.2032  0.6173  0.3698
19328TIP3    H179475   0.456   0.793  11.541 -0.1570  0.9912  0.5949
19328TIP3    H279476   0.478   0.788  11.391 -0.7225  0.2523  0.5276
19329TIP3   OH279477   2.149   3.605   4.054  0.1157 -0.2596 -0.1420
19329TIP3    H179478   2.156   3.510   4.063 -1.0874 -0.3481  0.0958
19329TIP3    H279479   2.229   3.631   4.009  0.7523 -1.3033  0.3427
19330TIP3   OH279480   2.451   2.981  11.176  0.4799  0.0111 -0.0768
19330TIP3    H179481   2.530   3.034  11.188  0.8852 -0.6240  0.1125
19330TIP3    H279482   2.417   2.969  11.265 -0.3457  1.0401 -0.2357
19331TIP3   OH279483   1.987   1.520   1.717  0.5021 -0.8305 -0.5736
19331TIP3    H179484   2.052   1.488   1.779  0.3705 -1.4896 -0.7639
19331TIP3    H279485   1.945   1.440   1.683 -0.3391 -0.4294 -0.5142
19332TIP3   OH279486   3.288   0.488   5.798 -0.0747  0.1504 -0.4965
19332TIP3    H179487   3.288   0.431   5.721  1.4230 -0.6531  0.0611
19332TIP3    H279488   3.298   0.577   5.762 -1.3000 -0.0118 -1.3038
19333TIP3   OH279489   1.990   6.230  16.530  0.2068 -0.2588 -0.1186
19333TIP3    H179490   1.975   6.304  16.589  1.4385  0.1140 -0.2467
19333TIP3    H279491   2.000   6.155  16.589  0.4052 -0.0646  0.1005
19334TIP3   OH279492   1.752   6.453   5.579  0.0647  0.1387 -0.0419
19334TIP3    H179493   1.838   6.463   5.538  0.1846 -0.9427 -0.1017
19334TIP3    H279494   1.699   6.408   5.513 -0.5582  0.8205 -0.0155
19335TIP3   OH279495   4.579   2.092  15.223  0.0048 -0.2066  0.2942
19335TIP3    H179496   4.488   2.117  15.237  0.1007 -0.1810  0.9149
19335TIP3    H279497   4.602   2.044  15.303  0.5642 -0.1342  0.1746
19336TIP3   OH279498   5.315   4.513  15.410  0.8834  0.4250  0.2143
19336TIP3    H179499   5.292   4.604  15.388  2.5105  0.9304  0.4567
19336TIP3    H279500   5.325   4.513  15.505 -0.7509 -0.4357  0.4087
19337TIP3   OH279501   2.173   5.101   2.735  0.1477  1.1601 -0.5712
19337TIP3    H179502   2.156   5.060   2.819  0.0090 -0.8680 -1.5327
19337TIP3    H279503   2.256   5.063   2.705  0.3374  2.0545 -1.2561
19338TIP3   OH279504   6.038   2.836   4.765 -0.7028  0.0728  0.0786
19338TIP3    H179505   6.117   2.877   4.728 -1.9527  2.4756 -0.1586
19338TIP3    H279506   6.001   2.787   4.692  1.5339 -2.8318  0.7212
19339TIP3   OH279507   1.793   0.849  12.050 -0.7884 -0.0388 -0.0895
19339TIP3    H179508   1.721   0.908  12.073 -0.9337 -0.6707  1.1655
19339TIP3    H279509   1.763   0.806  11.970 -0.6651  1.5800 -1.0301
19340TIP3   OH279510   2.756   3.531  11.429  0.1596 -0.0996  0.2417
19340TIP3    H179511   2.842   3.551  11.392 -1.1821  1.4519 -2.4094
19340TIP3    H279512   2.728   3.452  11.384 -0.6617  0.6609 -0.6430
19341TIP3   OH279513   2.328   0.776   0.522 -0.0606 -0.1885  0.0353
19341TIP3    H179514   2.417   0.810   0.530  0.6413 -1.5108 -1.6420
19341TIP3    H279515   2.339   0.682   0.508 -1.4086  0.0543 -3.9160
19342TIP3   OH279516   1.408   2.220   0.418 -0.0060 -0.1465 -0.3043
19342TIP3    H179517   1.415   2.316   0.421  2.0600 -0.2086 -1.2330
19342TIP3    H279518   1.420   2.193   0.509 -2.3529  0.5143  0.2520
19343TIP3   OH279519   4.202   5.456  11.995  0.1267 -0.6942  0.0517
19343TIP3    H179520   4.236   5.545  12.001  0.2251 -0.7874  0.9173
19343TIP3    H279521   4.181   5.431  12.085  0.2005 -1.5807 -0.1618
19344TIP3   OH279522   3.667   0.827   3.034  0.0988 -0.0120 -0.5028
19344TIP3    H179523   3.656   0.845   2.940  1.0357  0.5503 -0.5181
19344TIP3    H279524   3.751   0.781   3.040  0.1098  0.0732  0.0760
19345TIP3   OH279525   5.540   3.998   1.880  0.1750  0.3622 -0.7114
19345TIP3    H179526   5.446   4.012   1.894  0.2040 -0.2304  0.1276
19345TIP3    H279527   5.553   4.013   1.787 -0.8055  0.1741 -0.8856
19346TIP3   OH279528   0.074   2.785   2.405 -0.2307  0.1312 -0.4109
19346TIP3    H179529   0.070   2.690   2.396 -0.3571  0.1059 -0.0994
19346TIP3    H279530   0.027   2.804   2.486 -0.6659  0.5094 -0.7426
19347TIP3   OH279531   4.074   3.033   6.458 -0.2068  0.2992  0.2567
19347TIP3    H179532   4.057   3.018   6.365 -1.0683 -0.4987  0.5215
19347TIP3    H279533   4.122   3.115   6.461  0.1859  0.1289 -0.9260
19348TIP3   OH279534   2.294   1.174  12.468  0.0159 -0.2432  0.7040
19348TIP3    H179535   2.322   1.169  12.559 -0.4343  0.4640  0.8874
19348TIP3    H279536   2.328   1.259  12.438 -2.0857  0.7490  0.9942
19349TIP3   OH279537   1.732   2.326  11.892  0.2968  0.0486  0.1777
19349TIP3    H179538   1.755   2.389  11.960  2.1417 -0.0501 -0.3177
19349TIP3    H279539   1.703   2.380  11.818 -0.5002  0.1975  0.5851
19350TIP3   OH279540   2.466   3.833  16.787 -0.2801  0.1078  0.0028
19350TIP3    H179541   2.429   3.912  16.827 -2.4344 -0.9547  0.2724
19350TIP3    H279542   2.439   3.762  16.846  1.3920 -0.8751 -0.3610
19351TIP3   OH279543   0.978   4.942  16.691 -0.2413 -0.4277  0.0747
19351TIP3    H179544   1.011   4.901  16.771  0.2822 -0.9654 -0.4045
19351TIP3    H279545   0.949   4.868  16.637 -2.0235  0.0169  0.3775
19352TIP3   OH279546   6.611   5.045   5.354 -0.4293  0.2040  0.2301
19352TIP3    H179547   6.628   5.040   5.448  0.1293  0.5034  0.1483
19352TIP3    H279548   6.548   5.116   5.345 -0.7614 -0.0619  0.4076
19353TIP3   OH279549   3.127   4.226   0.847  0.0697  0.5660 -0.0716
19353TIP3    H179550   3.137   4.229   0.752 -0.6913 -1.5912 -0.2864
19353TIP3    H279551   3.212   4.198   0.879 -0.8703 -3.5461 -0.6384
19354TIP3   OH279552   0.066   2.447  11.965  0.6888 -0.5074 -0.2166
19354TIP3    H179553  -0.023   2.413  11.979  0.3023  0.4005 -0.4184
19354TIP3    H279554   0.107   2.441  12.052  0.4666 -0.9995 -0.1391
19355TIP3   OH279555   5.775   5.426   3.710  0.3560  1.0737 -0.3195
19355TIP3    H179556   5.871   5.431   3.718  0.3629  0.6037 -0.1061
19355TIP3    H279557   5.761   5.370   3.633  0.2502  0.1377  0.3644
19356TIP3   OH279558   5.209   3.480  16.009  0.5849  0.1416  0.4194
19356TIP3    H179559   5.303   3.474  16.021  0.6964  0.5044 -0.2125
19356TIP3    H279560   5.198   3.516  15.921 -0.1310  0.7502  0.7409
19357TIP3   OH279561   2.867   4.339   6.123  0.0158 -0.2442  0.2370
19357TIP3    H179562   2.922   4.279   6.072 -0.0450 -0.5489  0.5339
19357TIP3    H279563   2.913   4.423   6.117 -0.1740 -0.1888 -0.6203
19358TIP3   OH279564   3.025   2.325  15.558 -0.0941  0.1427 -0.1261
19358TIP3    H179565   2.948   2.375  15.585  1.5496  1.6659  2.0777
19358TIP3    H279566   3.010   2.238  15.595  0.0908  0.9809  2.0433
19359TIP3   OH279567   5.277   0.148  13.074 -0.3942  0.1835  0.2421
19359TIP3    H179568   5.227   0.209  13.021  2.0872  0.7571 -1.5818
19359TIP3    H279569   5.290   0.072  13.018  0.3252 -0.1753  0.8760
19360TIP3   OH279570   0.119   4.823  13.042  0.0050 -0.1992  0.4307
19360TIP3    H179571   0.165   4.755  12.992  1.4769  0.5966  0.6572
19360TIP3    H279572   0.049   4.852  12.983  0.7276 -0.3813 -0.5457
19361TIP3   OH279573   5.880   1.515   2.172  0.7951  0.1830  0.2397
19361TIP3    H179574   5.825   1.556   2.105 -0.2037 -0.1316  0.8420
19361TIP3    H279575   5.951   1.578   2.186  0.3452  0.8163 -0.2333
19362TIP3   OH279576   0.019   0.757   0.507  0.5410 -0.1712 -0.8675
19362TIP3    H179577  -0.016   0.668   0.503 -1.2681  0.4327  0.4923
19362TIP3    H279578  -0.037   0.809   0.450  0.7674  0.3545 -0.6226
19363TIP3   OH279579   4.938   4.306   2.989 -0.5129 -0.6580  0.1418
19363TIP3    H179580   4.955   4.393   3.026 -0.2918 -0.2840 -0.8189
19363TIP3    H279581   4.972   4.311   2.900 -1.3620 -1.4343 -0.2356
19364TIP3   OH279582   4.959   0.681  12.770  0.2528  0.4375  0.0210
19364TIP3    H179583   5.001   0.595  12.763  1.4992  1.0500 -0.3725
19364TIP3    H279584   4.866   0.663  12.758  0.5427 -0.7977 -0.5685
19365TIP3   OH279585   6.435   4.898   6.781  0.2642 -0.3135 -0.4188
19365TIP3    H179586   6.443   4.993   6.780  0.7056 -0.3274  0.4576
19365TIP3    H279587   6.468   4.871   6.695  0.9517  0.2770 -0.3564
19366TIP3   OH279588   3.979   1.937  14.567  0.4236 -0.2852  0.2785
19366TIP3    H179589   4.062   1.913  14.526  0.5561 -1.2646  1.0979
19366TIP3    H279590   3.976   1.886  14.648 -0.0042  1.3196  1.3253
19367TIP3   OH279591   5.861   0.560  11.584 -0.0877  0.2948  0.0703
19367TIP3    H179592   5.887   0.640  11.629  0.3833  0.4933 -0.5335
19367TIP3    H279593   5.935   0.501  11.596 -0.3122  0.0530  0.2686
19368TIP3   OH279594   2.690   3.102  15.240 -0.5626  0.1984 -0.0374
19368TIP3    H179595   2.699   3.084  15.146 -0.0464 -0.6035  0.1530
19368TIP3    H279596   2.725   3.190  15.252  1.0038 -0.3648 -0.3300
19369TIP3   OH279597   0.140   5.546  16.582 -0.2961 -0.1758 -0.0358
19369TIP3    H179598   0.180   5.469  16.540 -1.5552 -0.9439  0.1152
19369TIP3    H279599   0.054   5.516  16.610  0.7146  0.0838  3.8169
19370TIP3   OH279600   5.573   0.157  17.106 -0.7753  0.0138  0.1762
19370TIP3    H179601   5.574   0.072  17.061  0.9047 -0.3283  0.7583
19370TIP3    H279602   5.644   0.206  17.064 -1.3482  0.9103  0.2461
19371TIP3   OH279603   2.429   2.550   2.699 -0.0719 -0.7426 -0.5164
19371TIP3    H179604   2.477   2.518   2.776  1.9026  0.4584 -1.1463
19371TIP3    H279605   2.338   2.528   2.716  0.1764  0.0710  2.5181
19372TIP3   OH279606   2.745   4.253   3.800 -0.1153  0.0503  0.1775
19372TIP3    H179607   2.803   4.177   3.813 -0.9369 -0.2933  2.2049
19372TIP3    H279608   2.658   4.214   3.789 -0.7098  0.6593  2.2666
19373TIP3   OH279609   3.391   4.755   2.665  0.4616  0.2788  0.4664
19373TIP3    H179610   3.430   4.693   2.603 -0.1660  0.9077 -0.5876
19373TIP3    H279611   3.343   4.699   2.727 -0.9197 -0.3114 -1.0373
19374TIP3   OH279612   6.769   6.835   2.397 -0.2629 -0.4076  0.2754
19374TIP3    H179613   6.772   6.754   2.346 -0.1049  0.0107 -0.3909
19374TIP3    H279614   6.726   6.898   2.339  2.1305  0.7679 -0.3652
19375TIP3   OH279615   1.134   3.612  17.025 -0.1492 -0.1378  0.5718
19375TIP3    H179616   1.163   3.640  17.111 -1.2616  0.1574  0.8635
19375TIP3    H279617   1.077   3.537  17.041  0.2567 -0.5774  0.0273
19376TIP3   OH279618   0.455   1.559  16.131  0.4643  0.0675  0.0714
19376TIP3    H179619   0.484   1.603  16.211  0.5169 -0.5216  0.3868
19376TIP3    H279620   0.510   1.481  16.125  1.0524  0.5475 -1.0192
19377TIP3   OH279621   3.284   1.954   3.716  0.0834 -0.0138  0.5557
19377TIP3    H179622   3.286   2.015   3.642  1.3089  0.3894  0.9047
19377TIP3    H279623   3.357   1.981   3.771  0.9591 -2.0969  0.4913
19378TIP3   OH279624   0.810   0.286  16.115 -0.0633 -0.4906 -0.6185
19378TIP3    H179625   0.868   0.363  16.116 -0.2058 -0.3775 -0.8433
19378TIP3    H279626   0.722   0.323  16.119 -0.1117 -0.7146  1.5385
19379TIP3   OH279627   4.542   4.902   0.605 -0.6254 -0.0344  0.5905
19379TIP3    H179628   4.532   4.857   0.689 -1.6393 -2.2306 -0.6183
19379TIP3    H279629   4.453   4.927   0.581 -0.7413 -1.7540 -0.9718
19380TIP3   OH279630   2.438   2.497   1.476 -0.0886  0.0358 -0.1951
19380TIP3    H179631   2.428   2.585   1.513 -0.3549  0.1794 -0.6080
19380TIP3    H279632   2.532   2.488   1.461  0.1085 -0.2424  1.0412
19381TIP3   OH279633   6.545   4.238  15.271  0.5537  0.3048 -0.5942
19381TIP3    H179634   6.492   4.290  15.332  0.9808  2.0345 -1.6480
19381TIP3    H279635   6.635   4.251  15.300  0.7066  0.6199 -1.1932
19382TIP3   OH279636   0.967   0.579   2.269  0.3300  0.0218  0.3829
19382TIP3    H179637   0.952   0.656   2.213  2.3924 -0.7727 -1.4206
19382TIP3    H279638   0.912   0.511   2.230  0.2833 -0.0262  0.5348
19383TIP3   OH279639   2.941   6.307  15.889  0.6496 -0.7948 -0.7158
19383TIP3    H179640   2.857   6.261  15.896  0.1081  0.3222  0.4063
19383TIP3    H279641   2.917   6.395  15.858  1.4617 -0.6108 -0.8369
19384TIP3   OH279642   2.566   6.832   2.495 -0.0293 -0.0761 -0.5211
19384TIP3    H179643   2.514   6.756   2.465  1.0792 -0.6056 -1.1791
19384TIP3    H279644   2.606   6.803   2.577 -1.3256  0.5951  0.3749
19385TIP3   OH279645   4.580   1.762  12.156  0.3723  0.6740 -0.1384
19385TIP3    H179646   4.502   1.817  12.144  0.4819  1.0275  0.7145
19385TIP3    H279647   4.592   1.719  12.071 -1.1389  0.0912 -0.0786
19386TIP3   OH279648   1.161   4.333   1.237  0.3936 -0.3349 -0.0982
19386TIP3    H179649   1.181   4.403   1.300 -1.4497 -0.7645  1.0358
19386TIP3    H279650   1.081   4.293   1.271  0.7486 -2.2325 -1.3806
19387TIP3   OH279651   5.339   2.164   3.374  0.9191  0.4024 -0.0275
19387TIP3    H179652   5.257   2.174   3.325  0.5340 -1.1437  0.2383
19387TIP3    H279653   5.311   2.139   3.462  1.6445  1.7394  0.6084
19388TIP3   OH279654   0.551   6.244  14.166  0.1989 -0.4582  0.0434
19388TIP3    H179655   0.579   6.171  14.221  1.6307  0.0666  0.0531
19388TIP3    H279656   0.595   6.230  14.082 -0.4347 -0.2193 -0.3375
19389TIP3   OH279657   4.906   6.403  12.970  0.0941  0.5048 -0.1918
19389TIP3    H179658   4.814   6.381  12.984  0.2430  0.6407  1.1061
19389TIP3    H279659   4.954   6.326  12.999  0.3822  0.0983 -1.6596
19390TIP3   OH279660   4.178   3.274  16.843 -0.0408  0.2902  0.1388
19390TIP3    H179661   4.188   3.368  16.831 -0.0975  0.5595  1.9522
19390TIP3    H279662   4.248   3.250  16.904 -0.4468 -0.7225  0.2290
19391TIP3   OH279663   6.756   1.941   6.055 -0.1358 -0.2207 -0.0841
19391TIP3    H179664   6.826   1.890   6.097  0.4329  0.3915 -0.2748
19391TIP3    H279665   6.762   2.027   6.095 -1.6434 -0.5146  0.8450
19392TIP3   OH279666   0.574   4.147   4.937  0.4317 -0.1420  0.2572
19392TIP3    H179667   0.644   4.205   4.966  1.4707  0.4757 -3.0605
19392TIP3    H279668   0.496   4.203   4.936  0.1530 -0.4165  2.4668
19393TIP3   OH279669   0.137   3.599  14.463  0.2606 -0.9614  0.6453
19393TIP3    H179670   0.190   3.520  14.454  1.3612 -0.1442 -0.3361
19393TIP3    H279671   0.115   3.624  14.374  0.3926  0.1337  0.9007
19394TIP3   OH279672   6.590   0.887  14.481 -0.3001  0.1760 -0.6285
19394TIP3    H179673   6.495   0.897  14.489 -0.4789 -1.6039 -0.1614
19394TIP3    H279674   6.609   0.801  14.518  1.6777  1.0432  0.5798
19395TIP3   OH279675   6.296   3.873   3.721 -0.6010  0.5614 -0.0926
19395TIP3    H179676   6.323   3.964   3.726 -1.2275  0.7637 -0.2406
19395TIP3    H279677   6.215   3.869   3.772 -0.5652  0.0811 -0.0619
19396TIP3   OH279678   2.022   6.729  12.183  0.0317 -0.4282 -0.0977
19396TIP3    H179679   2.070   6.787  12.241 -1.2235  1.3857 -0.7558
19396TIP3    H279680   2.081   6.715  12.108  0.7193 -0.8130  0.5080
19397TIP3   OH279681   6.109   6.152   5.111 -0.4029 -0.2748  0.4033
19397TIP3    H179682   6.148   6.214   5.173 -0.0072  1.1060 -1.1627
19397TIP3    H279683   6.055   6.206   5.054 -0.3710 -1.4316 -0.7604
19398TIP3   OH279684   5.813   0.224  14.791  0.0656  0.5819 -0.1342
19398TIP3    H179685   5.756   0.153  14.819 -0.2589  1.8414  2.7715
19398TIP3    H279686   5.894   0.181  14.763 -1.2915 -1.0555 -1.8418
19399TIP3   OH279687   4.878   4.315  11.328 -0.0756 -0.0332 -0.1950
19399TIP3    H179688   4.917   4.231  11.351 -0.2697  0.2387  1.2492
19399TIP3    H279689   4.784   4.298  11.323  0.0533 -0.3672 -2.1894
19400TIP3   OH279690   2.958   2.528  12.975 -0.2625 -0.0059  0.0327
19400TIP3    H179691   2.960   2.612  12.930  2.1421  0.2926  0.5618
19400TIP3    H279692   3.032   2.479  12.939 -1.6962 -1.9797 -0.3582
19401TIP3   OH279693   0.755   2.524   0.989  0.5046 -0.3317  0.4258
19401TIP3    H179694   0.668   2.564   0.993  1.3748  1.5242  1.8343
19401TIP3    H279695   0.812   2.585   1.036  2.5882 -1.4944 -0.4792
19402TIP3   OH279696   1.103   3.001   4.732 -0.0117  0.0932 -0.0551
19402TIP3    H179697   1.071   3.021   4.644  0.4956 -0.7868 -0.4597
19402TIP3    H279698   1.036   2.942   4.768 -0.1557  0.3532  0.1067
19403TIP3   OH279699   5.656   4.563  16.264 -0.0024  0.4823 -0.0895
19403TIP3    H179700   5.711   4.553  16.342  1.2507  0.9153 -0.8851
19403TIP3    H279701   5.577   4.606  16.296 -0.5985 -1.5218  1.3657
19404TIP3   OH279702   1.658   0.619   1.362 -0.0906 -0.3654  0.0946
19404TIP3    H179703   1.615   0.536   1.383 -0.4266 -0.5762 -1.3232
19404TIP3    H279704   1.643   0.631   1.268  0.6788  0.8861  0.1055
19405TIP3   OH279705   4.171   2.251   5.765 -0.9337 -0.2167 -0.0525
19405TIP3    H179706   4.124   2.239   5.682  0.1667  0.1579 -0.7592
19405TIP3    H279707   4.218   2.334   5.754  1.2075 -1.3513 -0.0671
19406TIP3   OH279708   4.341   2.268  16.079  0.4271  0.8152 -0.4304
19406TIP3    H179709   4.337   2.301  16.169  0.9687 -2.3172  0.8548
19406TIP3    H279710   4.435   2.264  16.059  0.2977  2.4824 -1.6252
19407TIP3   OH279711   6.427   3.216  11.271  0.2340  0.2449 -0.7019
19407TIP3    H179712   6.515   3.231  11.306 -0.2536  1.1827  0.1722
19407TIP3    H279713   6.438   3.220  11.176  1.3544 -0.9875 -0.6479
19408TIP3   OH279714   5.168   1.535   1.133  0.0886  0.1446  0.8162
19408TIP3    H179715   5.162   1.608   1.071 -1.1563  0.8506  1.7228
19408TIP3    H279716   5.173   1.577   1.219 -1.8557 -0.7928  1.4508
19409TIP3   OH279717   4.611   1.769  12.532 -0.2000  0.6444 -0.6572
19409TIP3    H179718   4.666   1.777  12.454 -0.0906  0.6616 -0.5789
19409TIP3    H279719   4.578   1.858  12.547  0.3019  0.7769 -0.3050
19410TIP3   OH279720   0.894   4.186   1.863  0.0646  0.4671 -0.0840
19410TIP3    H179721   0.821   4.247   1.853 -0.1609  0.3878  0.9829
19410TIP3    H279722   0.864   4.105   1.822  0.1637  0.9059 -1.0400
19411TIP3   OH279723   2.861   2.095  13.781  0.0960 -0.1327  0.2746
19411TIP3    H179724   2.875   2.007  13.745  0.0456  0.3448 -0.9577
19411TIP3    H279725   2.945   2.139  13.770 -0.4062  0.5943 -0.9903
19412TIP3   OH279726   6.458   1.155  14.915  0.1499  0.7500 -0.2622
19412TIP3    H179727   6.453   1.114  14.829 -2.3156  0.8676 -0.2318
19412TIP3    H279728   6.433   1.246  14.900 -0.5875  0.6979  0.6206
19413TIP3   OH279729   4.027   6.285   3.064  0.3652  0.4262 -0.4011
19413TIP3    H179730   4.090   6.319   3.127 -0.3520  1.4935 -0.2371
19413TIP3    H279731   3.950   6.341   3.074 -0.8776 -1.2465 -0.1194
19414TIP3   OH279732   6.024   0.749  13.253  0.1616  0.1499  0.2392
19414TIP3    H179733   6.001   0.658  13.268  2.1366 -0.4508 -0.0654
19414TIP3    H279734   6.107   0.745  13.206 -0.9375  2.0761 -2.0691
19415TIP3   OH279735   6.493   3.143   3.991  0.5382 -0.1855 -0.1339
19415TIP3    H179736   6.455   3.098   3.916  0.8031 -1.8271  0.6816
19415TIP3    H279737   6.431   3.213   4.012 -0.0798 -0.4052 -1.1834
19416TIP3   OH279738   1.085   0.399   1.041 -0.3147  0.2573 -0.2622
19416TIP3    H179739   1.076   0.332   0.973  0.9908 -1.4531  1.1594
19416TIP3    H279740   1.171   0.438   1.026 -0.5210  0.7170 -0.2844
19417TIP3   OH279741   4.265   0.645  17.094 -0.2610  0.1107 -0.0800
19417TIP3    H179742   4.361   0.644  17.096 -0.1813  2.0699 -0.6397
19417TIP3    H279743   4.241   0.714  17.156 -1.3770 -0.9549  0.7170
19418TIP3   OH279744   3.549   4.115   4.733  0.0597  0.4995 -0.2486
19418TIP3    H179745   3.608   4.166   4.790  0.0174  1.3629 -0.9550
19418TIP3    H279746   3.590   4.119   4.647  0.5746 -1.5262 -0.1394
19419TIP3   OH279747   0.423   5.250  15.030  0.4109  0.5895 -0.4325
19419TIP3    H179748   0.331   5.277  15.034  0.1838  0.0061 -1.3398
19419TIP3    H279749   0.468   5.323  14.987 -0.1893 -0.3618 -2.8331
19420TIP3   OH279750   1.480   4.663  10.924  0.5999  0.0722  0.0924
19420TIP3    H179751   1.473   4.691  10.833 -1.9552  1.9050  0.7439
19420TIP3    H279752   1.484   4.568  10.919  0.7107  0.1356 -1.9229
19421TIP3   OH279753   6.112   5.359  10.762  0.0580  0.0993  0.0969
19421TIP3    H179754   6.094   5.332  10.672 -1.1670 -3.0257  1.1616
19421TIP3    H279755   6.206   5.376  10.763  0.2459 -0.6470 -1.5743
19422TIP3   OH279756   2.419   1.246   0.174 -0.1446 -0.3925  0.1508
19422TIP3    H179757   2.452   1.261   0.086  0.8223 -1.2605  0.3515
19422TIP3    H279758   2.468   1.170   0.206 -1.0382 -0.5803  1.1450
19423TIP3   OH279759   3.141   2.145   3.191 -0.2147 -0.2256  0.1881
19423TIP3    H179760   3.174   2.119   3.104  0.2935  0.5551  0.1358
19423TIP3    H279761   3.078   2.215   3.173  0.4816  0.4954  0.4857
19424TIP3   OH279762   4.778   4.853   1.960  0.5426 -0.2531 -0.0399
19424TIP3    H179763   4.737   4.874   2.044 -1.3059 -0.1714 -0.9103
19424TIP3    H279764   4.827   4.773   1.976 -1.5047 -1.4355  0.6541
19425TIP3   OH279765   4.909   4.887   5.289  0.2401  0.0165 -0.0972
19425TIP3    H179766   4.911   4.795   5.314  1.1923 -0.0865 -0.5381
19425TIP3    H279767   4.849   4.890   5.214  1.4556 -0.5191 -1.1180
19426TIP3   OH279768   6.840   2.414  14.402 -0.5425  0.2649 -0.3667
19426TIP3    H179769   6.903   2.359  14.450  0.7659  1.0728 -1.0856
19426TIP3    H279770   6.786   2.351  14.355  1.0159 -0.4651 -1.2849
19427TIP3   OH279771   1.910   4.964   5.277  0.0608 -0.0569  0.1255
19427TIP3    H179772   1.950   4.960   5.364  0.6942 -1.5088 -0.2018
19427TIP3    H279773   1.956   5.036   5.233  1.9903 -1.3013 -0.0371
19428TIP3   OH279774   3.199   3.791  11.260 -0.1014  0.0300 -0.6109
19428TIP3    H179775   3.112   3.816  11.230 -0.5809  0.4574  1.0296
19428TIP3    H279776   3.253   3.869  11.245 -0.6894  0.7757  0.9363
19429TIP3   OH279777   3.320   1.837  14.026  0.4901 -0.0962 -0.4603
19429TIP3    H179778   3.234   1.878  14.025 -0.3727 -1.8326 -2.1092
19429TIP3    H279779   3.346   1.831  13.934  0.8407 -2.5871 -0.2808
19430TIP3   OH279780   5.236   1.460   4.393 -0.3903 -0.1967  0.2762
19430TIP3    H179781   5.318   1.456   4.343  0.4655  0.1252  1.5916
19430TIP3    H279782   5.191   1.537   4.360  0.1383 -0.0193 -0.0428
19431TIP3   OH279783   0.782   0.280   3.338 -0.2565 -0.1130  0.5179
19431TIP3    H179784   0.754   0.189   3.344 -0.1945 -0.4211 -2.4479
19431TIP3    H279785   0.850   0.280   3.269 -1.8748  2.4437 -1.2505
19432TIP3   OH279786   5.245   3.633   1.585  0.3109  0.1325  0.1402
19432TIP3    H179787   5.281   3.714   1.620 -1.6892  0.5837  1.3153
19432TIP3    H279788   5.321   3.578   1.567  1.6257  1.6508  0.8806
19433TIP3   OH279789   0.524   4.168  16.089  0.1942 -0.2309 -0.1043
19433TIP3    H179790   0.516   4.163  15.994 -0.4468 -0.5432 -0.0411
19433TIP3    H279791   0.616   4.150  16.106  0.8328  2.0132 -0.7979
19434TIP3   OH279792   5.294   6.399   3.482  0.5071  0.5532 -0.2976
19434TIP3    H179793   5.312   6.493   3.482  0.3793  0.5797  0.2140
19434TIP3    H279794   5.237   6.386   3.558  1.7794 -0.1827  0.5572
19435TIP3   OH279795   4.878   5.011  13.807  0.7778  0.1198  0.1953
19435TIP3    H179796   4.850   4.922  13.829  0.4406  0.1818  0.0261
19435TIP3    H279797   4.806   5.047  13.755  1.9177 -0.3182 -1.7792
19436TIP3   OH279798   4.560   4.095  16.824 -0.3181  0.1437  0.5351
19436TIP3    H179799   4.519   4.150  16.891  0.4496  0.1208  1.0309
19436TIP3    H279800   4.550   4.006  16.857 -0.0791  0.1195  0.5411
19437TIP3   OH279801   3.138   4.422  12.834  0.0488 -0.6204  0.5238
19437TIP3    H179802   3.048   4.450  12.850  0.2271  0.5607 -0.3985
19437TIP3    H279803   3.135   4.382  12.748  0.3718 -0.7584  0.5780
19438TIP3   OH279804   5.451   0.014  14.123  0.3974  0.0687 -0.1366
19438TIP3    H179805   5.490   0.076  14.061  1.2775  2.1046  2.2698
19438TIP3    H279806   5.364   0.048  14.141  0.9072  0.7148  1.2500
19439TIP3   OH279807   4.530   2.436   5.120 -0.3194  0.0181 -0.1373
19439TIP3    H179808   4.479   2.518   5.115  0.3472  0.3962 -0.9916
19439TIP3    H279809   4.491   2.388   5.193 -1.5271  0.5562 -0.4031
19440TIP3   OH279810   4.144   4.167   0.907 -0.2591  0.0319  0.1364
19440TIP3    H179811   4.085   4.212   0.847 -0.2919 -1.1245 -0.7348
19440TIP3    H279812   4.220   4.224   0.914 -0.6655  0.6224 -0.2475
19441TIP3   OH279813   6.374   0.597  12.134 -0.0908  0.4659 -0.0589
19441TIP3    H179814   6.343   0.685  12.116  0.0510  0.5741  0.2155
19441TIP3    H279815   6.295   0.545  12.145 -0.2172  0.9811  1.8432
19442TIP3   OH279816   2.210   0.238   0.014  0.3111  0.4401 -0.0751
19442TIP3    H179817   2.244   0.150   0.001 -0.6729 -0.0400  0.5036
19442TIP3    H279818   2.237   0.262   0.102  1.7838  1.2985 -0.7237
19443TIP3   OH279819   4.244   2.698  15.414 -0.4886  0.0917 -0.0392
19443TIP3    H179820   4.151   2.716  15.398 -0.5710  1.1602  1.3853
19443TIP3    H279821   4.245   2.660  15.502  0.5925  2.4093  1.0403
19444TIP3   OH279822   3.487   2.036  15.309 -0.3865  0.0383  0.3888
19444TIP3    H179823   3.483   1.945  15.340  1.8117 -0.2146  0.0638
19444TIP3    H279824   3.540   2.081  15.375  0.6888  0.4733 -0.7382
19445TIP3   OH279825   5.555   2.049  16.676  0.6817  0.7666 -0.1805
19445TIP3    H179826   5.582   2.076  16.763  1.2463 -0.7729  0.1659
19445TIP3    H279827   5.491   1.979  16.691  0.2458  0.9682 -1.0066
19446TIP3   OH279828   0.666   3.685   3.612  0.1231  0.1904 -0.3228
19446TIP3    H179829   0.625   3.639   3.685  0.7689 -1.8130 -1.1718
19446TIP3    H279830   0.668   3.777   3.640 -0.5703 -0.3685  1.7181
19447TIP3   OH279831   5.466   3.073   5.105  0.0668 -0.3369 -0.4317
19447TIP3    H179832   5.407   3.079   5.180  1.8591  1.9818  0.9100
19447TIP3    H279833   5.409   3.050   5.032 -1.8841 -1.8957  1.4299
19448TIP3   OH279834   0.353   4.617  17.141 -0.2202  0.2941  0.0302
19448TIP3    H179835   0.405   4.652  17.068  0.0002  2.0417  0.9568
19448TIP3    H279836   0.266   4.654  17.127  0.0542  1.4278  1.1187
19449TIP3   OH279837   2.074   3.169   4.766  0.1208 -0.6740 -0.3089
19449TIP3    H179838   2.119   3.207   4.841  0.3423 -1.5207 -0.0083
19449TIP3    H279839   2.126   3.196   4.690  1.5140 -2.1336  0.0741
19450TIP3   OH279840   0.797   4.397   6.233 -0.2944 -0.0805 -0.1232
19450TIP3    H179841   0.876   4.438   6.268  0.1616 -2.9377  2.7206
19450TIP3    H279842   0.732   4.404   6.304 -0.5507 -2.9465  0.0640
19451TIP3   OH279843   1.449   1.707  15.756  0.4351 -0.7643 -0.9810
19451TIP3    H179844   1.477   1.627  15.712  1.1402  0.3859 -2.7241
19451TIP3    H279845   1.530   1.755  15.771  0.4023 -1.6324  2.8500
19452TIP3   OH279846   0.966   0.764  14.809  0.0988  0.2158  0.6336
19452TIP3    H179847   0.916   0.828  14.860  0.3290 -0.8427  2.2603
19452TIP3    H279848   1.056   0.774  14.839  0.4362  0.2927 -0.3636
19453TIP3   OH279849   6.443   5.723  14.309 -0.3586  0.7125  0.3248
19453TIP3    H179850   6.450   5.786  14.238 -0.4035  0.9546  0.5359
19453TIP3    H279851   6.497   5.649  14.281 -2.5311 -0.3954 -1.2420
19454TIP3   OH279852   5.149   6.160  12.349  0.3935 -0.3187 -0.2742
19454TIP3    H179853   5.178   6.152  12.258 -1.0191  1.6853 -0.9746
19454TIP3    H279854   5.229   6.181  12.398  1.2046 -1.6303 -0.9754
19455TIP3   OH279855   3.237   0.879   3.935 -0.0476  0.3318 -0.1336
19455TIP3    H179856   3.262   0.950   3.877  0.9596 -0.5380 -0.8056
19455TIP3    H279857   3.143   0.867   3.920 -0.3265  1.8012  0.3380
19456TIP3   OH279858   6.588   4.978   6.037 -0.4301 -0.0302  0.0511
19456TIP3    H179859   6.587   4.957   6.131 -1.6650  0.0529  0.0661
19456TIP3    H279860   6.638   5.060   6.031 -0.5322  0.0789  0.6597
19457TIP3   OH279861   5.086   2.045   0.890  0.1409  0.9023 -0.6876
19457TIP3    H179862   5.178   2.040   0.863  1.1371 -0.9480  2.6086
19457TIP3    H279863   5.070   2.139   0.902  2.0050  1.1726 -0.0604
19458TIP3   OH279864   3.814   6.640  14.987  0.2097 -0.2497  0.4154
19458TIP3    H179865   3.834   6.729  15.017 -0.5546 -0.2149  0.8485
19458TIP3    H279866   3.753   6.652  14.915  1.0460 -0.3881 -0.3369
19459TIP3   OH279867   1.976   3.167   2.267  0.2344  0.1490 -0.6196
19459TIP3    H179868   2.033   3.194   2.195 -0.5905  3.7298 -0.1260
19459TIP3    H279869   2.035   3.132   2.333  1.6644  1.7163 -1.0013
19460TIP3   OH279870   2.365   4.022  16.949 -0.2669 -0.0647  0.7116
19460TIP3    H179871   2.281   4.047  16.910 -0.0862  2.8068  1.9258
19460TIP3    H279872   2.429   4.080  16.907  1.0946 -1.8807  0.1550
19461TIP3   OH279873   2.309   2.552   0.852  0.6405 -0.2765  0.3709
19461TIP3    H179874   2.324   2.460   0.832  0.4834 -0.4087  0.8260
19461TIP3    H279875   2.285   2.592   0.769  1.6811 -0.4394 -0.0130
19462TIP3   OH279876   1.511   5.699  16.019 -0.6146 -0.0812  0.0373
19462TIP3    H179877   1.573   5.668  16.084 -0.1943  2.3683  0.8924
19462TIP3    H279878   1.506   5.628  15.955  2.4338 -0.7169  0.3564
19463TIP3   OH279879   4.357   1.350  15.430 -0.4681  0.5266  0.3672
19463TIP3    H179880   4.323   1.419  15.374 -0.1664  0.5524  0.2156
19463TIP3    H279881   4.391   1.284  15.369  0.3429  0.7929  0.5209
19464TIP3   OH279882   4.663   1.999   4.633  0.3885 -0.0175  0.3913
19464TIP3    H179883   4.608   2.030   4.561  1.0837  1.0131  0.2715
19464TIP3    H279884   4.602   1.987   4.706 -0.4134 -1.6204 -0.4967
19465TIP3   OH279885   3.521   3.064   2.679 -0.4511 -0.3914  0.0737
19465TIP3    H179886   3.588   3.021   2.625  0.2517 -0.4163  0.9508
19465TIP3    H279887   3.458   3.098   2.615  0.9874  0.6462 -0.8797
19466TIP3   OH279888   4.674   3.055   5.948 -0.0391  0.2344 -0.4857
19466TIP3    H179889   4.591   3.009   5.947 -0.2173  0.5406 -0.1539
19466TIP3    H279890   4.688   3.081   5.857  0.9362 -1.9878 -1.0256
19467TIP3   OH279891   5.586   2.080  12.738 -0.5937  0.1547 -0.1727
19467TIP3    H179892   5.672   2.041  12.752 -0.9524 -0.6978 -0.3059
19467TIP3    H279893   5.559   2.111  12.825 -0.1385  0.4764 -0.1413
19468TIP3   OH279894   0.376   1.539  14.044  0.2613 -0.2328 -0.0725
19468TIP3    H179895   0.470   1.546  14.062  0.1339  1.1573  0.1672
19468TIP3    H279896   0.335   1.601  14.104 -0.5506  1.3171 -2.0930
19469TIP3   OH279897   4.716   6.257  17.133  0.2743 -0.7998 -0.1109
19469TIP3    H179898   4.732   6.346  17.165  0.4860 -0.9157  0.1043
19469TIP3    H279899   4.775   6.202  17.184  0.7652 -0.9689 -0.8448
19470TIP3   OH279900   6.250   4.841  11.364 -0.0302 -0.0785  0.5482
19470TIP3    H179901   6.295   4.838  11.280 -0.7483 -0.2442  0.1585
19470TIP3    H279902   6.158   4.828  11.342 -0.2372 -0.0212  1.3522
19471TIP3   OH279903   0.658   0.090  15.281  0.6018 -0.7404  0.2715
19471TIP3    H179904   0.614   0.129  15.206  1.6347 -1.3019 -0.6467
19471TIP3    H279905   0.606   0.013  15.304  0.4810 -0.7638 -0.0915
19472TIP3   OH279906   5.723   5.119   0.331 -0.0530 -0.0959 -0.0827
19472TIP3    H179907   5.775   5.047   0.365  1.5516 -0.7425 -3.4183
19472TIP3    H279908   5.637   5.082   0.314  0.2539 -0.7737 -0.1786
19473TIP3   OH279909   5.133   3.738  11.408  0.1341 -0.1868  0.0219
19473TIP3    H179910   5.227   3.748  11.419  0.3843 -1.3571 -0.8755
19473TIP3    H279911   5.110   3.798  11.337  0.1619  0.2705  0.3999
19474TIP3   OH279912   2.361   3.852   3.818 -0.6473  0.3403 -0.2618
19474TIP3    H179913   2.342   3.945   3.808  0.1879  0.3459 -2.3486
19474TIP3    H279914   2.400   3.826   3.734  0.7352 -1.5059  0.8633
19475TIP3   OH279915   6.756   0.838   3.002 -0.2678  0.5121 -0.2757
19475TIP3    H179916   6.728   0.751   3.032 -0.4567  0.1200 -1.5071
19475TIP3    H279917   6.794   0.879   3.079  0.2752 -0.8577  0.2204
19476TIP3   OH279918   1.176   2.647   5.756  0.0636 -0.2841 -0.3562
19476TIP3    H179919   1.105   2.695   5.713  0.1428  0.0767 -0.0922
19476TIP3    H279920   1.256   2.684   5.719  0.2875  2.5354  2.5323
19477TIP3   OH279921   4.949   2.729   2.876  0.1885 -0.1569  0.0718
19477TIP3    H179922   5.011   2.679   2.824 -1.3685 -1.5225 -0.5697
19477TIP3    H279923   4.981   2.819   2.872  2.3028 -0.8429  0.0950
19478TIP3   OH279924   6.280   3.697   5.858  0.2394  0.2668  0.3209
19478TIP3    H179925   6.344   3.744   5.912  2.1892 -0.9466 -0.8414
19478TIP3    H279926   6.270   3.612   5.901  1.0183 -0.3213 -0.6275
19479TIP3   OH279927   1.449   0.558  14.334 -0.2149  0.1014 -0.4828
19479TIP3    H179928   1.491   0.644  14.331  1.1477 -0.5656 -1.9770
19479TIP3    H279929   1.449   0.528  14.243 -0.2667 -1.6540  0.0532
19480TIP3   OH279930   1.307   6.292  11.927  0.1366  0.5738  0.2875
19480TIP3    H179931   1.214   6.309  11.912  0.3293  0.3008 -1.3972
19480TIP3    H279932   1.311   6.200  11.951 -0.1973  1.0681  2.5131
19481TIP3   OH279933   2.989   6.348  11.256 -0.2235  0.0122 -0.1759
19481TIP3    H179934   3.027   6.340  11.168 -0.9209 -1.1446 -0.3845
19481TIP3    H279935   3.054   6.308  11.314 -1.1917 -2.2800 -0.5709
19482TIP3   OH279936   0.616   6.592   4.438  0.2532  0.0297 -0.2312
19482TIP3    H179937   0.522   6.609   4.443  0.0760 -1.2306  1.2709
19482TIP3    H279938   0.626   6.501   4.466  2.1163  0.7504  1.7400
19483TIP3   OH279939   6.723   2.169  11.362 -0.7173 -0.1712 -0.6499
19483TIP3    H179940   6.693   2.245  11.312 -1.4279  0.6536  0.9541
19483TIP3    H279941   6.642   2.129  11.394 -0.2797 -0.6536 -0.1278
19484TIP3   OH279942   3.198   5.129  13.844  0.1835 -0.5828  0.6887
19484TIP3    H179943   3.245   5.055  13.883  1.5376 -0.3653 -0.4375
19484TIP3    H279944   3.134   5.089  13.786  0.7566 -0.8924  0.2557
19485TIP3   OH279945   5.625   4.865  15.323 -0.9969 -0.5464  0.0324
19485TIP3    H179946   5.581   4.863  15.238  0.1994  1.2597 -0.6791
19485TIP3    H279947   5.670   4.781  15.329  0.9466  0.2125 -2.2997
19486TIP3   OH279948   4.380   3.537   2.889 -0.6213  0.0830 -0.3241
19486TIP3    H179949   4.378   3.472   2.818  1.4050  0.0209 -0.3611
19486TIP3    H279950   4.317   3.503   2.953 -1.7477 -0.3808 -1.6110
19487TIP3   OH279951   0.304   6.429   4.295  0.2134  0.1521 -0.0306
19487TIP3    H179952   0.320   6.339   4.267 -1.8093  0.2289 -1.7640
19487TIP3    H279953   0.319   6.429   4.390 -2.1676 -2.6794  0.4688
19488TIP3   OH279954   3.020   4.407  10.953 -0.2617  0.1248  0.5114
19488TIP3    H179955   3.001   4.454  10.872 -0.7562  1.6077  1.4412
19488TIP3    H279956   3.080   4.465  11.000  1.6878 -1.6287  0.3605
19489TIP3   OH279957   3.040   0.616   5.447  0.2095 -0.1238 -0.2560
19489TIP3    H179958   3.081   0.550   5.504 -0.3508 -0.2922 -0.0315
19489TIP3    H279959   3.049   0.581   5.359  1.1594  0.1776 -0.2847
19490TIP3   OH279960   4.484   2.853   1.041 -0.1885 -0.6106 -0.2852
19490TIP3    H179961   4.546   2.909   0.995 -0.5783 -0.6395 -0.8574
19490TIP3    H279962   4.531   2.770   1.052  0.3221 -0.2394  0.4043
19491TIP3   OH279963   3.410   2.431  16.405 -0.1238  0.2695  0.3383
19491TIP3    H179964   3.366   2.516  16.400  1.2787  1.1518  1.6991
19491TIP3    H279965   3.461   2.426  16.324 -1.3846 -0.0084 -0.4670
19492TIP3   OH279966   4.057   0.277  14.089 -0.0095  0.0669 -0.6072
19492TIP3    H179967   4.122   0.239  14.148  0.4690 -0.8594 -1.6891
19492TIP3    H279968   4.103   0.289  14.006 -1.2125 -0.7249 -1.4411
19493TIP3   OH279969   0.725   3.239   3.837 -0.2284 -0.4785 -0.1430
19493TIP3    H179970   0.641   3.194   3.849  0.0283 -1.0498 -0.4886
19493TIP3    H279971   0.741   3.283   3.921 -0.5652 -0.8821  0.1363
19494TIP3   OH279972   3.870   3.497   5.536  0.2832  0.1529  0.7121
19494TIP3    H179973   3.876   3.424   5.598  0.5984  0.5887  1.2009
19494TIP3    H279974   3.856   3.574   5.590  1.0545  0.6099  0.2826
19495TIP3   OH279975   2.706   0.027   5.252  0.0112  0.1123 -0.5683
19495TIP3    H179976   2.724   0.113   5.291 -1.3279  1.4639 -2.6933
19495TIP3    H279977   2.784  -0.025   5.270  0.4552  1.4229  1.6370
19496TIP3   OH279978   0.716   0.398  12.884 -0.3511  0.0651  0.4963
19496TIP3    H179979   0.798   0.441  12.908  0.2775 -0.9916  0.3353
19496TIP3    H279980   0.705   0.329  12.950  0.4659 -1.7098 -1.1229
19497TIP3   OH279981   4.587   4.619  12.652 -0.1235  0.4406 -0.2853
19497TIP3    H179982   4.621   4.705  12.676  2.3475  0.2439 -2.6390
19497TIP3    H279983   4.534   4.593  12.727  0.6158  3.1495  1.3290
19498TIP3   OH279984   0.967   0.075  16.279 -0.0441  0.5515 -0.0903
19498TIP3    H179985   0.946   0.139  16.211  1.6893  0.2478 -0.9523
19498TIP3    H279986   0.901   0.006  16.267  1.2440 -0.3456 -2.6821
19499TIP3   OH279987   2.057   2.292   0.408 -0.1347 -0.3499  0.8991
19499TIP3    H179988   1.980   2.331   0.449 -0.6364 -0.2856 -0.0784
19499TIP3    H279989   2.072   2.346   0.330  2.7020  1.5586  2.5647
19500TIP3   OH279990   6.381   3.982   2.317  0.0963  0.4006 -0.0086
19500TIP3    H179991   6.341   3.979   2.404  2.2746 -3.3871  1.0833
19500TIP3    H279992   6.420   4.069   2.312 -1.0378  1.1277  2.3146
19501TIP3   OH279993   4.319   6.237   6.021  0.1213  0.1052 -0.1355
19501TIP3    H179994   4.329   6.193   6.105  0.3860  0.7056  0.1550
19501TIP3    H279995   4.398   6.290   6.012  0.6150 -0.8065 -1.2830
19502TIP3   OH279996   2.943   1.883   0.203  0.4119  0.4845  0.3695
19502TIP3    H179997   2.912   1.848   0.119  1.6159 -3.3812  1.3277
19502TIP3    H279998   3.037   1.895   0.191  0.6690 -0.5168  1.2566
19503TIP3   OH279999   1.513   0.157   1.411 -0.6169  0.0712 -0.6344
19503TIP3    H180000   1.496   0.118   1.497 -0.2198  0.1912 -0.4978
19503TIP3    H280001   1.426   0.173   1.374 -0.8887  2.0297  0.6671
19504TIP3   OH280002   6.148   1.174   0.443 -0.1169  0.0913  0.1954
19504TIP3    H180003   6.206   1.131   0.506  0.1060 -1.5206 -1.0465
19504TIP3    H280004   6.179   1.144   0.357 -2.1531 -0.0228 -0.5610
19505TIP3   OH280005   2.422   2.480  16.246  0.4029  0.3781 -0.5980
19505TIP3    H180006   2.415   2.560  16.195 -1.2158 -0.7842 -2.3382
19505TIP3    H280007   2.332   2.448  16.255  0.9204 -0.8309  0.7687
19506TIP3   OH280008   0.598   5.521  15.363 -0.1755  0.2721  0.2362
19506TIP3    H180009   0.671   5.581  15.378 -0.2837  0.6751 -0.7644
19506TIP3    H280010   0.635   5.434  15.377  1.7376  0.0839 -4.1883
19507TIP3   OH280011   3.163   5.748  14.350  0.1410 -0.3446  0.5208
19507TIP3    H180012   3.144   5.663  14.310  0.5373 -0.1882 -0.0054
19507TIP3    H280013   3.249   5.737  14.389 -0.0200 -0.3334  0.8800
19508TIP3   OH280014   3.935   2.596   2.322 -0.1414  0.3499 -0.2176
19508TIP3    H180015   3.881   2.600   2.401 -0.5101  0.3301 -0.4689
19508TIP3    H280016   3.927   2.683   2.283 -0.5914  0.1217 -0.6503
19509TIP3   OH280017   2.658   6.073  13.596  0.1484 -0.6886 -0.0205
19509TIP3    H180018   2.751   6.090  13.610 -0.1815  0.3000  1.0871
19509TIP3    H280019   2.625   6.049  13.682 -0.9610  0.6518 -0.0377
19510TIP3   OH280020   3.706   2.427   4.694 -0.2954 -0.5118  0.3667
19510TIP3    H180021   3.663   2.509   4.671  0.5005  0.4506  2.0316
19510TIP3    H280022   3.637   2.362   4.695 -1.6274  0.8133  2.1293
19511TIP3   OH280023   2.853   1.371   5.523 -0.0408 -0.2608  0.1636
19511TIP3    H180024   2.822   1.371   5.433  0.1068 -0.0525  0.1135
19511TIP3    H280025   2.943   1.341   5.518 -0.2460 -0.9115  0.3161
19512TIP3   OH280026   0.345   0.502   1.366 -0.1182  0.1937 -0.1342
19512TIP3    H180027   0.259   0.502   1.408  0.0125  1.6995  0.2061
19512TIP3    H280028   0.363   0.594   1.348  1.0675 -0.1668 -0.9630
19513TIP3   OH280029   0.824   3.081  15.870 -0.3089 -0.4213  0.6533
19513TIP3    H180030   0.733   3.108  15.854 -0.2211  0.0235  0.8838
19513TIP3    H280031   0.827   2.990  15.841 -0.0532  0.4201 -2.3531
19514TIP3   OH280032   4.998   1.849   4.094  0.2122 -0.5743  0.0208
19514TIP3    H180033   5.056   1.778   4.065  0.2823  0.2712 -2.0664
19514TIP3    H280034   4.920   1.840   4.040  0.7809  1.7220 -1.3262
19515TIP3   OH280035   2.000   0.867   5.283  0.2164  0.4813  0.5120
19515TIP3    H180036   1.915   0.905   5.260  0.0758 -0.1888 -0.1319
19515TIP3    H280037   1.990   0.841   5.375  0.0856  1.3530  0.7530
19516TIP3   OH280038   4.010   4.799   0.552  0.8026  0.0144  0.6877
19516TIP3    H180039   4.010   4.703   0.549  0.6160  0.0418 -0.2873
19516TIP3    H280040   3.918   4.824   0.548  0.9389  0.2950 -1.9257
19517TIP3   OH280041   4.203   2.119  10.751 -0.0096  0.1450  0.7369
19517TIP3    H180042   4.155   2.040  10.777 -0.7918  0.8254  1.4201
19517TIP3    H280043   4.182   2.182  10.820 -0.1018  1.2215 -0.2671
19518TIP3   OH280044   0.238   4.832  12.194 -0.0771 -1.0782 -0.1739
19518TIP3    H180045   0.318   4.804  12.148  0.3807 -0.1031  0.0013
19518TIP3    H280046   0.167   4.789  12.147  0.5222 -1.6583 -0.5726
19519TIP3   OH280047   1.153   1.828  12.673  0.2729 -0.1395 -0.8977
19519TIP3    H180048   1.105   1.775  12.609 -1.5165  0.3745 -0.0389
19519TIP3    H280049   1.185   1.903  12.623 -1.3162  0.3863 -1.1700
19520TIP3   OH280050   6.358   3.534  12.614 -0.1671 -0.2181 -0.2821
19520TIP3    H180051   6.362   3.478  12.537  1.2421 -0.3187 -0.1452
19520TIP3    H280052   6.368   3.474  12.688  0.4816  0.1042 -0.1030
19521TIP3   OH280053   3.815   1.237   2.745  0.1778 -0.0010  0.5757
19521TIP3    H180054   3.817   1.210   2.837  0.1057 -0.5633  0.4127
19521TIP3    H280055   3.756   1.175   2.703  0.3766  0.1259  0.1060
19522TIP3   OH280056   5.639   2.541   0.158 -0.2040  0.5730 -0.0297
19522TIP3    H180057   5.707   2.488   0.117 -0.6754 -0.2725  0.2521
19522TIP3    H280058   5.627   2.502   0.245  0.9224  2.4676  1.0409
19523TIP3   OH280059   2.999   3.890  15.600  0.1749  0.0233 -0.8545
19523TIP3    H180060   3.094   3.878  15.605  0.1172 -0.4864 -0.9681
19523TIP3    H280061   2.984   3.974  15.644  0.7052  0.2425 -1.0784
19524TIP3   OH280062   3.842   1.025  16.064  0.1156 -0.7035  0.4511
19524TIP3    H180063   3.817   1.041  15.973 -2.6698 -0.5623  1.1619
19524TIP3    H280064   3.794   0.947  16.089  1.3614 -1.1230  1.6538
19525TIP3   OH280065   2.812   4.229  15.339  0.4645 -0.1766  0.0252
19525TIP3    H180066   2.825   4.153  15.282 -1.4941  0.1510 -0.9341
19525TIP3    H280067   2.837   4.303  15.284 -0.4288  0.0638 -0.0727
19526TIP3   OH280068   1.269   5.943  13.195 -0.3006  0.1526 -0.0883
19526TIP3    H180069   1.315   5.925  13.113  0.0718  0.5730  0.0241
19526TIP3    H280070   1.338   5.946  13.261 -0.5837 -0.0432  0.2216
19527TIP3   OH280071   0.808   1.845   1.321  0.2291  0.0486  0.5045
19527TIP3    H180072   0.867   1.771   1.334 -0.2995  0.0382  3.5504
19527TIP3    H280073   0.725   1.804   1.295  0.3764 -0.2720  0.5226
19528TIP3   OH280074   3.138   5.311  15.970  0.3049 -0.0664  0.1869
19528TIP3    H180075   3.207   5.374  15.949 -1.6789  1.8294 -1.0733
19528TIP3    H280076   3.164   5.275  16.055  1.0135  3.3335  1.5981
19529TIP3   OH280077   0.283   2.710  15.246  0.1770 -0.0467  0.5310
19529TIP3    H180078   0.260   2.620  15.223  0.5453  0.3268 -1.4300
19529TIP3    H280079   0.214   2.736  15.307 -1.4208 -0.8371 -0.8354
19530TIP3   OH280080   1.800   0.092  16.987  0.3512  0.3153 -0.1667
19530TIP3    H180081   1.892   0.109  17.007  0.2162 -0.2240  1.0339
19530TIP3    H280082   1.753   0.118  17.067 -0.2709 -1.6942  0.1790
19531TIP3   OH280083   5.676   6.820   0.465 -0.2457  0.2140 -0.4824
19531TIP3    H180084   5.770   6.804   0.460 -0.4266 -1.4534  0.5645
19531TIP3    H280085   5.656   6.817   0.558 -1.2939  0.9434 -0.6641
19532TIP3   OH280086   1.534   2.305  16.971 -0.3809  0.6061  0.0430
19532TIP3    H180087   1.599   2.375  16.982 -1.6671  1.9364 -0.5972
19532TIP3    H280088   1.570   2.232  17.021  1.5228  1.3534 -0.1312
19533TIP3   OH280089   6.814   1.812  12.828 -0.0239  0.4160  0.2945
19533TIP3    H180090   6.880   1.877  12.852  0.7349 -0.4449  0.6491
19533TIP3    H280091   6.737   1.835  12.879  0.2996  0.9201  0.5631
19534TIP3   OH280092   6.636   2.028  12.491 -0.2061  0.0519 -0.5171
19534TIP3    H180093   6.579   2.092  12.449 -2.0961 -0.4177  1.1239
19534TIP3    H280094   6.582   1.991  12.561  1.0659 -2.7581 -0.8878
19535TIP3   OH280095   2.526   0.009  12.854  0.6047 -0.1786 -0.3779
19535TIP3    H180096   2.564  -0.007  12.768  2.0422 -0.5322  0.2958
19535TIP3    H280097   2.502   0.102  12.852  0.9049 -0.1058 -1.0438
19536TIP3   OH280098   6.423   1.106  10.977 -0.0097 -0.3663 -0.4409
19536TIP3    H180099   6.332   1.085  11.000 -0.2426  0.3605 -0.6730
19536TIP3    H280100   6.437   1.194  11.012 -0.1735  0.5166 -2.4505
19537TIP3   OH280101   4.894   4.911   5.005 -0.4777  0.3029  0.2780
19537TIP3    H180102   4.945   4.888   4.927 -0.7968 -1.4114  0.5318
19537TIP3    H280103   4.934   4.992   5.036  1.0813 -0.1509 -0.4242
19538TIP3   OH280104   1.506   2.131  12.100  0.4411  0.2753  0.2171
19538TIP3    H180105   1.451   2.205  12.076  2.3073  1.2590 -1.3329
19538TIP3    H280106   1.447   2.056  12.100 -1.0836  1.4287 -0.3538
19539TIP3   OH280107   5.435   4.460  11.443 -0.2798 -0.2318  0.0885
19539TIP3    H180108   5.461   4.390  11.503 -0.2058 -0.9643 -0.7788
19539TIP3    H280109   5.361   4.502  11.487  0.6038  0.1118  1.3070
19540TIP3   OH280110   2.874   2.517   5.588 -0.6340 -0.2338 -0.3031
19540TIP3    H180111   2.838   2.570   5.659  1.0854  0.8883 -0.1960
19540TIP3    H280112   2.854   2.566   5.509  0.8549  0.5706 -0.2143
19541TIP3   OH280113   0.842   1.557   1.602  0.0794 -0.4266 -0.4941
19541TIP3    H180114   0.836   1.646   1.636 -1.2992 -0.4304 -0.6395
19541TIP3    H280115   0.753   1.537   1.573  0.3909 -1.8070 -0.5765
19542TIP3   OH280116   0.686   3.007  13.315 -0.3674 -0.5388  0.0408
19542TIP3    H180117   0.685   2.912  13.303 -0.0279 -0.5332 -0.0295
19542TIP3    H280118   0.776   3.028  13.339 -0.0299 -0.0288 -1.5744
19543TIP3   OH280119   6.421   3.217   4.362 -0.1330  0.5081 -0.4370
19543TIP3    H180120   6.360   3.289   4.381  1.1127  1.7692 -0.9921
19543TIP3    H280121   6.507   3.254   4.382  0.4422 -1.5457  1.3191
19544TIP3   OH280122   3.732   2.306   1.553  0.2083  0.5133  0.4517
19544TIP3    H180123   3.821   2.271   1.544 -0.5321 -1.8736  1.5868
19544TIP3    H280124   3.690   2.248   1.617 -2.7797  0.3135 -1.4981
19545TIP3   OH280125   0.451   6.127  15.346  0.4714 -0.0520  0.0173
19545TIP3    H180126   0.367   6.169  15.329  0.0610 -0.6441  0.5629
19545TIP3    H280127   0.458   6.057  15.281  0.3341 -0.2981  0.2677
19546TIP3   OH280128   6.470   1.566   4.813  0.4587  0.2857  0.1718
19546TIP3    H180129   6.486   1.535   4.724  2.1091 -1.9238  1.1551
19546TIP3    H280130   6.552   1.550   4.859  0.2789  3.1091  1.6903
19547TIP3   OH280131   0.398   1.979   2.556  0.1745  0.0147  0.1545
19547TIP3    H180132   0.354   1.973   2.641  0.2605 -1.9085  0.1104
19547TIP3    H280133   0.488   1.954   2.574  1.0705  2.8302  0.0387
19548TIP3   OH280134   3.220   0.969   4.416 -0.2169  0.2448 -0.7118
19548TIP3    H180135   3.195   0.920   4.495 -1.3005  2.2200  0.2382
19548TIP3    H280136   3.154   0.946   4.351 -0.1905 -0.2335 -0.5744
19549TIP3   OH280137   0.546   2.623  14.065 -0.0241 -0.2931 -0.4705
19549TIP3    H180138   0.601   2.689  14.023  0.6261  0.1635  1.0284
19549TIP3    H280139   0.457   2.658  14.059  0.0060 -0.3829 -1.6935
19550TIP3   OH280140   5.288   2.817   6.297  0.5024 -0.6218  0.0350
19550TIP3    H180141   5.353   2.827   6.366 -1.4511 -0.1376  1.9037
19550TIP3    H280142   5.252   2.729   6.310  0.6924 -0.8593 -0.9318
19551TIP3   OH280143   4.069   2.288  11.027 -0.1385 -0.1518 -0.5769
19551TIP3    H180144   4.163   2.282  11.006  0.3524  0.8403  1.1617
19551TIP3    H280145   4.037   2.198  11.017  0.6093 -0.2278 -2.7795
19552TIP3   OH280146   6.219   2.775  12.276 -0.1829  0.2865 -0.0052
19552TIP3    H180147   6.151   2.761  12.342 -0.1280 -0.3625 -0.0818
19552TIP3    H280148   6.277   2.841  12.314  0.3185 -0.6775  0.9705
19553TIP3   OH280149   4.378   0.350   2.508 -0.1966  0.1262  0.5620
19553TIP3    H180150   4.424   0.409   2.448  0.3092 -1.9665 -1.2311
19553TIP3    H280151   4.396   0.386   2.595  1.7098  1.4839 -0.3203
19554TIP3   OH280152   2.797   5.621   0.905  0.6849  0.4280  0.1287
19554TIP3    H180153   2.742   5.610   0.982  1.1782  0.2732  0.4599
19554TIP3    H280154   2.853   5.544   0.903 -0.1308 -0.1778 -1.0625
19555TIP3   OH280155   6.486   6.081   6.160  0.2081 -0.2915  0.6435
19555TIP3    H180156   6.476   6.025   6.083  0.0872 -0.2693  0.6430
19555TIP3    H280157   6.406   6.068   6.210 -0.4084  0.8709  0.0049
19556TIP3   OH280158   3.211   2.688  10.777  0.6675  0.1553  0.6700
19556TIP3    H180159   3.183   2.779  10.785  0.3808  0.3200 -1.6366
19556TIP3    H280160   3.297   2.692  10.735 -0.0745 -0.6304 -1.0312
19557TIP3   OH280161   6.250   0.890   2.194 -0.4409 -0.2554 -0.5661
19557TIP3    H180162   6.330   0.860   2.238 -0.5970 -1.0102 -0.7828
19557TIP3    H280163   6.257   0.985   2.193 -0.2104 -0.2369  0.6944
19558TIP3   OH280164   5.634   5.169   5.616  0.0690  0.3872  0.0908
19558TIP3    H180165   5.598   5.101   5.560  2.5435  0.3990 -1.6777
19558TIP3    H280166   5.679   5.121   5.686  0.4866  0.2477 -0.2731
19559TIP3   OH280167   1.420   6.245  14.701 -0.5922 -0.0191 -0.3288
19559TIP3    H180168   1.338   6.265  14.746  0.5013  2.2478  0.8485
19559TIP3    H280169   1.403   6.270  14.610 -0.6617  2.4466  0.2799
19560TIP3   OH280170   3.177   3.226   3.815  0.3009  0.0159  0.4893
19560TIP3    H180171   3.092   3.261   3.840  0.2661  0.6881 -0.5121
19560TIP3    H280172   3.239   3.276   3.868  0.1021 -0.1511  0.8825
19561TIP3   OH280173   1.808   6.385  11.009  0.1511 -0.5898 -0.2275
19561TIP3    H180174   1.879   6.435  10.967 -0.4771  0.0784 -0.5120
19561TIP3    H280175   1.843   6.360  11.094  1.7873 -2.6912 -1.3979
19562TIP3   OH280176   6.305   1.802   3.311  0.6001 -0.7144  0.0110
19562TIP3    H180177   6.400   1.802   3.324  0.4698  1.7492  1.7605
19562TIP3    H280178   6.269   1.815   3.399 -1.1913  1.0247 -0.8875
19563TIP3   OH280179   5.049   1.725  13.753  0.1781  0.1074 -0.1840
19563TIP3    H180180   5.092   1.664  13.693  0.8577  0.0485  0.3410
19563TIP3    H280181   5.114   1.740  13.822 -0.2767  0.8129  0.1052
19564TIP3   OH280182   1.930   6.088   4.443  0.0375 -0.0052 -0.0337
19564TIP3    H180183   1.862   6.035   4.402  0.2747 -0.1565 -0.2301
19564TIP3    H280184   1.884   6.136   4.512 -0.5477  0.9635 -1.0698
19565TIP3   OH280185   3.791   3.740   2.612 -0.7505  0.6208  0.0359
19565TIP3    H180186   3.706   3.779   2.633 -2.3693 -1.4442 -2.1657
19565TIP3    H280187   3.804   3.760   2.519 -0.0850 -1.2294 -0.3162
19566TIP3   OH280188   0.670   2.890  15.731 -0.1729 -0.4405  0.1403
19566TIP3    H180189   0.691   2.799  15.714 -2.0479 -1.1069  1.1010
19566TIP3    H280190   0.650   2.926  15.644  2.4832 -0.3313 -0.5159
19567TIP3   OH280191   0.494   6.642   1.102 -0.3493  0.2701 -0.2373
19567TIP3    H180192   0.531   6.554   1.110 -0.9340 -0.0416 -0.8572
19567TIP3    H280193   0.406   6.634   1.140 -0.2204  0.7148  0.1672
19568TIP3   OH280194   0.760   6.060   5.499  0.1603 -0.1748 -0.2328
19568TIP3    H180195   0.810   6.079   5.578 -1.1302 -0.1438  0.6086
19568TIP3    H280196   0.704   5.986   5.523  0.5453 -0.9013 -1.4770
19569TIP3   OH280197   2.957   1.787   2.054  0.1026 -0.2492  0.0100
19569TIP3    H180198   2.896   1.860   2.042 -0.4338  0.0010  3.2632
19569TIP3    H280199   3.034   1.810   2.003 -1.2740  0.9900 -1.6092
19570TIP3   OH280200   5.111   0.910  15.997 -0.0984 -0.0522 -0.8713
19570TIP3    H180201   5.059   0.863  16.062  0.9982  1.3406  1.1196
19570TIP3    H280202   5.202   0.889  16.019  0.3005 -1.0155 -3.1537
19571TIP3   OH280203   3.576   6.685   4.902 -0.0089  0.2995  0.0428
19571TIP3    H180204   3.498   6.691   4.957  1.0237  1.3984  1.4740
19571TIP3    H280205   3.627   6.763   4.924  2.2166 -1.1513  0.3352
19572TIP3   OH280206   0.761   5.127  16.595 -0.0355 -0.7468  0.0175
19572TIP3    H180207   0.825   5.063  16.627  1.6889  0.0562 -1.6806
19572TIP3    H280208   0.736   5.095  16.508  1.0725  0.9911 -0.9882
19573TIP3   OH280209   6.774   3.005  13.868 -0.2800  0.0733 -0.0295
19573TIP3    H180210   6.830   3.000  13.791 -0.6085  0.9213 -0.3425
19573TIP3    H280211   6.832   2.984  13.941  0.0625 -0.6116 -0.4959
19574TIP3   OH280212   5.589   3.821  17.189 -0.0604 -0.2276  0.0864
19574TIP3    H180213   5.591   3.843  17.096  0.4170 -2.0461 -0.3910
19574TIP3    H280214   5.612   3.728  17.191  1.1762  0.0677  2.1245
19575TIP3   OH280215   5.190   5.449  16.258 -0.1501 -0.0564  0.4813
19575TIP3    H180216   5.259   5.382  16.251 -0.8002 -0.8412  1.3820
19575TIP3    H280217   5.184   5.486  16.170  0.4388 -0.9771  0.0364
19576TIP3   OH280218   5.142   2.299  16.873  0.0046 -0.6300  0.1474
19576TIP3    H180219   5.077   2.235  16.844  0.1557 -0.3772 -0.7860
19576TIP3    H280220   5.108   2.383  16.842  0.5498 -0.4441  0.0439
19577TIP3   OH280221   3.902   0.806   2.335  0.0067 -0.4787  0.2658
19577TIP3    H180222   3.934   0.871   2.397 -0.2183  2.0510 -2.0312
19577TIP3    H280223   3.810   0.829   2.322 -0.3372 -1.8686  0.0474
19578TIP3   OH280224   4.114   4.279  15.455 -0.0501 -0.2912 -0.3293
19578TIP3    H180225   4.079   4.363  15.425  2.2618  0.7616 -0.2861
19578TIP3    H280226   4.202   4.275  15.417  0.3650 -2.1240  0.7052
19579TIP3   OH280227   5.701   1.212  12.077  0.2979  0.1563 -0.3177
19579TIP3    H180228   5.688   1.279  12.144 -0.1212 -0.5017  0.2645
19579TIP3    H280229   5.796   1.199  12.074  0.2152 -1.6865  2.0464
19580TIP3   OH280230   0.350   6.155  13.169  0.2306 -0.5805 -0.0578
19580TIP3    H180231   0.422   6.151  13.106  0.9651 -2.6683  0.8289
19580TIP3    H280232   0.356   6.242  13.207  1.0010  0.0059 -1.4442
19581TIP3   OH280233   6.411   1.705  13.480 -0.2318 -0.2699 -0.2984
19581TIP3    H180234   6.420   1.758  13.401 -0.3230  0.2685  0.0546
19581TIP3    H280235   6.350   1.635  13.455  0.2206 -0.4674 -0.8865
19582TIP3   OH280236   2.471   2.999   1.451 -0.0831  0.1320 -0.5451
19582TIP3    H180237   2.400   3.063   1.441 -1.9328 -1.7799 -0.4131
19582TIP3    H280238   2.484   2.993   1.545  0.9945  1.2078 -0.6086
19583TIP3   OH280239   0.407   2.605   0.734  0.0073  0.2824  0.0836
19583TIP3    H180240   0.389   2.656   0.656 -1.5719  0.7601  0.7308
19583TIP3    H280241   0.414   2.670   0.804  1.1683 -0.1542  0.3993
19584TIP3   OH280242   3.777   6.291  16.275  0.3003  0.2847  0.2777
19584TIP3    H180243   3.807   6.202  16.295  0.0933  0.0837 -0.2994
19584TIP3    H280244   3.688   6.294  16.310  1.0267  0.9656  2.2320
19585TIP3   OH280245   3.920   6.293  16.935  0.1306  0.3258 -0.0225
19585TIP3    H180246   3.845   6.352  16.927  0.0941  0.3539  0.5099
19585TIP3    H280247   3.881   6.207  16.954  0.2874  0.6832  2.1000
19586TIP3   OH280248   1.383   5.139   0.255 -0.3708 -0.6991 -0.3670
19586TIP3    H180249   1.390   5.229   0.285 -1.6980 -0.6146 -0.2278
19586TIP3    H280250   1.473   5.107   0.251  0.1268  0.6676 -0.5506
19587TIP3   OH280251   3.825   0.423  16.459 -0.4340  0.1778  0.1675
19587TIP3    H180252   3.876   0.441  16.380  0.8780  1.0040  1.1703
19587TIP3    H280253   3.840   0.330  16.476  1.4023  0.5517  0.8503
19588TIP3   OH280254   4.535   1.275   2.463  0.8725 -0.0698 -0.0767
19588TIP3    H180255   4.457   1.300   2.414  1.0684  0.0447 -0.3271
19588TIP3    H280256   4.501   1.224   2.537  0.4465  1.0743  0.5512
19589TIP3   OH280257   0.313   5.890   3.065  0.3498  0.6194 -0.0451
19589TIP3    H180258   0.362   5.902   3.146  2.7866  1.5148 -1.5137
19589TIP3    H280259   0.379   5.864   3.001 -1.0239  2.1750 -2.2634
19590TIP3   OH280260   4.974   4.437  12.220 -0.2413 -0.7172 -0.4960
19590TIP3    H180261   4.891   4.428  12.267 -0.1254  0.8399  0.0831
19590TIP3    H280262   5.016   4.512  12.261  2.0784 -2.2403  0.1246
19591TIP3   OH280263   6.750   5.319  13.893  0.0341  0.2446 -0.3433
19591TIP3    H180264   6.658   5.325  13.867 -0.3770 -0.3433  0.9188
19591TIP3    H280265   6.768   5.225  13.896  0.4011  0.3295  0.3101
19592TIP3   OH280266   5.187   4.326   6.507  0.6109  0.1757 -0.6506
19592TIP3    H180267   5.262   4.386   6.507  0.3981  0.4830  0.8770
19592TIP3    H280268   5.136   4.351   6.430  2.7260 -0.9385 -2.5363
19593TIP3   OH280269   1.999   2.813   0.631 -0.0307  0.3558  0.5866
19593TIP3    H180270   1.941   2.819   0.706  0.3555  0.1000  0.9087
19593TIP3    H280271   1.953   2.756   0.569 -1.2228  2.0837 -0.1953
19594TIP3   OH280272   4.611   5.710  16.785 -0.1278 -0.6019 -0.1567
19594TIP3    H180273   4.597   5.618  16.763 -0.1269 -0.5781 -0.2562
19594TIP3    H280274   4.639   5.709  16.877  0.0368 -0.7127 -0.2094
19595TIP3   OH280275   5.264   2.054  13.259  0.5491  0.2669  0.3169
19595TIP3    H180276   5.201   2.044  13.331  1.0965 -0.9193  0.6631
19595TIP3    H280277   5.349   2.054  13.302  0.9257 -1.2581 -0.3580
19596TIP3   OH280278   5.181   3.975  11.671 -0.0531 -0.3145  0.6438
19596TIP3    H180279   5.194   4.002  11.761 -1.3107 -1.5888  1.2576
19596TIP3    H280280   5.177   3.879  11.675  2.9133 -0.6437 -1.2213
19597TIP3   OH280281   0.263   5.824   4.360 -0.7221 -0.2054 -0.1938
19597TIP3    H180282   0.245   5.915   4.338 -1.1889 -0.2983 -0.2131
19597TIP3    H280283   0.331   5.796   4.299 -1.0694 -0.0740 -0.6421
19598TIP3   OH280284   1.069   3.980  15.702 -0.0655  0.2591  0.6424
19598TIP3    H180285   1.082   3.982  15.797 -0.0070 -0.2663  0.6462
19598TIP3    H280286   1.040   3.891  15.684  2.3329 -0.4283 -0.1526
19599TIP3   OH280287   1.478   2.204   6.360 -0.2095  0.4687  0.1674
19599TIP3    H180288   1.424   2.180   6.285 -0.0523 -0.1060  0.2364
19599TIP3    H280289   1.432   2.278   6.400 -0.1222  0.9926 -0.6804
19600TIP3   OH280290   1.586   5.642  13.610  0.1779 -0.1034  0.2383
19600TIP3    H180291   1.551   5.682  13.690  1.1760 -1.4772  1.3962
19600TIP3    H280292   1.645   5.573  13.641  4.7521  2.5852 -1.4901
19601TIP3   OH280293   4.208   6.784   1.060 -0.0046  0.1276  0.1511
19601TIP3    H180294   4.115   6.803   1.054 -0.3300 -1.0472  1.1642
19601TIP3    H280295   4.246   6.862   1.100 -0.2632  1.2775 -1.6826
19602TIP3   OH280296   5.411   0.015   3.973 -0.0673 -0.2038  0.0851
19602TIP3    H180297   5.361  -0.039   4.034 -0.7595  0.2335 -0.0838
19602TIP3    H280298   5.424   0.098   4.018  0.0408 -0.1279 -0.0823
19603TIP3   OH280299   3.060   3.178   1.468 -0.0885  0.3592 -0.2265
19603TIP3    H180300   3.049   3.224   1.552 -0.6481 -1.0328  0.4997
19603TIP3    H280301   3.139   3.125   1.480  0.9795  1.6380 -1.3222
19604TIP3   OH280302   1.966   2.336   2.210 -0.3366 -0.2734 -0.3444
19604TIP3    H180303   1.953   2.265   2.148 -1.3330 -1.2104  0.8759
19604TIP3    H280304   1.908   2.406   2.181  0.5468  0.0227 -1.4742
19605TIP3   OH280305   6.272   4.362  14.505  0.0208 -1.2387  0.0687
19605TIP3    H180306   6.318   4.282  14.529  0.1566 -1.1455  0.1258
19605TIP3    H280307   6.311   4.429  14.562  1.6528 -0.6285 -1.6486
19606TIP3   OH280308   3.239   1.923  16.497 -0.4423 -0.2612  0.2300
19606TIP3    H180309   3.322   1.940  16.453 -1.0738  0.3904 -0.7499
19606TIP3    H280310   3.247   1.968  16.581  0.6337 -1.2077  0.6567
19607TIP3   OH280311   5.128   2.933   1.017  0.3126 -0.1120  0.4901
19607TIP3    H180312   5.151   2.841   1.022  1.5187  0.2410  2.6668
19607TIP3    H280313   5.211   2.980   1.029 -0.2827  1.2755 -0.5048
19608TIP3   OH280314   0.306   5.552   4.007  0.6703  0.2693 -0.5758
19608TIP3    H180315   0.229   5.496   4.009  1.2636 -0.5468  0.9311
19608TIP3    H280316   0.315   5.578   3.915  0.2401 -1.9120 -1.2796
19609TIP3   OH280317   6.316   1.695  15.091 -0.5563  0.1878  0.8127
19609TIP3    H180318   6.344   1.781  15.123 -0.5388  0.0320  1.2320
19609TIP3    H280319   6.313   1.704  14.996  1.7003  0.0015  0.6685
19610TIP3   OH280320   6.130   6.265   4.103 -0.5581  0.2632  0.3306
19610TIP3    H180321   6.205   6.289   4.048 -1.0559  0.5652 -0.2270
19610TIP3    H280322   6.085   6.347   4.121 -1.1266  0.0131  0.1029
19611TIP3   OH280323   6.410   5.471   3.817 -0.3224 -0.0639 -0.0166
19611TIP3    H180324   6.496   5.461   3.776 -0.3072  0.4004 -0.0991
19611TIP3    H280325   6.362   5.530   3.759  0.4466  2.4248  1.7363
19612TIP3   OH280326   2.773   2.147  11.869  0.0095 -0.3550  0.6026
19612TIP3    H180327   2.789   2.237  11.842  0.7540 -0.6758 -0.0629
19612TIP3    H280328   2.779   2.149  11.964 -2.5307  0.7735  0.8151
19613TIP3   OH280329   3.241   1.439   2.712 -0.2402  0.4077 -0.2756
19613TIP3    H180330   3.259   1.354   2.673 -1.5596  0.2428 -0.5881
19613TIP3    H280331   3.321   1.461   2.760  0.2663 -0.8164 -0.5113
19614TIP3   OH280332   5.905   5.999   0.008 -0.4313  0.5050 -0.5312
19614TIP3    H180333   5.982   6.026  -0.043 -1.0822  0.1427 -1.7601
19614TIP3    H280334   5.880   5.914  -0.029 -0.8328  0.1535  0.5243
19615TIP3   OH280335   3.369   4.968  11.597 -0.0453 -0.1972  0.2068
19615TIP3    H180336   3.348   4.930  11.512  0.0184 -1.0568  0.5696
19615TIP3    H280337   3.299   4.938  11.655 -0.4596  0.9296  0.3226
19616TIP3   OH280338   3.645   1.013  11.859 -0.0309 -0.3770 -0.3517
19616TIP3    H180339   3.692   0.957  11.798 -0.0716 -1.4080  0.5357
19616TIP3    H280340   3.681   0.991  11.945 -0.1457  0.8619  0.0423
19617TIP3   OH280341   2.924   2.706  13.213  0.2560 -0.1904  0.3285
19617TIP3    H180342   2.915   2.774  13.146 -1.0297  0.4135  1.0882
19617TIP3    H280343   2.887   2.628  13.172  0.3456 -0.0699  0.0064
19618TIP3   OH280344   6.426   4.190  12.214  0.1565  0.0728  0.4221
19618TIP3    H180345   6.462   4.208  12.301  0.4341 -0.0913  0.3432
19618TIP3    H280346   6.503   4.171  12.160 -0.1285 -1.7662  0.6089
19619TIP3   OH280347   2.211   5.110   4.690 -0.1657 -0.1687 -0.0624
19619TIP3    H180348   2.189   5.111   4.783 -0.4975  0.0977 -0.1418
19619TIP3    H280349   2.292   5.161   4.684 -0.2754  0.0219  0.0525
19620TIP3   OH280350   4.562   3.495   4.456 -0.2045 -0.2417 -0.7017
19620TIP3    H180351   4.566   3.545   4.537 -0.6907 -2.5074  0.8247
19620TIP3    H280352   4.606   3.412   4.477  0.7818 -0.4329 -3.1546
19621TIP3   OH280353   3.015   1.994   5.363 -0.4069  0.9373 -0.3695
19621TIP3    H180354   3.012   2.078   5.408 -2.7372  0.5864  0.2630
19621TIP3    H280355   2.926   1.980   5.331  0.0918 -0.9539 -1.1280
19622TIP3   OH280356   2.173   1.033   0.057  0.3234 -0.1906 -0.2352
19622TIP3    H180357   2.223   0.959   0.092  1.9710  1.2909  0.6714
19622TIP3    H280358   2.095   1.037   0.113  1.7963  0.6966  1.8615
19623TIP3   OH280359   6.325   4.557  12.390  0.4910 -0.0431 -0.4943
19623TIP3    H180360   6.271   4.490  12.432  1.4340 -0.6755 -0.2815
19623TIP3    H280361   6.273   4.637  12.399 -0.0752 -0.4888  0.4040
19624TIP3   OH280362   3.643   6.537   1.777  0.3104  0.5595 -0.7077
19624TIP3    H180363   3.730   6.557   1.742  2.1979 -1.1997  2.3936
19624TIP3    H280364   3.657   6.532   1.872 -2.8142 -1.3719 -0.2064
19625TIP3   OH280365   5.205   3.157  13.377  0.3541 -0.4895  0.1450
19625TIP3    H180366   5.253   3.084  13.416 -0.1440 -0.4363  0.8800
19625TIP3    H280367   5.113   3.136  13.392  0.0774 -0.8728 -1.7516
19626TIP3   OH280368   1.127   5.324  15.355  0.0832  0.1293  0.4379
19626TIP3    H180369   1.214   5.320  15.315  1.0003 -1.1409  2.4187
19626TIP3    H280370   1.078   5.386  15.300  2.5551  1.7365 -0.0902
19627TIP3   OH280371   2.578   3.320   1.538 -0.6603  0.1815 -0.1660
19627TIP3    H180372   2.577   3.391   1.603 -0.5014 -1.3111  1.5578
19627TIP3    H280373   2.487   3.293   1.531 -0.7387  0.6247 -0.9195
19628TIP3   OH280374   5.945   0.322   1.476 -0.0741 -0.1787  0.2887
19628TIP3    H180375   5.959   0.412   1.446 -0.3348 -0.4653 -0.7265
19628TIP3    H280376   6.031   0.294   1.508  0.6390 -0.3694 -1.6539
19629TIP3   OH280377   2.637   4.913  13.780 -0.0665  0.0476  0.4062
19629TIP3    H180378   2.721   4.944  13.813 -0.2166  0.7103  0.1755
19629TIP3    H280379   2.572   4.966  13.826 -0.3654 -0.5544  0.6831
19630TIP3   OH280380   5.319   0.644  12.580 -0.0297  0.1482  0.0334
19630TIP3    H180381   5.364   0.713  12.629  1.5102 -1.3445  0.8152
19630TIP3    H280382   5.313   0.679  12.491 -1.3638  2.2043  0.8507
19631TIP3   OH280383   1.952   6.495  13.903 -0.4203  0.2123  0.6297
19631TIP3    H180384   1.897   6.458  13.834  0.1511  0.0416  0.2562
19631TIP3    H280385   1.970   6.585  13.875 -0.9894  0.4589  1.0444
19632TIP3   OH280386   2.713   2.195   3.149 -0.3160  0.3444 -0.3273
19632TIP3    H180387   2.631   2.151   3.169 -0.1583 -0.8391 -2.0174
19632TIP3    H280388   2.768   2.181   3.226 -1.4207  0.4980  0.5115
19633TIP3   OH280389   0.275   2.104   0.491 -0.2101  0.0116  0.2447
19633TIP3    H180390   0.370   2.098   0.477 -0.0841  1.1417  0.5175
19633TIP3    H280391   0.264   2.087   0.585 -0.3853 -1.0112  0.0539
19634TIP3   OH280392   6.014   6.415   6.459  0.0833 -0.0378 -0.6257
19634TIP3    H180393   5.923   6.394   6.438  0.0821  0.2497 -0.9137
19634TIP3    H280394   6.050   6.334   6.495 -0.5086  0.0643  0.2359
19635TIP3   OH280395   4.410   4.384   4.604 -0.0741  0.6575 -0.0899
19635TIP3    H180396   4.319   4.359   4.589  0.2450 -0.7392  0.2107
19635TIP3    H280397   4.444   4.317   4.664  1.7863 -0.1522 -1.9443
19636TIP3   OH280398   4.614   5.674   2.122  0.4115 -0.1012 -0.3163
19636TIP3    H180399   4.663   5.757   2.122  0.0540  0.1301  0.8383
19636TIP3    H280400   4.673   5.611   2.163 -0.4436  0.3213  1.6459
19637TIP3   OH280401   5.518   2.564   4.367  0.0397 -0.5335  0.1185
19637TIP3    H180402   5.525   2.473   4.396 -2.2148 -0.3385  1.5321
19637TIP3    H280403   5.567   2.614   4.432  2.5770 -0.7593 -1.4758
19638TIP3   OH280404   3.545   6.747   6.074 -0.2087 -0.3292 -0.2740
19638TIP3    H180405   3.492   6.816   6.034 -0.5264 -0.1422  0.4591
19638TIP3    H280406   3.620   6.792   6.112  0.1654 -0.5244 -0.7672
19639TIP3   OH280407   3.679   6.569  11.724 -0.7334  0.1321  0.4010
19639TIP3    H180408   3.705   6.480  11.701 -0.5680  0.6424 -1.6310
19639TIP3    H280409   3.714   6.583  11.812 -1.0391 -1.8929  0.8882
19640TIP3   OH280410   4.891   0.223   3.897 -0.5620 -0.3278  0.1298
19640TIP3    H180411   4.848   0.298   3.856 -0.0018  1.4352  2.5603
19640TIP3    H280412   4.896   0.158   3.828 -3.3397  0.9166 -1.4124
19641TIP3   OH280413   2.204   6.737   2.496  0.0500  0.0365 -0.2595
19641TIP3    H180414   2.253   6.680   2.555 -0.3770  0.2713  0.3351
19641TIP3    H280415   2.179   6.812   2.551 -1.8684 -0.5555 -0.2507
19642TIP3   OH280416   6.326   4.134   2.065 -0.5766  0.0363 -0.2451
19642TIP3    H180417   6.323   4.224   2.099 -3.1479  0.5858 -1.6777
19642TIP3    H280418   6.287   4.081   2.134 -0.3726  0.2208  0.0168
19643TIP3   OH280419   5.844   5.218   6.054 -0.0659  0.1830  0.0327
19643TIP3    H180420   5.826   5.220   6.148 -0.5467  0.6911 -0.0654
19643TIP3    H280421   5.847   5.125   6.032  2.1569 -0.0163  0.9332
19644TIP3   OH280422   1.367   1.657  10.622 -0.3767  0.1871 -0.2747
19644TIP3    H180423   1.293   1.608  10.658 -0.8835  0.4765 -0.8958
19644TIP3    H280424   1.398   1.604  10.549 -0.1091  0.1718 -0.1499
19645TIP3   OH280425   5.909   4.397  11.654  0.2374 -0.4813 -0.3425
19645TIP3    H180426   5.821   4.359  11.648 -0.2689  0.6199 -0.1825
19645TIP3    H280427   5.949   4.352  11.728 -0.1081 -1.1635 -0.5649
19646TIP3   OH280428   2.709   2.789  13.366 -0.2396  0.1155 -0.0239
19646TIP3    H180429   2.673   2.826  13.285 -1.0246 -2.0456 -0.7360
19646TIP3    H280430   2.779   2.731  13.336  1.1130  1.0934  1.0738
19647TIP3   OH280431   1.680   5.711   3.037 -0.0829  0.1274 -0.2571
19647TIP3    H180432   1.760   5.659   3.028  0.0880  0.4894 -0.9048
19647TIP3    H280433   1.664   5.715   3.131 -0.6171 -1.8703 -0.2337
19648TIP3   OH280434   6.207   4.967   0.041 -0.3572 -0.3049  0.1377
19648TIP3    H180435   6.177   4.966   0.132 -1.0616  0.3862 -0.0780
19648TIP3    H280436   6.157   5.038   0.000  1.1037  0.4532 -0.3997
19649TIP3   OH280437   3.378   1.387   6.226 -0.7332 -0.2993 -0.7530
19649TIP3    H180438   3.289   1.404   6.258  0.8713  2.5462  2.9954
19649TIP3    H280439   3.414   1.474   6.208  1.6292 -1.2843 -1.1259
19650TIP3   OH280440   4.353   1.321   1.573  0.4244 -0.0043 -0.5191
19650TIP3    H180441   4.350   1.346   1.481 -0.6349 -1.3482 -0.8824
19650TIP3    H280442   4.414   1.247   1.576 -0.3212 -0.6345 -0.3410
19651TIP3   OH280443   5.247   1.511   0.537 -1.1723 -0.1772  0.2991
19651TIP3    H180444   5.315   1.531   0.601 -0.5193  1.0572 -0.7480
19651TIP3    H280445   5.196   1.591   0.530 -1.2236 -0.2869 -0.7443
19652TIP3   OH280446   5.606   4.757  15.695  0.2002  0.2811  0.3698
19652TIP3    H180447   5.668   4.811  15.646 -0.5938  0.7994 -0.0664
19652TIP3    H280448   5.638   4.762  15.786 -0.0991  1.8636  0.4276
19653TIP3   OH280449   4.001   5.172   0.099 -0.1576 -0.5999  0.2894
19653TIP3    H180450   4.067   5.240   0.110 -0.2138 -0.5970  0.6286
19653TIP3    H280451   3.918   5.214   0.122 -0.1404 -0.8895  0.9123
19654TIP3   OH280452   3.261   0.637  13.811 -0.0160 -0.1500 -0.1782
19654TIP3    H180453   3.330   0.646  13.745 -0.8205 -0.2894 -1.0539
19654TIP3    H280454   3.232   0.546  13.804 -1.3654  0.3117 -0.9253
19655TIP3   OH280455   1.206   5.405  11.758 -0.5633  0.0337 -0.1561
19655TIP3    H180456   1.154   5.477  11.723 -0.0251  1.2366  1.4078
19655TIP3    H280457   1.147   5.329  11.754 -1.8453  0.9820 -0.0153
19656TIP3   OH280458   3.115   0.818   4.636 -0.1169  0.0789  0.3002
19656TIP3    H180459   3.047   0.861   4.688  1.1756  1.3230  1.0264
19656TIP3    H280460   3.129   0.734   4.681 -1.6627 -0.5567 -0.3104
19657TIP3   OH280461   6.202   6.697  16.133 -0.1011 -0.5782 -0.0322
19657TIP3    H180462   6.112   6.669  16.117  1.0110 -4.9135 -0.0133
19657TIP3    H280463   6.236   6.720  16.046 -0.5665 -1.3395 -0.4220
19658TIP3   OH280464   5.071   0.349  14.305 -0.0082 -0.3290  0.0805
19658TIP3    H180465   5.048   0.277  14.246  1.1188 -1.5285  1.0659
19658TIP3    H280466   5.163   0.336  14.324 -0.3711 -0.0850  2.2297
19659TIP3   OH280467   5.907   4.733   0.239  0.3925 -0.1796 -0.6773
19659TIP3    H180468   5.997   4.762   0.249  0.6063 -0.6228 -1.2431
19659TIP3    H280469   5.913   4.638   0.233 -0.4406 -0.5878  2.9552
19660TIP3   OH280470   5.125   5.385  13.792 -0.1084 -0.0539  0.0761
19660TIP3    H180471   5.066   5.369  13.718  0.7320  0.0655 -0.6452
19660TIP3    H280472   5.204   5.334  13.771  0.0642 -0.1954  1.0046
19661TIP3   OH280473   2.726   6.841   4.967 -0.3124 -0.2852 -0.5829
19661TIP3    H180474   2.787   6.797   5.025 -0.7341  0.5814  0.5617
19661TIP3    H280475   2.664   6.885   5.026 -1.3659 -0.2240 -1.6984
19662TIP3   OH280476   3.288   4.149   4.676 -0.4600  0.0435  0.1107
19662TIP3    H180477   3.270   4.242   4.668 -0.1208  0.3005  1.9294
19662TIP3    H280478   3.381   4.144   4.697 -0.2308 -0.7959 -0.9729
19663TIP3   OH280479   4.993   2.249  11.027  0.1366 -0.1493 -0.3353
19663TIP3    H180480   5.029   2.179  11.081  1.4167 -1.0393 -2.2350
19663TIP3    H280481   5.029   2.233  10.939 -0.7439  2.0175 -1.1643
19664TIP3   OH280482   0.725   3.181  14.318  0.8351  0.2662  0.3956
19664TIP3    H180483   0.784   3.126  14.268  0.7917 -0.4353  1.1093
19664TIP3    H280484   0.640   3.138  14.311  1.2239 -1.0622  2.8336
19665TIP3   OH280485   5.150   5.477   3.871 -0.9257 -0.0004  0.6716
19665TIP3    H180486   5.160   5.567   3.901  1.7430  0.3538 -0.9949
19665TIP3    H280487   5.194   5.475   3.786  0.4758 -3.2380  1.3334
19666TIP3   OH280488   1.227   2.750   3.521  0.0022  0.4111 -0.1602
19666TIP3    H180489   1.146   2.753   3.572  0.7465 -0.2390  1.1227
19666TIP3    H280490   1.285   2.693   3.572  0.7154 -0.4725 -1.8713
19667TIP3   OH280491   1.137   5.071  12.325  0.9982 -0.5341 -0.4318
19667TIP3    H180492   1.044   5.051  12.320  0.1486  2.4043  1.3083
19667TIP3    H280493   1.162   5.047  12.414  1.6465 -0.3854 -0.5676
19668TIP3   OH280494   0.183   1.950  15.718 -0.6276 -0.0576 -0.3793
19668TIP3    H180495   0.182   1.864  15.761 -1.0746  1.3131  2.6008
19668TIP3    H280496   0.091   1.968  15.699 -0.6496  0.1777 -0.0607
19669TIP3   OH280497   1.980   0.862  11.709  0.1512 -0.0548  0.3255
19669TIP3    H180498   2.049   0.886  11.648 -1.1628 -0.2220 -1.2841
19669TIP3    H280499   1.905   0.917  11.684 -0.7347 -0.8509  1.1332
19670TIP3   OH280500   3.717   3.734  15.281 -0.0822 -0.1718 -0.1843
19670TIP3    H180501   3.797   3.713  15.329 -0.2102 -0.4677 -0.1027
19670TIP3    H280502   3.734   3.821  15.244  0.4826 -0.4541 -0.6034
19671TIP3   OH280503   0.124   2.912  13.674  0.0499  0.4492 -0.2705
19671TIP3    H180504   0.216   2.916  13.701 -0.6035 -0.0676  2.3826
19671TIP3    H280505   0.116   2.827  13.631  0.4620 -0.4445  1.2974
19672TIP3   OH280506   3.267   5.035  13.385 -0.2976 -0.2878 -0.0905
19672TIP3    H180507   3.231   5.074  13.305 -1.2937 -0.2133  0.3714
19672TIP3    H280508   3.255   4.941  13.374 -1.0805 -0.2417  0.2432
19673TIP3   OH280509   4.166   5.774  14.662  0.3104 -0.1684  0.0126
19673TIP3    H180510   4.111   5.700  14.686 -0.6532  0.5119 -0.0515
19673TIP3    H280511   4.246   5.734  14.627 -0.9180 -1.2094 -1.7693
19674TIP3   OH280512   1.255   2.826  15.767  0.0509  0.1612 -0.1903
19674TIP3    H180513   1.221   2.891  15.828  1.1043  1.2521 -0.7268
19674TIP3    H280514   1.310   2.769  15.821  2.2759  2.0713 -0.2986
19675TIP3   OH280515   1.155   5.042   0.074  0.7867 -0.2272  0.0403
19675TIP3    H180516   1.091   5.113   0.086 -0.3169 -1.4645  1.9338
19675TIP3    H280517   1.237   5.078   0.108  0.5242  0.5425 -0.1220
19676TIP3   OH280518   2.368   5.670   0.866 -0.5356 -0.6224  0.2064
19676TIP3    H180519   2.326   5.711   0.942  0.2367 -0.1541  0.4047
19676TIP3    H280520   2.388   5.581   0.894 -4.8397 -2.2528 -1.1894
19677TIP3   OH280521   5.352   1.870  11.937  0.0590  0.0067  0.1067
19677TIP3    H180522   5.411   1.869  11.862  1.2622 -0.9125  1.0238
19677TIP3    H280523   5.384   1.941  11.992  0.3210 -0.4928  0.6070
19678TIP3   OH280524   6.616   3.651  16.676 -0.0758 -0.0724 -0.8079
19678TIP3    H180525   6.532   3.629  16.717 -0.1700 -0.0197 -0.9727
19678TIP3    H280526   6.659   3.708  16.740  0.6478 -1.5847  0.1152
19679TIP3   OH280527   5.237   4.213   5.098 -0.2186  0.1100  0.3580
19679TIP3    H180528   5.291   4.146   5.056  0.2015  0.0602  0.9684
19679TIP3    H280529   5.231   4.185   5.190 -2.2712 -0.5429  0.0831
19680TIP3   OH280530   2.510   3.283  13.759 -0.5056 -0.2148 -0.4245
19680TIP3    H180531   2.556   3.225  13.819  0.7093 -0.1836 -1.2925
19680TIP3    H280532   2.495   3.363  13.809  0.1672 -0.3157 -0.0564
19681TIP3   OH280533   0.174   0.859  13.566 -0.3109 -0.0451 -0.1649
19681TIP3    H180534   0.205   0.947  13.542 -1.3229  0.3569 -0.0504
19681TIP3    H280535   0.113   0.836  13.496  0.7979 -1.1582 -0.8059
19682TIP3   OH280536   6.414   5.282   2.134  0.2094 -0.7521  0.0202
19682TIP3    H180537   6.503   5.317   2.130  0.4478 -1.4365 -2.5394
19682TIP3    H280538   6.426   5.187   2.143 -0.3585 -0.6934  1.9745
19683TIP3   OH280539   3.977   3.886   2.752  0.0124  0.1481  0.3643
19683TIP3    H180540   4.022   3.818   2.803  0.4664  0.9544  1.0640
19683TIP3    H280541   3.912   3.838   2.701  0.3672 -0.8227  0.7926
19684TIP3   OH280542   1.984   1.775  13.070  0.3712  0.2057  0.1140
19684TIP3    H180543   1.932   1.853  13.087 -0.8379 -0.4396 -0.4707
19684TIP3    H280544   1.936   1.704  13.114  0.9493 -0.3511 -0.1353
19685TIP3   OH280545   0.210   5.701  14.458  0.1791  0.2257 -0.1085
19685TIP3    H180546   0.157   5.744  14.392  1.1165  1.0059 -0.3794
19685TIP3    H280547   0.284   5.761  14.473  1.9388 -1.5909 -1.0440
19686TIP3   OH280548   5.907   3.819  16.762  0.1066 -0.3716 -0.7518
19686TIP3    H180549   5.873   3.795  16.676  0.8700  1.0749 -1.4829
19686TIP3    H280550   5.982   3.875  16.744  0.0264  0.3119  0.8620
19687TIP3   OH280551   2.494   5.592   3.360  0.0156  0.1983 -0.2335
19687TIP3    H180552   2.515   5.652   3.432  0.1926  0.8384 -0.8049
19687TIP3    H280553   2.578   5.574   3.318 -0.1292  0.1212 -0.4971
19688TIP3   OH280554   1.159   2.831  11.670 -0.0150 -0.4402  0.2448
19688TIP3    H180555   1.066   2.833  11.693  0.1928  0.5600  1.0713
19688TIP3    H280556   1.175   2.741  11.641 -0.8176 -1.1525  1.8772
19689TIP3   OH280557   3.006   0.734  13.859 -0.1552  0.2903  0.0687
19689TIP3    H180558   2.941   0.674  13.896  0.0378 -0.5702 -0.9093
19689TIP3    H280559   3.088   0.684  13.861  0.6060  1.5300  1.7114
19690TIP3   OH280560   6.512   4.574  13.487  1.3914 -0.4568  0.0992
19690TIP3    H180561   6.570   4.570  13.411  1.7198 -1.1968  0.3732
19690TIP3    H280562   6.479   4.484  13.496 -0.2382  0.0497 -0.3859
19691TIP3   OH280563   1.611   1.299  15.962 -0.3731 -0.3204  0.0184
19691TIP3    H180564   1.552   1.246  15.909 -1.4436  0.1081  0.7444
19691TIP3    H280565   1.659   1.236  16.015 -1.9839 -0.5872  1.2380
19692TIP3   OH280566   3.882   3.011   3.086 -0.9556  0.5621  0.1139
19692TIP3    H180567   3.860   3.017   2.993 -0.2937 -0.1075 -0.0970
19692TIP3    H280568   3.862   3.098   3.121 -0.2685  1.1394 -0.8678
19693TIP3   OH280569   2.256   4.517  12.839  0.3740 -0.7597 -0.5163
19693TIP3    H180570   2.264   4.431  12.797 -0.3387 -1.3861  0.5638
19693TIP3    H280571   2.180   4.557  12.798  1.6682  0.0855 -2.1955
19694TIP3   OH280572   5.068   5.004   5.477 -0.1828  0.4692 -0.1157
19694TIP3    H180573   5.040   5.008   5.386 -0.6853  1.0288  0.0592
19694TIP3    H280574   5.024   4.926   5.513  1.7578 -1.0812 -0.9100
19695TIP3   OH280575   6.234   6.404  17.158  0.3458 -0.0444  0.0621
19695TIP3    H180576   6.216   6.398  17.064  0.5965 -0.7058  0.0456
19695TIP3    H280577   6.313   6.457  17.164 -0.0888  0.6295 -0.0419
19696TIP3   OH280578   5.965   5.132  15.592 -0.2838 -0.1773  0.4357
19696TIP3    H180579   5.990   5.188  15.666  0.4936  0.4468 -0.2806
19696TIP3    H280580   5.996   5.179  15.515 -0.6952 -1.0290 -0.2632
19697TIP3   OH280581   5.509   6.776  15.626  0.0625  0.5497 -0.0251
19697TIP3    H180582   5.604   6.778  15.612  0.1916  1.7520  0.8312
19697TIP3    H280583   5.486   6.683  15.627  1.1657  0.2538 -0.6160
19698TIP3   OH280584   2.129   0.598   0.943 -0.0358 -0.2400 -0.1430
19698TIP3    H180585   2.142   0.685   0.906  1.3411  0.0919  1.0506
19698TIP3    H280586   2.072   0.554   0.880  2.7014  0.0211 -3.0647
19699TIP3   OH280587   1.909   6.026  15.969 -0.1517 -0.2189 -0.1741
19699TIP3    H180588   1.965   5.974  15.912 -1.1114 -0.1773 -1.1832
19699TIP3    H280589   1.822   6.021  15.930 -0.4538  1.4338  0.1758
19700TIP3   OH280590   6.431   1.861  11.003  0.0139 -0.2805  0.4978
19700TIP3    H180591   6.458   1.943  10.962  0.7973 -0.0805  1.3742
19700TIP3    H280592   6.422   1.800  10.931 -1.0571  0.6955 -0.2216
19701TIP3   OH280593   3.647   0.336   1.768 -0.1668  0.8361  0.2979
19701TIP3    H180594   3.648   0.403   1.699 -0.6153  1.2555  0.6910
19701TIP3    H280595   3.570   0.282   1.747  1.5953 -1.1751 -1.5089
19702TIP3   OH280596   1.937   3.506   3.845 -0.1409 -0.0653 -0.6355
19702TIP3    H180597   1.951   3.532   3.936  0.5381 -2.2582 -0.0517
19702TIP3    H280598   2.014   3.539   3.799 -0.4962  1.0712 -0.4412
19703TIP3   OH280599   4.854   4.100  14.149 -0.1024  0.7716 -0.5859
19703TIP3    H180600   4.852   4.121  14.056 -0.1376  1.0531 -0.5214
19703TIP3    H280601   4.762   4.100  14.176 -0.1134  0.4141 -0.6113
19704TIP3   OH280602   2.076   3.023   2.902  0.1688  0.3102 -0.4773
19704TIP3    H180603   1.981   3.007   2.903  0.2887 -0.4168  0.1339
19704TIP3    H280604   2.114   2.939   2.878  0.8023 -0.3378  2.4152
19705TIP3   OH280605   0.379   5.234  16.268 -0.4985 -0.5215 -0.1650
19705TIP3    H180606   0.428   5.154  16.249  1.2755  0.2048  1.0717
19705TIP3    H280607   0.446   5.301  16.281 -1.8017  0.5061  1.7174
19706TIP3   OH280608   0.927   0.959  14.284  0.0482  0.1814  0.0554
19706TIP3    H180609   0.927   0.889  14.349  1.3948  0.1063  0.0049
19706TIP3    H280610   0.981   0.925  14.212 -2.6265 -0.3674 -1.8444
19707TIP3   OH280611   1.373   0.439  12.871  0.0150 -0.1304 -0.1248
19707TIP3    H180612   1.385   0.385  12.949  0.5874 -1.1739 -0.9130
19707TIP3    H280613   1.402   0.526  12.898  1.0345 -0.6662  0.5905
19708TIP3   OH280614   4.446   3.959  12.811 -0.2459  0.6396  0.0121
19708TIP3    H180615   4.466   3.876  12.854 -0.9865  0.1484 -0.5540
19708TIP3    H280616   4.371   3.938  12.754 -0.7879  1.8226  0.2743
19709TIP3   OH280617   4.827   3.870  11.048  0.3154 -0.0799  0.8340
19709TIP3    H180618   4.922   3.871  11.041  0.3875 -0.7760  1.5008
19709TIP3    H280619   4.795   3.866  10.958  0.8119  3.3308  0.3653
19710TIP3   OH280620   4.079   3.569   1.019  0.3033  0.4734  0.6181
19710TIP3    H180621   4.014   3.640   1.023 -0.4003 -0.1985  1.6207
19710TIP3    H280622   4.161   3.610   1.046  0.1086  1.1176  0.2524
19711TIP3   OH280623   3.135   0.247  11.630  0.1876  0.1510  0.4021
19711TIP3    H180624   3.153   0.158  11.601  0.0006  0.0975  0.4465
19711TIP3    H280625   3.051   0.269  11.589  0.6496  0.6239 -0.3151
19712TIP3   OH280626   5.599   6.771  16.302  0.6530 -0.0893 -0.2843
19712TIP3    H180627   5.509   6.784  16.334  0.7878 -1.5686  0.8051
19712TIP3    H280628   5.587   6.729  16.216  0.3113  1.2897 -0.9373
19713TIP3   OH280629   0.512   5.357   5.581  0.0955  0.4387 -0.0297
19713TIP3    H180630   0.475   5.433   5.535  0.2625  1.0188  0.7799
19713TIP3    H280631   0.517   5.385   5.672  2.4211  0.3329 -0.0715
19714TIP3   OH280632   5.012   6.469  13.886  0.2876 -0.1820 -0.4864
19714TIP3    H180633   5.048   6.382  13.901  0.3273 -0.0502  0.2273
19714TIP3    H280634   5.012   6.479  13.791 -1.8990 -1.8870 -0.7483
19715TIP3   OH280635   1.078   6.643   2.853  0.2932  0.0816 -0.4669
19715TIP3    H180636   1.091   6.737   2.838  2.1954 -0.3974 -2.5299
19715TIP3    H280637   0.994   6.624   2.812 -1.1693  1.1663  1.8333
19716TIP3   OH280638   5.555   4.570   1.616  0.2885 -0.6480 -0.2403
19716TIP3    H180639   5.520   4.607   1.696  1.5732 -1.1432  0.5891
19716TIP3    H280640   5.479   4.536   1.569 -0.7204  1.4610 -0.2266
19717TIP3   OH280641   5.886   0.451   5.458 -0.3077 -0.7223  0.3621
19717TIP3    H180642   5.956   0.457   5.393 -0.2019  2.3535  0.6234
19717TIP3    H280643   5.809   0.423   5.407 -0.1759  1.3549 -1.1196
19718TIP3   OH280644   0.824   6.133   6.159  0.3932  0.2120  0.3172
19718TIP3    H180645   0.739   6.112   6.198  0.1181 -0.6118 -0.6547
19718TIP3    H280646   0.888   6.115   6.228 -0.1324 -0.4094  0.6495
19719TIP3   OH280647   1.498   0.719  13.296  0.1819 -0.2279 -0.1485
19719TIP3    H180648   1.545   0.765  13.227 -0.0361 -1.4805 -1.1787
19719TIP3    H280649   1.468   0.788  13.355 -1.4148  1.1454 -2.3807
19720TIP3   OH280650   6.061   5.213   3.007  0.1425 -0.0325  0.0005
19720TIP3    H180651   6.053   5.125   3.046  1.4152 -0.3020 -0.3122
19720TIP3    H280652   5.972   5.248   3.010 -0.6300 -1.7734 -0.8990
19721TIP3   OH280653   5.601   5.616   1.654 -0.5632  0.2955  0.0095
19721TIP3    H180654   5.587   5.710   1.659  0.4366  0.7122 -2.9848
19721TIP3    H280655   5.539   5.586   1.588  0.0254 -0.9030 -0.0328
19722TIP3   OH280656   3.473   4.453   1.465  0.0928  0.7098  0.1485
19722TIP3    H180657   3.459   4.358   1.476 -1.3537  0.8432 -0.3058
19722TIP3    H280658   3.559   4.460   1.424 -0.5420 -0.5181 -1.4947
19723TIP3   OH280659   3.033   5.695  14.601  0.5923  0.1532 -0.1186
19723TIP3    H180660   3.082   5.710  14.520 -0.1404  0.6439 -0.4790
19723TIP3    H280661   2.990   5.610  14.587 -1.3207  1.2199 -1.1963
19724TIP3   OH280662   2.220   4.019   0.545 -0.1727  0.9711 -0.2260
19724TIP3    H180663   2.243   4.060   0.462  1.9194  3.0380  1.2639
19724TIP3    H280664   2.229   4.089   0.610 -0.2206 -0.9300  1.9522
19725TIP3   OH280665   1.474   2.245   3.201 -0.3667 -0.9293 -0.2500
19725TIP3    H180666   1.545   2.234   3.138 -1.1175 -2.7363 -0.8533
19725TIP3    H280667   1.428   2.323   3.172  2.0401  1.0679  0.9033
19726TIP3   OH280668   3.421   2.749  15.925  0.6577  0.3852  0.3341
19726TIP3    H180669   3.342   2.725  15.973  1.7545 -1.5053  1.3152
19726TIP3    H280670   3.441   2.672  15.872  1.8322  0.8327  0.0962
19727TIP3   OH280671   0.290   4.587   4.203  0.4162 -0.0779 -0.1288
19727TIP3    H180672   0.324   4.510   4.158 -0.8567 -0.1943 -0.9395
19727TIP3    H280673   0.223   4.553   4.263  0.1599  0.3444 -0.1653
19728TIP3   OH280674   5.868   5.617   1.631  0.3248  0.0910  0.5004
19728TIP3    H180675   5.792   5.661   1.667  0.5344  0.1533  0.8714
19728TIP3    H280676   5.867   5.530   1.672  1.1643  0.5307  1.5011
19729TIP3   OH280677   4.771   3.767  15.218  0.1561  0.1342  0.9555
19729TIP3    H180678   4.746   3.811  15.137 -2.8293 -1.1676  1.0380
19729TIP3    H280679   4.850   3.719  15.196 -0.0721  0.5380 -0.9120
19730TIP3   OH280680   4.728   6.079   6.088 -0.6637  0.0050  0.3217
19730TIP3    H180681   4.748   6.004   6.145 -1.0715 -2.5706 -2.6101
19730TIP3    H280682   4.814   6.109   6.057 -0.5628 -1.6475 -1.1727
19731TIP3   OH280683   5.265   5.719   4.009 -0.3074 -0.0581 -0.2432
19731TIP3    H180684   5.319   5.792   4.038 -1.2460  1.9575 -3.0711
19731TIP3    H280685   5.205   5.703   4.082  2.8877 -1.3476  2.3515
19732TIP3   OH280686   2.312   2.922  14.060  0.5135  0.4253 -0.3329
19732TIP3    H180687   2.347   2.933  14.148  0.1833 -1.4561  0.0739
19732TIP3    H280688   2.244   2.855  14.069  1.7146 -1.1820 -2.2788
19733TIP3   OH280689   0.751   1.596  12.552  1.1889 -0.1597  0.2959
19733TIP3    H180690   0.749   1.685  12.516  1.3073 -1.1082 -2.2664
19733TIP3    H280691   0.659   1.570  12.555  1.1511  0.0434  1.0871
19734TIP3   OH280692   6.713   2.576   1.696  0.6849 -0.6654 -0.2628
19734TIP3    H180693   6.732   2.670   1.687 -0.4013 -0.4904 -0.9089
19734TIP3    H280694   6.618   2.572   1.707  0.8331 -1.6384  0.8112
19735TIP3   OH280695   6.038   2.249  14.666 -0.0541  0.2750  0.3607
19735TIP3    H180696   6.132   2.230  14.662  0.3467  2.1555 -0.3186
19735TIP3    H280697   6.014   2.269  14.575 -1.0457  0.0862  0.5747
19736TIP3   OH280698   3.886   1.311  15.235 -0.3491 -0.4483  0.3457
19736TIP3    H180699   3.941   1.300  15.313  0.3428 -1.3569 -0.2501
19736TIP3    H280700   3.949   1.332  15.165 -0.7039 -1.8406 -0.4198
19737TIP3   OH280701   5.796   2.259   6.115  0.0020 -0.1694 -0.2891
19737TIP3    H180702   5.788   2.353   6.102 -0.1888 -0.1239  0.1643
19737TIP3    H280703   5.712   2.232   6.153 -0.1331 -0.6018 -0.8659
19738TIP3   OH280704   0.644   1.291  10.301  0.2613 -0.1011  0.6108
19738TIP3    H180705   0.716   1.324  10.353  0.2021 -1.2852  1.4976
19738TIP3    H280706   0.661   1.323  10.212  2.0417 -0.6070  0.7384
19739TIP3   OH280707   5.775   2.087   0.092 -0.1795 -0.0508 -0.0567
19739TIP3    H180708   5.771   2.182   0.083 -0.2260 -0.0097  0.3574
19739TIP3    H280709   5.868   2.067   0.089 -0.1467  0.0510  0.2492
19740TIP3   OH280710   5.664   6.705   5.156 -0.6875  0.3671 -0.0968
19740TIP3    H180711   5.656   6.697   5.061 -0.0036  0.6705 -0.1862
19740TIP3    H280712   5.759   6.710   5.172 -0.8502  2.4138  0.4183
19741TIP3   OH280713   6.160   1.693   0.549  0.4009 -0.0174  0.0940
19741TIP3    H180714   6.172   1.764   0.486 -0.4513 -0.8360 -1.0475
19741TIP3    H280715   6.213   1.621   0.514  1.2391  0.0394  1.2197
19742TIP3   OH280716   1.561   5.457   1.714 -0.1671 -0.2063 -0.5569
19742TIP3    H180717   1.516   5.511   1.778  1.5418 -0.1194  0.6438
19742TIP3    H280718   1.652   5.488   1.717  0.8382 -2.9639  0.0017
19743TIP3   OH280719   1.868   2.056   3.059 -0.4091 -0.2164  0.3835
19743TIP3    H180720   1.950   2.062   3.011 -0.8258 -0.4253 -0.3632
19743TIP3    H280721   1.850   2.146   3.087  0.2914 -0.2398  0.9345
19744TIP3   OH280722   0.440   2.918  13.755 -0.3187 -0.0619 -0.1388
19744TIP3    H180723   0.512   2.938  13.695 -1.2220  1.6833 -0.7020
19744TIP3    H280724   0.394   3.001  13.766 -0.9714 -0.6330  1.9492
19745TIP3   OH280725   3.698   4.616  16.405 -0.1883  0.0069 -0.0260
19745TIP3    H180726   3.787   4.647  16.385  1.1245 -1.0074  3.3794
19745TIP3    H280727   3.666   4.678  16.471 -1.0296 -0.9778  0.5141
19746TIP3   OH280728   1.361   6.130   3.688 -0.6059  0.7829  0.3169
19746TIP3    H180729   1.357   6.129   3.783 -2.3570  1.2379  0.2892
19746TIP3    H280730   1.344   6.222   3.664  2.7233  1.3534 -0.4158
19747TIP3   OH280731   3.689   4.492   0.685  0.2037 -0.2537  0.1453
19747TIP3    H180732   3.726   4.539   0.610 -1.2482 -0.1632 -0.5518
19747TIP3    H280733   3.630   4.427   0.646  1.3677 -1.9757  1.1318
19748TIP3   OH280734   4.642   3.141  11.936  0.6217  0.1451  0.1072
19748TIP3    H180735   4.717   3.159  11.879 -0.3351  0.2492 -1.1450
19748TIP3    H280736   4.567   3.178  11.891 -0.3290 -0.7032  0.9324
19749TIP3   OH280737   5.624   3.229   5.381  0.1036  0.1061 -0.1817
19749TIP3    H180738   5.537   3.267   5.380 -0.1928 -0.5634 -1.2100
19749TIP3    H280739   5.661   3.251   5.295  0.4272 -0.7569 -0.2736
19750TIP3   OH280740   0.943   1.942   3.153 -0.1707 -0.1340  0.1929
19750TIP3    H180741   0.916   1.989   3.074 -0.0273 -4.2173 -2.5951
19750TIP3    H280742   1.038   1.955   3.156 -0.3720  1.3731  0.7190
19751TIP3   OH280743   4.376   1.401   3.893  0.3447  0.1887 -0.4210
19751TIP3    H180744   4.414   1.392   3.805 -1.5387  0.9199 -1.3562
19751TIP3    H280745   4.418   1.332   3.944 -0.2598 -1.8705 -2.5195
19752TIP3   OH280746   5.757   4.076  15.251 -0.3402 -0.0176 -0.3213
19752TIP3    H180747   5.830   4.014  15.255 -0.9528 -0.8300 -1.4099
19752TIP3    H280748   5.790   4.154  15.296  1.5937  0.0090 -1.6562
19753TIP3   OH280749   4.480   0.055  16.466 -0.4591 -0.3845  0.4287
19753TIP3    H180750   4.470   0.091  16.555  1.6696  1.4973  0.0036
19753TIP3    H280751   4.562   0.006  16.469  0.6469  1.2511 -0.8771
19754TIP3   OH280752   5.074   3.099  14.842 -0.0527  0.1680  0.2369
19754TIP3    H180753   5.141   3.088  14.909  0.2810  1.2632  0.1163
19754TIP3    H280754   5.124   3.116  14.762 -0.4633  0.0527 -0.0458
19755TIP3   OH280755   0.286   0.385  15.372  0.2193  0.3636 -0.4047
19755TIP3    H180756   0.208   0.354  15.325  1.2603 -0.7198 -1.4697
19755TIP3    H280757   0.262   0.378  15.464 -0.9752  0.1233 -0.7171
19756TIP3   OH280758   4.035   4.979  14.794 -0.1521 -0.3527  0.2506
19756TIP3    H180759   4.062   4.990  14.703  1.0357  0.3048  0.6667
19756TIP3    H280760   4.078   4.899  14.822 -0.7884 -0.7372  0.1475
19757TIP3   OH280761   0.476   2.857  15.912  0.3677 -0.0238 -0.5730
19757TIP3    H180762   0.550   2.864  15.853 -0.3974  0.5898 -1.4846
19757TIP3    H280763   0.400   2.849  15.855 -0.4353  1.0219  0.2985
19758TIP3   OH280764   1.237   6.579   4.431  0.3197 -0.1950  0.1130
19758TIP3    H180765   1.255   6.663   4.388  0.7937 -0.2717  0.1460
19758TIP3    H280766   1.164   6.597   4.489  0.3846  0.1873  0.0822
19759TIP3   OH280767   4.810   5.202  12.965  0.4217 -0.0333 -0.4116
19759TIP3    H180768   4.768   5.284  12.991  0.1244 -0.2602 -0.1733
19759TIP3    H280769   4.904   5.222  12.967  0.3357  0.4446 -0.8484
19760TIP3   OH280770   6.787   3.878   0.887  0.0112  0.2307  0.0490
19760TIP3    H180771   6.820   3.968   0.888  0.7756 -0.0216  2.5989
19760TIP3    H280772   6.854   3.827   0.932 -1.8767 -1.0420  1.5991
19761TIP3   OH280773   1.869   3.337   0.019  0.1228 -0.0297  0.1160
19761TIP3    H180774   1.942   3.374   0.069  1.5165  0.0779 -1.9085
19761TIP3    H280775   1.910   3.292  -0.055 -1.7636 -1.8031  0.0392
19762TIP3   OH280776   3.638   3.257  14.411 -0.7233  0.8077 -0.4531
19762TIP3    H180777   3.629   3.264  14.316 -0.4268 -0.5983 -0.6173
19762TIP3    H280778   3.559   3.212  14.440 -0.6602  0.9299 -0.0828
19763TIP3   OH280779   4.981   3.091   3.194  0.4690 -0.2121 -0.3533
19763TIP3    H180780   4.939   3.118   3.113  0.7006 -0.3669 -0.5250
19763TIP3    H280781   4.966   2.997   3.198  1.3213 -0.3660 -0.7187
19764TIP3   OH280782   6.290   5.015   4.082 -0.7449 -0.0902  0.0783
19764TIP3    H180783   6.274   4.924   4.106  1.3867 -0.3656  0.6686
19764TIP3    H280784   6.342   5.050   4.155 -0.0209  1.0724 -0.9609
19765TIP3   OH280785   4.171   1.596   2.822 -0.2644 -0.1469  0.3318
19765TIP3    H180786   4.137   1.594   2.912  0.0912 -0.6394  0.4606
19765TIP3    H280787   4.259   1.633   2.830 -0.8238  1.3129 -0.0265
19766TIP3   OH280788   3.537   5.977  16.854 -0.2933 -0.0001  0.1159
19766TIP3    H180789   3.520   5.966  16.948 -0.3495  0.7800  0.2067
19766TIP3    H280790   3.607   6.043  16.850  0.3464 -0.6857 -0.3682
19767TIP3   OH280791   2.603   2.889   2.131  0.6150 -0.4772 -0.2633
19767TIP3    H180792   2.631   2.799   2.111  0.3150 -0.8974  1.0780
19767TIP3    H280793   2.620   2.898   2.225 -0.8403  0.3376 -0.0629
19768TIP3   OH280794   5.706   5.061  14.155 -0.2281  0.0980  0.0976
19768TIP3    H180795   5.727   5.019  14.072 -0.4390 -0.3106  0.2493
19768TIP3    H280796   5.626   5.017  14.186  0.6975 -0.8371  1.2643
19769TIP3   OH280797   3.509   0.026  11.427  0.2653 -0.3526  0.2406
19769TIP3    H180798   3.561   0.010  11.505  0.5099  1.3702  0.4802
19769TIP3    H280799   3.551   0.101  11.385 -2.4247  1.6706  0.8822
19770TIP3   OH280800   3.261   5.798  14.075 -0.4881  0.5571 -0.2832
19770TIP3    H180801   3.231   5.769  14.161  1.5206 -1.4296 -0.1539
19770TIP3    H280802   3.345   5.754  14.063 -0.3365  1.3920 -2.9461
19771TIP3   OH280803   4.025   6.586   0.277 -0.3006  0.8164 -0.0130
19771TIP3    H180804   4.061   6.548   0.357 -0.4500  0.0106 -0.3267
19771TIP3    H280805   3.941   6.543   0.265 -0.8472  1.8219  0.0558
19772TIP3   OH280806   2.074   4.932  14.023 -0.3095  0.0628 -0.0568
19772TIP3    H180807   2.092   4.940  14.116  1.4425  0.2183 -0.3747
19772TIP3    H280808   2.109   4.846  13.998 -1.0449 -0.1126 -0.5062
19773TIP3   OH280809   0.749   2.525   1.762  0.3016 -0.0892 -0.6631
19773TIP3    H180810   0.689   2.463   1.719 -1.0516  0.8693 -0.2169
19773TIP3    H280811   0.751   2.601   1.703 -0.1488  0.5058  0.0702
19774TIP3   OH280812   6.340   2.487  11.542 -0.1753  0.4885 -0.1889
19774TIP3    H180813   6.433   2.503  11.531 -0.1291  0.8250  0.6099
19774TIP3    H280814   6.315   2.433  11.467  1.0781 -1.3545  0.6662
19775TIP3   OH280815   6.569   1.960  15.366  0.3098  0.2551  0.1992
19775TIP3    H180816   6.606   2.041  15.401  0.4490 -0.4268  1.6860
19775TIP3    H280817   6.645   1.903  15.352  0.0234 -0.4518  1.4160
19776TIP3   OH280818   5.316   6.638  16.611  0.3983 -0.3169  0.2230
19776TIP3    H180819   5.326   6.652  16.705 -0.0266  1.7651  0.0121
19776TIP3    H280820   5.394   6.590  16.585  0.2912 -1.3532  1.7034
19777TIP3   OH280821   5.795   1.604   3.972 -0.0721 -0.4335  0.1341
19777TIP3    H180822   5.848   1.531   3.941  0.6815 -0.6893  1.8701
19777TIP3    H280823   5.822   1.679   3.918  0.2517 -1.1060 -0.6493
19778TIP3   OH280824   3.598   6.640  13.230 -0.5328  0.0467 -0.2012
19778TIP3    H180825   3.517   6.602  13.263 -0.3341  0.2942  0.5892
19778TIP3    H280826   3.577   6.669  13.141 -1.7405  1.4225  0.4906
19779TIP3   OH280827   4.611   4.694  15.053  0.2051 -0.2472 -0.2463
19779TIP3    H180828   4.608   4.786  15.081 -0.3484 -0.8495  1.8514
19779TIP3    H280829   4.679   4.655  15.107 -0.3480 -1.3130 -0.2978
19780TIP3   OH280830   0.685   3.477  14.065  0.8482  0.2812  0.0878
19780TIP3    H180831   0.760   3.492  14.122  0.3427  0.6337  0.6795
19780TIP3    H280832   0.613   3.523  14.109  0.4318  0.4891 -0.7937
19781TIP3   OH280833   2.754   5.439   4.004 -0.7583  0.0217  0.0809
19781TIP3    H180834   2.769   5.482   4.088 -1.7148  2.4054 -0.8522
19781TIP3    H280835   2.840   5.406   3.978 -0.5194 -1.0423  2.0936
19782TIP3   OH280836   6.687   0.892   5.676 -0.0645 -0.0426  0.0808
19782TIP3    H180837   6.716   0.970   5.629  0.3399  0.6788  1.4582
19782TIP3    H280838   6.690   0.918   5.769 -0.8658 -1.3857  0.5099
19783TIP3   OH280839   6.129   5.449  13.423  0.3111  1.2220 -0.1817
19783TIP3    H180840   6.224   5.444  13.425  0.2790  0.2086  2.2529
19783TIP3    H280841   6.102   5.383  13.359  1.2224  1.1192 -0.4652
19784TIP3   OH280842   0.572   1.420  14.808 -0.1537 -0.0714  0.5387
19784TIP3    H180843   0.580   1.374  14.892 -1.0520 -1.8445 -0.2892
19784TIP3    H280844   0.655   1.468  14.799 -0.8463  1.9401  3.3885
19785TIP3   OH280845   1.370   2.124   5.787 -0.2186  0.3167  0.1948
19785TIP3    H180846   1.377   2.140   5.881 -0.4023 -0.7290  0.3948
19785TIP3    H280847   1.276   2.111   5.772 -0.2403  0.9052 -0.2128
19786TIP3   OH280848   5.568   5.316  14.918 -0.6263 -0.3500  0.3976
19786TIP3    H180849   5.500   5.278  14.973 -0.7453 -0.8573 -0.0941
19786TIP3    H280850   5.648   5.308  14.969 -0.4045 -2.4339 -0.1926
19787TIP3   OH280851   1.845   6.643  16.356  0.0724  0.0342 -0.0941
19787TIP3    H180852   1.839   6.653  16.261  2.5051 -2.3105 -0.6116
19787TIP3    H280853   1.925   6.691  16.380 -0.4233  0.4553  0.7691
19788TIP3   OH280854   6.103   4.676   5.870  0.0519 -0.1971  0.5578
19788TIP3    H180855   6.057   4.683   5.954 -1.5092 -1.5208 -0.1371
19788TIP3    H280856   6.161   4.600   5.882  1.6521  1.0539  1.1962
19789TIP3   OH280857   2.605   1.221  13.571 -0.7588 -0.4720 -0.6638
19789TIP3    H180858   2.665   1.232  13.497 -1.7458 -0.1412 -1.4316
19789TIP3    H280859   2.621   1.297  13.627 -0.6701 -0.2342 -1.0141
19790TIP3   OH280860   0.369   3.358   5.334  0.1863 -0.1797 -0.4635
19790TIP3    H180861   0.296   3.339   5.276 -1.0491  1.1428  0.5831
19790TIP3    H280862   0.411   3.273   5.349 -1.4527 -1.0609 -0.6742
19791TIP3   OH280863   3.569   0.657   1.354  0.0483 -0.7814  0.1309
19791TIP3    H180864   3.527   0.661   1.269  0.7960 -0.1127 -0.2211
19791TIP3    H280865   3.502   0.685   1.416 -0.5002 -1.2928 -0.2302
19792TIP3   OH280866   1.552   0.200   3.956  0.4964  0.2782 -0.5958
19792TIP3    H180867   1.611   0.143   3.908  2.4898  0.9000  0.9911
19792TIP3    H280868   1.600   0.282   3.966  0.0223  0.3373  1.9725
19793TIP3   OH280869   3.984   2.147  15.698 -0.1495 -0.3852 -0.1411
19793TIP3    H180870   3.932   2.072  15.725  1.0564 -1.5146 -0.8612
19793TIP3    H280871   4.021   2.122  15.613 -0.7337  1.5251 -1.0160
19794TIP3   OH280872   1.842   4.530   2.337 -0.3555  0.2477 -0.0394
19794TIP3    H180873   1.779   4.475   2.289 -0.8884  0.9954 -0.2180
19794TIP3    H280874   1.857   4.484   2.419 -1.7940  0.4597  0.3680
19795TIP3   OH280875   0.068   6.439  15.162 -0.1263 -0.5915  0.1069
19795TIP3    H180876  -0.017   6.476  15.185 -0.3545  0.0947 -1.6351
19795TIP3    H280877   0.118   6.514  15.128 -0.3371 -1.6244 -2.8094
19796TIP3   OH280878   6.482   0.738  15.218  0.1683 -0.1034 -0.5027
19796TIP3    H180879   6.531   0.814  15.186  0.2722 -0.2322 -0.6557
19796TIP3    H280880   6.402   0.736  15.166  0.1128 -0.0335 -0.4198
19797TIP3   OH280881   5.381   2.634   0.421 -1.1052 -0.2482 -0.0097
19797TIP3    H180882   5.359   2.726   0.428 -0.4401 -0.1755  1.5863
19797TIP3    H280883   5.332   2.603   0.345 -1.2409  1.4297 -0.6481
19798TIP3   OH280884   6.038   5.049   2.149 -0.2244  0.2465 -0.5464
19798TIP3    H180885   6.092   4.970   2.145 -0.1169  0.2924 -0.0135
19798TIP3    H280886   5.985   5.039   2.227  0.2421  0.9851 -0.1150
19799TIP3   OH280887   1.423   3.276   5.665  0.4926  0.3125  0.1719
19799TIP3    H180888   1.479   3.301   5.738  0.8149 -0.1142  0.0754
19799TIP3    H280889   1.382   3.358   5.637  0.8671  0.5860  0.4114
19800TIP3   OH280890   4.719   3.467   0.744 -0.7155 -0.1278  0.1189
19800TIP3    H180891   4.734   3.489   0.836  0.0223  1.9325 -0.4259
19800TIP3    H280892   4.722   3.551   0.699 -2.6267 -0.8994 -1.6200
19801TIP3   OH280893   2.292   5.495  13.007  0.0883 -0.4028  0.5828
19801TIP3    H180894   2.301   5.581  13.047 -2.1810 -0.4029  1.2443
19801TIP3    H280895   2.275   5.512  12.914 -1.2494 -0.0395  0.8663
19802TIP3   OH280896   4.717   6.286  12.661 -0.2673 -0.1494  0.3727
19802TIP3    H180897   4.749   6.376  12.664 -1.5994  0.4792 -1.9006
19802TIP3    H280898   4.796   6.232  12.669  0.5686  1.2009  1.5894
19803TIP3   OH280899   5.012   5.526  12.784  0.0462  0.3413  0.5699
19803TIP3    H180900   4.956   5.599  12.760 -1.9458 -1.6881 -1.4294
19803TIP3    H280901   5.070   5.514  12.708 -0.4279 -0.8287  0.3749
19804TIP3   OH280902   3.449   2.456  14.032  0.1820  0.6703 -0.1880
19804TIP3    H180903   3.523   2.397  14.019 -0.3592 -0.2449  0.7451
19804TIP3    H280904   3.489   2.543  14.041  1.0446  0.3426 -0.7713
19805TIP3   OH280905   4.368   6.347  13.559  0.8097 -0.0450 -0.3591
19805TIP3    H180906   4.398   6.283  13.494  1.2985 -1.6001  1.3172
19805TIP3    H280907   4.427   6.421  13.548  1.1888 -0.4766 -1.3549
19806TIP3   OH280908   3.810   3.170   3.579  0.1082  0.5893 -0.3917
19806TIP3    H180909   3.738   3.107   3.581 -0.0689  0.7914  1.3260
19806TIP3    H280910   3.863   3.144   3.504 -0.7338 -0.7263 -0.5591
19807TIP3   OH280911   2.299   3.111  12.286 -0.9661 -0.2101 -0.0352
19807TIP3    H180912   2.341   3.033  12.322 -1.6715 -0.3497  0.5047
19807TIP3    H280913   2.361   3.144  12.222 -0.0651 -0.4605  0.6821
19808TIP3   OH280914   3.245   1.247   3.975 -0.3644  0.0807 -0.1675
19808TIP3    H180915   3.232   1.338   3.947 -3.1072 -0.0890  0.2819
19808TIP3    H280916   3.216   1.245   4.066 -0.6522 -1.2978 -0.2660
19809TIP3   OH280917   1.198   1.873   2.236 -0.0882  0.2842 -0.3925
19809TIP3    H180918   1.248   1.903   2.161 -1.0833  0.4615 -1.0016
19809TIP3    H280919   1.213   1.779   2.239  0.6143  0.3919 -0.3046
19810TIP3   OH280920   6.033   1.004   1.093  0.0155 -0.2103  0.4251
19810TIP3    H180921   5.954   1.047   1.062  0.0241 -0.6210 -0.1822
19810TIP3    H280922   6.081   1.072   1.139  1.0145  1.0335 -2.2655
19811TIP3   OH280923   6.210   0.351   1.675 -0.0565 -0.1238  0.0210
19811TIP3    H180924   6.148   0.370   1.745  0.1790 -0.2021  0.2558
19811TIP3    H280925   6.291   0.328   1.721  0.4415  0.9718 -0.2770
19812TIP3   OH280926   2.024   4.088  13.681 -0.1375  0.2390 -0.2353
19812TIP3    H180927   1.981   4.005  13.659  1.0282 -0.1469 -1.1746
19812TIP3    H280928   2.112   4.063  13.710  0.1295  1.1242 -0.2389
19813TIP3   OH280929   3.633   3.296  14.133 -0.2426  0.4234 -0.3057
19813TIP3    H180930   3.645   3.201  14.134  2.0069  0.6283  1.8906
19813TIP3    H280931   3.721   3.331  14.118 -0.5667  2.1529  1.3566
19814TIP3   OH280932   4.101   6.673   1.634  0.1185  0.0050 -0.3793
19814TIP3    H180933   4.087   6.716   1.549  0.2635  1.9411  0.5322
19814TIP3    H280934   4.197   6.670   1.643  0.0941  0.5009  0.0487
19815TIP3   OH280935   3.769   0.871  12.132 -0.0054  0.5242 -0.6468
19815TIP3    H180936   3.714   0.912  12.199 -1.0712 -1.1099 -0.4550
19815TIP3    H280937   3.718   0.795  12.102  2.1142 -1.0580 -0.5035
19816TIP3   OH280938   0.037   0.361  11.683  0.0166 -0.2139  0.2125
19816TIP3    H180939   0.117   0.311  11.666  0.1682  0.2662 -0.5533
19816TIP3    H280940  -0.017   0.345  11.606 -0.9879 -1.2125  1.1057
19817TIP3   OH280941   1.057   6.319  16.201  0.3338 -0.2964  0.7710
19817TIP3    H180942   1.096   6.300  16.286  0.9300 -2.1665  0.1178
19817TIP3    H280943   1.124   6.294  16.137 -1.3133 -2.2143 -0.3243
19818TIP3   OH280944   0.620   3.253   0.232 -0.2523 -0.1433  0.2771
19818TIP3    H180945   0.622   3.325   0.169  0.6492 -0.6772 -0.3363
19818TIP3    H280946   0.604   3.295   0.316  0.3573  0.7816 -0.0536
19819TIP3   OH280947   1.812   4.855  15.087  0.5401  0.4773  0.0321
19819TIP3    H180948   1.738   4.812  15.043  1.3701 -0.1589 -0.8042
19819TIP3    H280949   1.802   4.831  15.179  0.3820 -0.6313 -0.2590
19820TIP3   OH280950   6.398   1.343  10.512 -0.2128  0.2061  0.9400
19820TIP3    H180951   6.410   1.249  10.507  3.6234  0.6025 -1.4896
19820TIP3    H280952   6.437   1.368  10.596  0.4746 -0.2210  0.7509
19821TIP3   OH280953   0.197   1.657   5.150  0.1228 -0.2978  0.7592
19821TIP3    H180954   0.217   1.727   5.212 -1.5786  0.3230  0.6593
19821TIP3    H280955   0.107   1.631   5.172  0.3450 -1.7094  0.0868
19822TIP3   OH280956   2.817   3.406  14.113 -0.2104 -0.2329  0.1396
19822TIP3    H180957   2.874   3.400  14.037 -1.1273  0.5605 -0.6337
19822TIP3    H280958   2.737   3.361  14.086 -0.7221  0.4758  0.4657
19823TIP3   OH280959   1.303   3.950   3.865  0.3330 -0.6047  0.2718
19823TIP3    H180960   1.284   3.935   3.772 -0.6575  1.1746  0.1591
19823TIP3    H280961   1.225   3.992   3.900  0.0808 -2.5630  2.3105
19824TIP3   OH280962   6.480   6.157   1.561  0.4307  0.0442  0.1978
19824TIP3    H180963   6.489   6.168   1.655 -0.1084  2.7008  0.0186
19824TIP3    H280964   6.385   6.154   1.546  0.5095 -0.3435 -0.2781
19825TIP3   OH280965   3.469   0.839   3.233  0.0103 -0.7375  0.4719
19825TIP3    H180966   3.404   0.892   3.187 -0.3962 -0.0282  1.8067
19825TIP3    H280967   3.540   0.828   3.170  0.0592  1.3326  0.1139
19826TIP3   OH280968   2.645   4.365   2.516 -0.1152 -0.0552 -0.2537
19826TIP3    H180969   2.553   4.348   2.538 -0.2602 -1.6271 -1.8321
19826TIP3    H280970   2.694   4.297   2.561  0.1880  0.3036 -0.0440
19827TIP3   OH280971   2.974   5.502   6.044 -0.0479  0.1512 -0.9254
19827TIP3    H180972   2.894   5.554   6.039 -0.9672 -0.9478  1.1368
19827TIP3    H280973   2.959   5.428   5.984 -0.6845 -0.1588 -0.3950
19828TIP3   OH280974   3.412   4.223   2.474 -0.4771  0.7391  0.2719
19828TIP3    H180975   3.331   4.179   2.500 -0.1945 -0.7120 -1.0958
19828TIP3    H280976   3.394   4.256   2.386  0.7235 -0.5905 -0.5147
19829TIP3   OH280977   0.428   0.779   4.043 -0.1307  0.1377 -0.2749
19829TIP3    H180978   0.498   0.755   4.104 -2.0350  1.0999  2.4498
19829TIP3    H280979   0.368   0.704   4.043 -1.0114  0.8228  0.4224
19830TIP3   OH280980   2.946   2.524  13.450  0.0711 -0.0247 -0.0652
19830TIP3    H180981   3.031   2.490  13.423  0.3377 -1.0701  1.8663
19830TIP3    H280982   2.894   2.528  13.370  2.4889  2.5474 -1.6808
19831TIP3   OH280983   4.160   4.607   4.698 -0.0492 -0.1210  0.2238
19831TIP3    H180984   4.069   4.600   4.671  0.3757 -1.4884 -0.9761
19831TIP3    H280985   4.209   4.615   4.615  0.8753  1.3953  0.8718
19832TIP3   OH280986   2.942   6.646   5.019  0.3686  0.1001 -0.0426
19832TIP3    H180987   2.970   6.568   4.971  0.6613  0.9797 -1.3574
19832TIP3    H280988   2.939   6.618   5.110  1.4046 -1.1900 -0.3676
19833TIP3   OH280989   2.019   1.798   1.876 -0.2401 -0.1512 -0.4978
19833TIP3    H180990   1.996   1.732   1.941  1.1643  1.3860  1.6822
19833TIP3    H280991   2.037   1.747   1.796 -1.6379 -2.1381  0.3656
19834TIP3   OH280992   5.057   0.895  13.499 -0.1865 -0.3222  0.3205
19834TIP3    H180993   5.007   0.895  13.581  1.1168 -2.5542  1.1915
19834TIP3    H280994   5.003   0.843  13.439 -1.4467  1.8275 -0.5457
19835TIP3   OH280995   0.446   5.869   0.023  0.0987  0.4372 -0.2791
19835TIP3    H180996   0.378   5.804   0.039  0.4658  0.0929 -0.1068
19835TIP3    H280997   0.443   5.884  -0.071  0.2784 -0.1279 -0.3782
19836TIP3   OH280998   5.907   3.248  13.270  0.1203  0.1983 -0.4846
19836TIP3    H180999   5.859   3.291  13.341  0.4856  0.4038 -0.3599
19836TIP3    H281000   5.976   3.199  13.315  0.4636  0.4729 -0.7152
19837TIP3   OH281001   3.206   6.432   2.072 -0.2051 -0.1244  0.2708
19837TIP3    H181002   3.191   6.457   1.981 -1.7269  1.4371  0.9033
19837TIP3    H281003   3.281   6.484   2.099 -1.7128  1.8951  0.7883
19838TIP3   OH281004   2.181   1.014  16.165  0.3042  0.2216 -0.0501
19838TIP3    H181005   2.203   0.963  16.087 -2.1079  1.0923 -1.4306
19838TIP3    H281006   2.158   0.948  16.231  1.0767 -0.5113 -0.4972
19839TIP3   OH281007   1.961   6.295  14.737 -0.1342 -0.5077 -0.1447
19839TIP3    H181008   2.011   6.289  14.819  0.0680  2.0852 -0.0084
19839TIP3    H281009   2.016   6.250  14.672  0.6454 -0.8280  0.7179
19840TIP3   OH281010   5.748   3.199  16.902  0.6874 -0.5143  0.6424
19840TIP3    H181011   5.760   3.202  16.997  0.4141 -1.1386  0.7023
19840TIP3    H281012   5.812   3.135  16.872  3.4717  2.3688 -0.0766
19841TIP3   OH281013   3.111   0.552   3.280 -0.2890 -0.9333  0.4797
19841TIP3    H181014   3.027   0.557   3.327  0.2545 -0.3831  1.4080
19841TIP3    H281015   3.090   0.584   3.192 -0.5678  1.6801  1.4015
19842TIP3   OH281016   5.026   1.596   3.060 -0.4941  0.3513  0.5352
19842TIP3    H181017   5.018   1.506   3.091  0.4574  0.0329 -0.1000
19842TIP3    H281018   4.946   1.639   3.090 -0.4700 -0.4236  1.7672
19843TIP3   OH281019   3.726   3.304   5.153  0.7319 -0.3312 -0.0301
19843TIP3    H181020   3.691   3.353   5.228 -0.2218 -0.0527 -0.6283
19843TIP3    H281021   3.759   3.371   5.094  1.0139 -0.5188 -0.0869
19844TIP3   OH281022   3.363   5.556  15.187 -0.0499 -0.1910  0.2104
19844TIP3    H181023   3.317   5.477  15.216 -2.4933  1.2152  0.4055
19844TIP3    H281024   3.302   5.628  15.204  1.1714  1.5145 -2.0377
19845TIP3   OH281025   0.171   2.355   3.588  0.2888  0.3435  0.3252
19845TIP3    H181026   0.106   2.325   3.524  2.6111 -1.3880 -1.3991
19845TIP3    H281027   0.168   2.290   3.658  1.6121 -1.0906 -0.8543
19846TIP3   OH281028   0.994   6.362  13.981 -0.4163  0.6717  1.0644
19846TIP3    H181029   1.087   6.353  13.961 -0.3512 -2.2985  2.2498
19846TIP3    H281030   0.952   6.375  13.896  1.1464  4.4169  0.6549
19847TIP3   OH281031   6.260   3.330   2.614  0.5464 -0.0639  0.2172
19847TIP3    H181032   6.240   3.371   2.530  0.6627  1.0554  0.7149
19847TIP3    H281033   6.186   3.272   2.631 -0.8588  1.7634  0.6133
19848TIP3   OH281034   3.360   5.194  11.969  0.0288 -0.6470 -0.0092
19848TIP3    H181035   3.366   5.259  12.040 -1.5841 -1.6471  1.1013
19848TIP3    H281036   3.443   5.203  11.923 -0.3015  2.5593 -0.2509
19849TIP3   OH281037   0.392   2.900   5.841 -0.0324  0.5092 -0.0870
19849TIP3    H181038   0.444   2.979   5.827 -1.8785  1.2115 -4.6644
19849TIP3    H281039   0.456   2.829   5.845  1.4642  1.8119 -0.1804
19850TIP3   OH281040   3.873   4.314   0.804  0.1991  0.6392 -0.2813
19850TIP3    H181041   3.822   4.390   0.775 -2.1607 -0.3870  0.8675
19850TIP3    H281042   3.892   4.332   0.896 -0.8795 -0.3512  0.1628
19851TIP3   OH281043   0.701   4.473   0.343 -0.4966 -0.0185 -0.3311
19851TIP3    H181044   0.782   4.469   0.394 -0.5520 -0.3970 -0.2703
19851TIP3    H281045   0.632   4.463   0.408 -0.5725 -0.3284 -0.4597
19852TIP3   OH281046   0.692   3.862   0.715 -0.0725 -0.0952  0.6350
19852TIP3    H181047   0.626   3.794   0.728 -0.9396 -0.0576 -2.5895
19852TIP3    H281048   0.647   3.929   0.663  1.8025  1.2001  0.5605
19853TIP3   OH281049   5.061   5.095   5.922  0.2315  0.3652 -0.0410
19853TIP3    H181050   5.149   5.057   5.923 -0.8016 -2.2235 -0.3091
19853TIP3    H281051   5.046   5.118   5.830  0.7620  1.2275  0.0770
19854TIP3   OH281052   5.746   2.785   0.176 -0.2482 -0.5501 -0.7116
19854TIP3    H181053   5.697   2.705   0.157 -1.1298  0.0328 -0.9605
19854TIP3    H281054   5.688   2.836   0.232  0.9787 -0.7961  0.8548
19855TIP3   OH281055   4.274   4.392   4.229 -0.7008  0.4251 -0.1441
19855TIP3    H181056   4.201   4.330   4.237 -0.0100 -0.5295 -1.0241
19855TIP3    H281057   4.332   4.353   4.163 -0.2968  2.0697 -0.8017
19856TIP3   OH281058   4.108   2.163   2.966  1.0362 -0.1926  0.0199
19856TIP3    H181059   4.140   2.233   3.024 -2.5169  2.1050 -0.4905
19856TIP3    H281060   4.129   2.194   2.878 -0.4774  0.2982 -0.2024
19857TIP3   OH281061   3.425   0.585  15.524 -0.5485 -0.0874  0.2388
19857TIP3    H181062   3.419   0.576  15.429 -0.3667 -0.0809  0.2251
19857TIP3    H281063   3.502   0.641  15.538  1.1026 -2.2573  0.4629
19858TIP3   OH281064   4.874   1.785   4.520  0.4870  0.1032 -0.4272
19858TIP3    H181065   4.800   1.724   4.514  0.6996 -0.0769 -1.3932
19858TIP3    H281066   4.893   1.790   4.613 -0.1829 -0.5347 -0.2453
19859TIP3   OH281067   1.854   2.173  11.647  0.3891 -0.1100  0.0629
19859TIP3    H181068   1.922   2.235  11.618 -1.1956  0.8737 -1.8241
19859TIP3    H281069   1.796   2.226  11.702 -0.7302  0.0028 -1.1917
19860TIP3   OH281070   2.785   0.290   0.262  0.4108 -0.0433  0.5484
19860TIP3    H181071   2.826   0.315   0.345  1.6627  0.7503 -0.2682
19860TIP3    H281072   2.765   0.374   0.219  0.7690 -0.4295 -0.4078
19861TIP3   OH281073   2.690   6.076  12.975 -0.0808  0.3774 -0.0836
19861TIP3    H181074   2.761   6.071  12.912  0.9716  0.8515  1.0222
19861TIP3    H281075   2.701   5.999  13.030 -0.7416  0.1794 -0.2213
19862TIP3   OH281076   5.250   6.108  12.693 -0.5091 -0.3830  0.1839
19862TIP3    H181077   5.258   6.161  12.772  0.8804 -0.6439  0.2433
19862TIP3    H281078   5.313   6.146  12.632  0.8687 -2.1878  0.3920
19863TIP3   OH281079   5.907   3.235   4.042  0.2325  0.5088  0.2687
19863TIP3    H181080   5.829   3.230   4.097  0.2793 -1.4988  0.2266
19863TIP3    H281081   5.910   3.150   3.997  2.0815  0.7818 -0.1976
19864TIP3   OH281082   2.393   4.491  15.226 -0.3591  0.6253 -0.2100
19864TIP3    H181083   2.388   4.410  15.175  0.9534  0.9142 -0.8046
19864TIP3    H281084   2.471   4.536  15.195 -0.1901  1.3889  1.2051
19865TIP3   OH281085   2.548   5.500  16.618  0.0338 -0.2296  0.0613
19865TIP3    H181086   2.639   5.484  16.593 -0.3699 -0.7608 -1.1027
19865TIP3    H281087   2.523   5.422  16.667 -0.2278 -0.7483 -0.8694
19866TIP3   OH281088   4.374   3.884  16.069 -0.0028  0.2777  0.3940
19866TIP3    H181089   4.330   3.836  15.999 -0.0690 -0.8245  1.1572
19866TIP3    H281090   4.374   3.975  16.040 -2.1488  0.2204  0.0356
19867TIP3   OH281091   0.029   2.000  13.923 -0.7582  0.7131  0.0662
19867TIP3    H181092   0.072   1.919  13.949 -0.4510  0.9334  0.2514
19867TIP3    H281093   0.006   2.043  14.006 -2.2193  0.1402 -0.0214
19868TIP3   OH281094   3.418   1.176   6.462  0.9640  0.3682  0.0349
19868TIP3    H181095   3.432   1.248   6.524 -0.2034  0.9453 -0.3528
19868TIP3    H281096   3.383   1.218   6.384  0.8955 -0.5500 -0.4331
19869TIP3   OH281097   0.413   2.984  11.867 -0.1366  0.7954 -0.5340
19869TIP3    H181098   0.479   3.052  11.878 -1.5465  2.5440 -2.2920
19869TIP3    H281099   0.457   2.915  11.816  0.2184  2.2498 -2.3014
19870TIP3   OH281100   4.156   0.826  12.833  0.4749 -0.0672 -0.0131
19870TIP3    H181101   4.241   0.854  12.868 -0.0478  0.4995  0.8475
19870TIP3    H281102   4.177   0.757  12.771  1.8053  1.9097 -1.8983
19871TIP3   OH281103   3.690   0.763   1.988  0.5668 -0.5598 -0.1600
19871TIP3    H181104   3.698   0.669   1.975  1.6107 -0.7987  1.7304
19871TIP3    H281105   3.595   0.779   1.991  0.3748 -1.6282 -0.1131
19872TIP3   OH281106   2.986   1.435  13.785 -0.3105 -0.4600 -0.0277
19872TIP3    H181107   3.033   1.515  13.810 -0.3398 -0.0991 -1.0820
19872TIP3    H281108   3.055   1.368  13.779 -0.4126 -0.7990  1.8692
19873TIP3   OH281109   6.504   3.677  15.457  0.0968 -0.2515  0.6405
19873TIP3    H181110   6.457   3.760  15.450 -3.2015 -2.0116 -0.3785
19873TIP3    H281111   6.477   3.629  15.379  0.8879 -2.7239  1.8085
19874TIP3   OH281112   1.416   5.448   5.475  0.2248 -0.1791  0.2772
19874TIP3    H181113   1.470   5.520   5.444 -0.8042  0.6275  0.3176
19874TIP3    H281114   1.354   5.432   5.404 -1.0738  0.5687  1.1904
19875TIP3   OH281115   5.995   1.446  14.446 -0.0358  0.8231 -0.3058
19875TIP3    H181116   5.945   1.527  14.432  0.3485  0.9218 -1.1545
19875TIP3    H281117   6.079   1.475  14.482  0.5267  0.9085 -1.6416
19876TIP3   OH281118   0.977   1.444   3.765  0.6356 -0.1663 -0.3415
19876TIP3    H181119   0.995   1.467   3.674  0.9439  0.0936 -0.2138
19876TIP3    H281120   1.002   1.521   3.815 -1.2199  0.3906 -0.2006
19877TIP3   OH281121   5.382   5.195  16.233 -0.1717 -0.2434 -0.2918
19877TIP3    H181122   5.465   5.242  16.221  1.1656 -2.5423 -0.5737
19877TIP3    H281123   5.383   5.128  16.165 -2.3556 -0.2559 -0.3632
19878TIP3   OH281124   4.940   2.422  10.213 -0.0190  0.6900 -0.6187
19878TIP3    H181125   4.950   2.351  10.150  0.7409  0.1595  0.0796
19878TIP3    H281126   4.845   2.437  10.218 -0.3821 -1.5870  0.6311
19879TIP3   OH281127   4.059   2.674  12.470  0.0309 -0.1213  0.0274
19879TIP3    H181128   4.094   2.741  12.529  1.3542  2.2064 -3.1516
19879TIP3    H281129   4.135   2.620  12.449 -0.0000  0.2221 -0.9781
19880TIP3   OH281130   0.175   0.650  10.541  0.2633 -0.3214 -0.1215
19880TIP3    H181131   0.180   0.589  10.468  0.8260 -1.4510  0.8107
19880TIP3    H281132   0.143   0.596  10.614 -1.4520  1.0472  0.1913
19881TIP3   OH281133   5.375   0.170  10.510  0.1529 -0.9935 -0.8957
19881TIP3    H181134   5.324   0.155  10.590  0.1613 -0.1518 -0.7254
19881TIP3    H281135   5.354   0.095  10.455  1.0974 -2.2357  0.3705
19882TIP3   OH281136   2.979   1.254  16.334 -0.3667  0.0977  0.2757
19882TIP3    H181137   2.956   1.171  16.292 -0.1627 -0.4527  1.2127
19882TIP3    H281138   3.059   1.282  16.290 -0.1783 -0.4445  0.2590
19883TIP3   OH281139   1.153   5.177   4.508  0.1353  0.2560 -0.4464
19883TIP3    H181140   1.175   5.228   4.430  1.3803 -1.0979 -1.0338
19883TIP3    H281141   1.061   5.153   4.496  0.4212 -0.2925 -1.7478
19884TIP3   OH281142   4.781   0.844   1.776 -0.2389  0.2195 -0.4169
19884TIP3    H181143   4.749   0.817   1.863  1.3196  0.5216  0.2802
19884TIP3    H281144   4.828   0.925   1.792 -0.3290  0.5311 -1.6471
19885TIP3   OH281145   1.396   4.337   3.129  0.0308 -0.1980  0.1769
19885TIP3    H181146   1.450   4.396   3.077  0.5966 -0.4495  0.4588
19885TIP3    H281147   1.437   4.251   3.118 -0.4841 -0.4479  0.1720
19886TIP3   OH281148   1.644   6.839  11.488  0.1180  0.4999  0.0526
19886TIP3    H181149   1.718   6.802  11.534  0.6152 -0.5711 -1.5250
19886TIP3    H281150   1.568   6.789  11.520  0.2894  0.5365  0.5205
19887TIP3   OH281151   0.040   2.303  12.684 -0.2886 -0.3527  0.2759
19887TIP3    H181152   0.041   2.329  12.592 -1.1812 -2.3774 -0.3618
19887TIP3    H281153   0.036   2.207  12.682 -1.0801 -0.4168  2.4225
19888TIP3   OH281154   2.376   1.830  14.589 -0.9618 -0.0163 -0.4810
19888TIP3    H181155   2.328   1.815  14.670 -1.4593  1.4205 -0.4825
19888TIP3    H281156   2.314   1.809  14.519 -0.8717 -0.2363 -0.4980
19889TIP3   OH281157   2.885   5.890  12.792  0.0090  0.0819 -0.4538
19889TIP3    H181158   2.927   5.813  12.754  0.6551  0.0660  0.2841
19889TIP3    H281159   2.792   5.866  12.798  0.1366 -0.4670 -0.6404
19890TIP3   OH281160   2.366   3.139   4.267  0.4759  0.5882 -0.3611
19890TIP3    H181161   2.292   3.078   4.266 -0.5105  1.7274  0.4361
19890TIP3    H281162   2.411   3.120   4.350 -0.8935  2.1179  0.7854
19891TIP3   OH281163   1.813   4.764  11.854 -0.0188  0.2486 -0.0629
19891TIP3    H181164   1.791   4.845  11.902  1.5098  0.7654 -0.1835
19891TIP3    H281165   1.730   4.736  11.816 -0.8536  1.0018  1.1229
19892TIP3   OH281166   4.614   5.317   6.434 -0.6001  0.4626 -0.2171
19892TIP3    H181167   4.668   5.391   6.463 -1.2017  1.5959 -1.8181
19892TIP3    H281168   4.558   5.298   6.510  0.7788  0.4416  0.8434
19893TIP3   OH281169   3.856   0.992   1.987  0.2337 -0.1663 -0.5426
19893TIP3    H181170   3.943   0.954   1.978  0.0316 -0.7783  0.0216
19893TIP3    H281171   3.796   0.918   1.980 -0.4398  0.5316 -3.6026
19894TIP3   OH281172   3.966   2.687  15.337  0.0593  1.1901  0.2279
19894TIP3    H181173   3.927   2.768  15.306 -2.0717  0.1620  0.0292
19894TIP3    H281174   3.899   2.648  15.393 -0.0004 -1.5365 -1.5526
19895TIP3   OH281175   0.098   6.555  11.544  0.1452 -0.2832 -0.0564
19895TIP3    H181176   0.139   6.637  11.572 -2.8697  0.8421  1.6278
19895TIP3    H281177   0.095   6.560  11.449  2.8998 -0.0528 -0.2170
19896TIP3   OH281178   4.635   2.852  11.360  0.1398  0.5135 -0.1460
19896TIP3    H181179   4.629   2.867  11.455  0.5132  0.9536 -0.1899
19896TIP3    H281180   4.658   2.937  11.323 -0.9110  0.5576 -0.7381
19897TIP3   OH281181   4.604   2.542   3.902  0.5184  0.5929 -0.4789
19897TIP3    H181182   4.696   2.525   3.922 -0.3664 -2.9990  1.4811
19897TIP3    H281183   4.585   2.627   3.944  2.1168 -0.3649  2.4666
19898TIP3   OH281184   0.180   0.932   5.054  0.4022 -0.0186 -0.5483
19898TIP3    H181185   0.138   0.855   5.093 -0.5567 -0.2969 -2.0290
19898TIP3    H281186   0.107   0.990   5.032  1.1214  1.3671  0.5942
19899TIP3   OH281187   2.326   4.613  13.561 -0.1881 -0.0143 -0.1108
19899TIP3    H181188   2.319   4.638  13.469  1.5082 -0.6890 -0.4519
19899TIP3    H281189   2.245   4.566  13.579 -2.2782  3.2266 -0.1767
19900TIP3   OH281190   3.256   4.986   3.756  0.1604  0.0464 -0.0955
19900TIP3    H181191   3.350   4.997   3.743  0.1532  0.2252  0.0090
19900TIP3    H281192   3.244   4.891   3.759  0.4426  0.0265  0.6503
19901TIP3   OH281193   1.819   3.103   3.148  0.0170 -0.2526  0.1870
19901TIP3    H181194   1.800   3.192   3.177  0.9436 -0.1625  0.5599
19901TIP3    H281195   1.814   3.107   3.052 -1.3218 -0.1362  0.2529
19902TIP3   OH281196   4.375   6.007   4.755  0.7062 -0.3745 -0.1542
19902TIP3    H181197   4.339   5.979   4.672 -0.5498  2.3838 -0.6418
19902TIP3    H281198   4.433   6.081   4.733 -0.1770  0.8556  1.4053
19903TIP3   OH281199   5.058   0.002  15.267  0.9666 -0.4429  0.6388
19903TIP3    H181200   5.139   0.034  15.307  0.0870  2.1468  0.5271
19903TIP3    H281201   4.992   0.066  15.292 -0.4848 -0.9590 -1.5967
19904TIP3   OH281202   5.377   3.785   4.752 -0.0743  0.2992  0.6215
19904TIP3    H181203   5.291   3.785   4.795 -1.3552 -0.6945 -1.7481
19904TIP3    H281204   5.367   3.845   4.678 -0.6137 -3.6348 -2.8500
19905TIP3   OH281205   0.258   1.302  14.832  0.0051  0.1733  0.0992
19905TIP3    H181206   0.234   1.375  14.889 -0.6785 -0.2928  0.4150
19905TIP3    H281207   0.340   1.330  14.790  2.3396 -0.6973  3.6210
19906TIP3   OH281208   0.298   5.851   4.646 -0.2667  0.5891 -0.0022
19906TIP3    H181209   0.291   5.853   4.551  0.2909 -0.8690 -0.1044
19906TIP3    H281210   0.381   5.895   4.665 -0.5015  1.1120 -0.1527
19907TIP3   OH281211   3.710   2.100  13.732 -0.1560  0.0022 -0.2426
19907TIP3    H181212   3.638   2.146  13.687 -1.5593 -1.0392  0.8495
19907TIP3    H281213   3.688   2.107  13.825  0.1630 -1.9576  0.0070
19908TIP3   OH281214   4.996   4.429   1.077  0.7199 -0.5052 -0.4032
19908TIP3    H181215   4.926   4.401   1.136 -0.2399 -0.9166 -1.6986
19908TIP3    H281216   4.954   4.492   1.018  1.5261 -0.5147 -0.9982
19909TIP3   OH281217   2.430   5.412  16.131 -0.0256 -0.6769 -0.7218
19909TIP3    H181218   2.459   5.323  16.147 -0.3521 -0.3291  2.5096
19909TIP3    H281219   2.338   5.412  16.156 -0.8780 -0.0310 -3.5276
19910TIP3   OH281220   5.036   6.699   3.906 -0.6048 -0.3172 -0.0887
19910TIP3    H181221   5.068   6.767   3.964 -1.9094  0.5424 -0.3242
19910TIP3    H281222   5.004   6.746   3.829  0.6109 -1.3941 -1.2993
19911TIP3   OH281223   4.945   3.623  12.768 -0.4979 -0.5617  0.4225
19911TIP3    H181224   4.879   3.692  12.774  0.2753  0.3316 -0.8561
19911TIP3    H281225   5.026   3.669  12.746  0.4103 -1.7111  1.2412
19912TIP3   OH281226   1.555   2.033   3.446 -0.3631 -0.8664  0.5178
19912TIP3    H181227   1.542   2.037   3.351 -0.8815  0.1540  0.6058
19912TIP3    H281228   1.478   2.079   3.482  1.2323  1.3445  1.3041
19913TIP3   OH281229   6.074   6.602   3.870  0.2165  0.6282  0.1626
19913TIP3    H181230   6.016   6.636   3.802  0.0172  0.3011  0.1701
19913TIP3    H281231   6.061   6.662   3.944 -0.0612  0.5919  0.1428
19914TIP3   OH281232   5.750   6.552  15.158  0.0746  0.1030  0.9170
19914TIP3    H181233   5.804   6.568  15.081 -1.6343  3.1586  0.2198
19914TIP3    H281234   5.665   6.527  15.123 -0.7004  1.4447  1.7852
19915TIP3   OH281235   4.338   6.758  11.935 -0.2653  0.1322 -0.6696
19915TIP3    H181236   4.387   6.686  11.894  1.1138 -0.0296  1.1016
19915TIP3    H281237   4.392   6.835  11.921 -1.1392  0.6212 -1.4858
19916TIP3   OH281238   3.050   2.555  11.931  0.3437 -0.5348 -0.0766
19916TIP3    H181239   3.039   2.650  11.943 -4.1160 -0.8582 -0.0977
19916TIP3    H281240   3.056   2.520  12.020 -0.1212 -0.3943  0.0112
19917TIP3   OH281241   5.859   0.861  11.409 -0.6110 -0.0529 -0.7515
19917TIP3    H181242   5.920   0.826  11.343  0.4162 -1.7568  1.0002
19917TIP3    H281243   5.870   0.956  11.403 -1.6493 -0.0043 -3.9768
19918TIP3   OH281244   5.951   1.885  13.911  0.0517 -0.0640  0.7379
19918TIP3    H181245   5.986   1.836  13.836  0.6762  0.3305  0.7652
19918TIP3    H281246   5.995   1.970  13.906  2.2064 -0.9372  3.1258
19919TIP3   OH281247   1.931   3.865  13.956  0.2097 -0.1601 -0.4165
19919TIP3    H181248   2.024   3.885  13.945 -0.0660  0.4051 -1.9622
19919TIP3    H281249   1.897   3.940  14.005  0.4258 -0.0230 -0.4718
19920TIP3   OH281250   2.553   3.487   4.235  0.6696  0.3151  0.3317
19920TIP3    H181251   2.610   3.418   4.270 -0.9866 -1.9716 -1.1433
19920TIP3    H281252   2.597   3.515   4.154  0.4394 -0.3943 -0.0469
19921TIP3   OH281253   2.975   4.883   4.053 -0.4452 -0.4072 -0.6441
19921TIP3    H181254   2.914   4.957   4.059  0.6537  0.6024 -1.3461
19921TIP3    H281255   3.062   4.924   4.054  0.1758 -1.6314 -1.7196
19922TIP3   OH281256   1.186   1.038  11.135 -0.2910  0.1668 -0.2921
19922TIP3    H181257   1.091   1.034  11.119 -0.1873  2.2987 -1.9304
19922TIP3    H281258   1.224   0.988  11.063 -0.1246 -2.9021  1.7388
19923TIP3   OH281259   3.695   2.801  13.340 -0.0057  0.0985 -0.2924
19923TIP3    H181260   3.705   2.733  13.274 -0.9635  0.0403 -0.3986
19923TIP3    H281261   3.644   2.869  13.296  1.2199  1.0491 -0.2977
19924TIP3   OH281262   2.809   4.331   2.991 -0.1500  0.0892  0.6337
19924TIP3    H181263   2.736   4.392   3.004 -1.7878 -1.6156 -0.0856
19924TIP3    H281264   2.822   4.291   3.077  1.5967  2.0397  1.3679
19925TIP3   OH281265   4.068   3.208   3.975 -0.4426 -0.0064  0.0810
19925TIP3    H181266   4.102   3.182   3.890 -2.0545  1.6946 -1.1797
19925TIP3    H281267   4.136   3.264   4.012  0.5239 -1.2380  0.2037
19926TIP3   OH281268   2.363   0.013  12.159 -0.0477 -0.5268  0.0733
19926TIP3    H181269   2.302  -0.002  12.232 -0.1488  0.2256  0.1459
19926TIP3    H281270   2.423   0.080  12.192 -1.3922  1.4422 -1.2781
19927TIP3   OH281271   2.022   6.425   5.471 -0.2589  0.1950 -0.0504
19927TIP3    H181272   2.084   6.473   5.417 -0.6601 -0.8338 -1.4935
19927TIP3    H281273   2.076   6.368   5.525  0.0984 -0.5366 -1.1416
19928TIP3   OH281274   1.517   6.192   6.166 -0.0560 -0.5223 -0.2612
19928TIP3    H181275   1.429   6.207   6.198  0.4917  2.4650  0.0844
19928TIP3    H281276   1.574   6.215   6.240  1.0861 -2.2880 -0.5089
19929TIP3   OH281277   0.949   3.028  10.620  0.0014 -0.2954  0.1741
19929TIP3    H181278   0.897   3.046  10.699 -0.3368 -0.3120 -0.0397
19929TIP3    H281279   0.994   3.110  10.602  0.7199 -0.5322  0.8465
19930TIP3   OH281280   2.514   5.494   1.331 -0.1794  0.4950 -0.2458
19930TIP3    H181281   2.421   5.480   1.314 -0.7256  1.3588  1.7443
19930TIP3    H281282   2.522   5.589   1.345  0.8228  0.3292  0.4669
19931TIP3   OH281283   0.770   5.425  14.501  0.2263  0.0600  0.1075
19931TIP3    H181284   0.729   5.512  14.494 -1.8435 -0.8280  0.4844
19931TIP3    H281285   0.760   5.387  14.414  0.0164 -0.2478  0.2640
19932TIP3   OH281286   2.391   1.526   2.829 -0.3740 -0.1688  0.2333
19932TIP3    H181287   2.467   1.485   2.871  0.5999  0.9126 -0.4384
19932TIP3    H281288   2.316   1.490   2.877  0.5714 -0.8830  1.2370
19933TIP3   OH281289   4.499   6.120  16.474 -0.2789  0.2681  0.5416
19933TIP3    H181290   4.406   6.129  16.495  0.3955  1.1399  3.7364
19933TIP3    H281291   4.531   6.052  16.535  0.9716 -1.0320 -1.4345
19934TIP3   OH281292   5.294   1.158  11.285 -0.3047  0.0173 -0.4847
19934TIP3    H181293   5.238   1.099  11.336  0.7941 -0.8660 -0.2520
19934TIP3    H281294   5.244   1.175  11.205 -0.6500 -1.2533 -0.5650
19935TIP3   OH281295   3.058   0.947  16.018 -0.0246 -0.4591 -0.2876
19935TIP3    H181296   3.076   1.022  15.961  0.8972  0.4071  1.0746
19935TIP3    H281297   2.969   0.920  15.995 -0.6922  1.5526 -0.2934
19936TIP3   OH281298   2.375   2.943  13.350 -0.1016 -0.1693 -0.2835
19936TIP3    H181299   2.349   2.892  13.273  2.6073 -0.9877 -0.7608
19936TIP3    H281300   2.406   2.878  13.413 -0.7397  0.6160  0.8834
19937TIP3   OH281301   3.428   5.753  14.445  0.1055 -0.0449  0.7623
19937TIP3    H181302   3.453   5.699  14.370 -1.3912  0.2037  0.0421
19937TIP3    H281303   3.491   5.825  14.446  1.0129 -0.8223  0.6320
19938TIP3   OH281304   3.652   5.227  14.223 -0.0616  0.3644 -0.0023
19938TIP3    H181305   3.612   5.146  14.192  0.0542 -0.7120  2.4326
19938TIP3    H281306   3.746   5.214  14.208 -0.0660  0.1295  0.1597
19939TIP3   OH281307   2.306   2.575   3.404  0.2704  0.1302  0.2036
19939TIP3    H181308   2.262   2.499   3.441  0.4346 -0.0180  0.0983
19939TIP3    H281309   2.239   2.642   3.400  0.0630 -0.0850  0.0675
19940TIP3   OH281310   1.147   4.497   2.055  0.3725 -0.0651 -0.1737
19940TIP3    H181311   1.123   4.487   1.963  2.7877  0.3212 -0.9218
19940TIP3    H281312   1.064   4.494   2.103 -0.8198 -1.8370 -2.2004
19941TIP3   OH281313   5.039   1.447  11.184 -0.2107 -0.7419 -0.2226
19941TIP3    H181314   4.989   1.434  11.104 -0.2792 -0.8580 -0.1621
19941TIP3    H281315   5.120   1.489  11.156  0.4281 -2.1395 -0.5530
19942TIP3   OH281316   2.459   5.998  14.433  0.5799 -0.0887 -0.8320
19942TIP3    H181317   2.376   6.005  14.480  0.0056 -2.2854 -1.4149
19942TIP3    H281318   2.464   6.079  14.382 -1.3631 -0.0436 -1.0306
19943TIP3   OH281319   0.190   6.839   2.954 -0.0958 -0.1846 -0.4559
19943TIP3    H181320   0.095   6.845   2.944 -0.1708 -0.3706  0.0982
19943TIP3    H281321   0.223   6.923   2.921 -0.3010 -0.7643 -2.2581
19944TIP3   OH281322   2.488   3.194  14.614  0.0892 -0.8484  0.3152
19944TIP3    H181323   2.427   3.268  14.609  0.4824 -0.5258  0.2746
19944TIP3    H281324   2.514   3.191  14.706  2.9321  1.4191 -0.2511
19945TIP3   OH281325   2.922   2.674  12.493  0.4413 -0.5571 -0.1896
19945TIP3    H181326   2.943   2.658  12.585  0.9854 -1.0697 -0.3969
19945TIP3    H281327   2.829   2.651  12.485  0.2099  0.1511  0.3787
19946TIP3   OH281328   4.060   2.490  15.951  0.3817  0.5275 -0.0925
19946TIP3    H181329   4.059   2.411  16.006  1.4109  0.2788 -0.4080
19946TIP3    H281330   4.056   2.563  16.014 -0.4384  0.2368  0.2067
19947TIP3   OH281331   6.331   2.559  10.634 -0.8854 -0.7180  0.2375
19947TIP3    H181332   6.298   2.562  10.545 -0.8673 -1.3773  0.2035
19947TIP3    H281333   6.255   2.581  10.689 -0.8870 -0.2812  0.0622
19948TIP3   OH281334   1.882   3.701   0.907  0.5444  0.2729  0.8110
19948TIP3    H181335   1.952   3.764   0.888  0.6121  0.3777  1.3714
19948TIP3    H281336   1.814   3.721   0.844  0.9067  0.3591  0.4412
19949TIP3   OH281337   1.413   0.179  17.053  0.1257 -0.0737  0.3161
19949TIP3    H181338   1.496   0.145  17.087  0.9372  1.8091  0.3483
19949TIP3    H281339   1.369   0.103  17.016  2.1325 -1.0406 -0.2261
19950TIP3   OH281340   5.368   2.508   0.038  0.3390  0.2029 -0.0829
19950TIP3    H181341   5.454   2.517   0.078 -0.3895 -1.6184  2.1199
19950TIP3    H281342   5.370   2.422  -0.004  0.0597  0.7789 -1.2960
19951TIP3   OH281343   1.106   3.982   2.509  0.0067  0.0509 -0.5583
19951TIP3    H181344   1.098   3.889   2.530 -2.1437  0.5418  1.1723
19951TIP3    H281345   1.144   4.021   2.588 -2.1496  1.0441  0.0576
19952TIP3   OH281346   5.027   3.001   2.856  0.5292 -0.4554 -0.1773
19952TIP3    H181347   5.031   3.058   2.779  0.6798  1.1598  0.9542
19952TIP3    H281348   4.953   3.034   2.907  1.2856 -0.5412  1.0409
19953TIP3   OH281349   5.085   5.749  16.680  0.2413  0.1222 -0.0525
19953TIP3    H181350   5.161   5.694  16.701  1.4490  2.3034  1.7529
19953TIP3    H281351   5.018   5.724  16.744  0.5969  0.3210  0.4077
19954TIP3   OH281352   6.722   4.941   4.173  0.3433  0.2450 -0.0906
19954TIP3    H181353   6.653   5.006   4.168 -0.0394 -0.1859 -0.5434
19954TIP3    H281354   6.677   4.857   4.158  0.9666 -0.0327 -0.4584
19955TIP3   OH281355   6.824   4.566   0.514 -0.6414 -0.0574  0.2029
19955TIP3    H181356   6.793   4.552   0.604  0.7409 -2.3797  0.3849
19955TIP3    H281357   6.775   4.503   0.461  0.3715 -0.4908 -0.2412
19956TIP3   OH281358   1.070   1.384   3.294  0.1699  0.3004  0.1387
19956TIP3    H181359   1.027   1.366   3.210 -0.6948  1.4485  0.3111
19956TIP3    H281360   1.163   1.392   3.272  0.1166 -0.6291 -0.4999
19957TIP3   OH281361   4.140   0.729  14.900 -0.2013  0.0284 -0.3885
19957TIP3    H181362   4.092   0.746  14.819  1.1101  0.8948 -1.0185
19957TIP3    H281363   4.116   0.639  14.923 -0.5473 -0.2744 -1.8020
19958TIP3   OH281364   3.533   2.128  14.743 -0.6992  0.2250 -0.6739
19958TIP3    H181365   3.525   2.092  14.654  2.1799  0.0255 -0.9551
19958TIP3    H281366   3.478   2.071  14.797 -4.1659  1.5522 -2.5211
19959TIP3   OH281367   1.222   3.504  12.210 -0.3068 -0.1059 -0.2475
19959TIP3    H181368   1.219   3.409  12.225 -3.2200 -0.0535 -0.0302
19959TIP3    H281369   1.252   3.540  12.293 -1.6949 -0.7086  0.5395
19960TIP3   OH281370   2.061   1.262  17.150  0.6186 -0.4995  0.0299
19960TIP3    H181371   2.112   1.311  17.214  0.4190 -1.3834  0.8883
19960TIP3    H281372   2.084   1.170  17.166 -0.2872 -0.8147 -0.4128
19961TIP3   OH281373   3.833   1.195   0.984 -0.1280 -0.3472  0.0925
19961TIP3    H181374   3.741   1.170   0.974 -0.3195  0.4648 -0.2342
19961TIP3    H281375   3.868   1.191   0.896 -0.2179  0.7111 -0.0068
19962TIP3   OH281376   5.519   5.622  11.967 -0.7762  0.1887  0.4946
19962TIP3    H181377   5.549   5.531  11.976 -2.0865 -0.3333 -0.1691
19962TIP3    H281378   5.440   5.626  12.020 -0.8091  0.9157  0.3993
19963TIP3   OH281379   0.224   4.229   0.229 -0.5814  0.0872 -0.1430
19963TIP3    H181380   0.308   4.187   0.244  0.1123  0.5276 -2.4139
19963TIP3    H281381   0.201   4.268   0.314  0.8571 -1.1001  0.8506
19964TIP3   OH281382   3.636   3.439   5.364 -0.1710  0.1649  0.3758
19964TIP3    H181383   3.612   3.460   5.454 -0.8308 -0.5339  0.3796
19964TIP3    H281384   3.664   3.522   5.327 -1.8661  0.9111  0.6376
19965TIP3   OH281385   2.560   0.122  16.538 -0.1297 -0.1116 -0.3634
19965TIP3    H181386   2.655   0.110  16.536 -0.0995  0.1461 -0.6437
19965TIP3    H281387   2.547   0.196  16.597 -0.0405  0.7940 -1.4412
19966TIP3   OH281388   2.785   2.341   2.624  0.2709 -0.4647 -0.1227
19966TIP3    H181389   2.875   2.363   2.652  1.1020 -1.0639 -2.1848
19966TIP3    H281390   2.733   2.351   2.704  1.6038  2.9244  0.5038
19967TIP3   OH281391   5.767   5.775   5.973 -0.5637  0.1125 -0.2855
19967TIP3    H181392   5.696   5.718   5.943 -0.5565  0.0289 -0.1446
19967TIP3    H281393   5.722   5.842   6.025 -0.3792 -0.9652  1.3483
19968TIP3   OH281394   4.897   6.496   2.211  0.1073 -0.5774  0.2431
19968TIP3    H181395   4.854   6.580   2.227 -1.4895 -1.6258  1.9502
19968TIP3    H281396   4.989   6.511   2.234 -0.4093  0.4004  1.8416
19969TIP3   OH281397   2.848   0.997  13.506  0.3716  0.7956  0.4937
19969TIP3    H181398   2.819   1.058  13.438  0.5331  0.2771 -0.0502
19969TIP3    H281399   2.769   0.975  13.554 -0.3128 -1.0596 -1.3335
19970TIP3   OH281400   0.332   1.829  13.122 -0.2043 -0.5612 -0.2544
19970TIP3    H181401   0.308   1.904  13.068  0.1333 -0.3835 -0.1563
19970TIP3    H281402   0.268   1.762  13.098  0.0012 -0.5235 -0.9585
19971TIP3   OH281403   6.335   5.705  15.315  0.4603  0.2459 -0.1202
19971TIP3    H181404   6.248   5.741  15.303 -0.2452 -0.6386  1.9870
19971TIP3    H281405   6.345   5.642  15.243 -0.6974  0.2570 -0.3007
19972TIP3   OH281406   0.797   4.731  13.354  0.1742 -0.4840 -0.0872
19972TIP3    H181407   0.841   4.697  13.276 -0.9931 -1.3571 -0.4016
19972TIP3    H281408   0.730   4.666  13.373  0.6685 -0.4698  1.8795
19973TIP3   OH281409   5.667   4.928  17.062  0.0851  0.1463  0.1294
19973TIP3    H181410   5.724   4.907  17.136  1.2266 -0.5400 -0.9314
19973TIP3    H281411   5.710   4.891  16.986 -0.0663  2.5030 -1.2005
19974TIP3   OH281412   3.488   5.888  11.796 -0.3604  0.1937  0.5122
19974TIP3    H181413   3.577   5.887  11.831 -0.9458 -1.3493  2.0972
19974TIP3    H281414   3.500   5.896  11.701  1.4972 -0.5181  0.6466
19975TIP3   OH281415   3.370   3.007   0.211 -0.6914  0.2521  0.2281
19975TIP3    H181416   3.357   3.093   0.171 -0.4877 -0.2551 -0.9736
19975TIP3    H281417   3.381   2.947   0.137 -1.5666 -0.9413  1.0308
19976TIP3   OH281418   3.156   3.769   1.478 -0.0126 -0.0755 -0.1613
19976TIP3    H181419   3.125   3.852   1.514 -0.2407  0.2177 -1.0110
19976TIP3    H281420   3.243   3.788   1.444 -0.3791  0.0235 -1.0657
19977TIP3   OH281421   5.081   2.013   1.660  0.3195 -0.1121 -0.1075
19977TIP3    H181422   5.010   2.061   1.617  1.4977  1.4765 -0.3741
19977TIP3    H281423   5.088   2.053   1.747 -0.9326 -2.1688  1.0214
19978TIP3   OH281424   2.001   2.670  12.488 -0.3772  0.3810 -0.0410
19978TIP3    H181425   1.946   2.732  12.441 -0.8144  0.2385  0.2721
19978TIP3    H281426   1.939   2.609  12.528  0.0804 -0.7853 -1.0699
19979TIP3   OH281427   3.204   4.188   5.455 -0.5121  0.2245 -0.3990
19979TIP3    H181428   3.275   4.210   5.515 -0.8861  1.1515 -0.2755
19979TIP3    H281429   3.215   4.247   5.381 -1.6508  1.0084  0.0236
19980TIP3   OH281430   6.023   5.128  17.142  0.1945  0.8362  0.0603
19980TIP3    H181431   6.019   5.223  17.155 -2.1718  0.7620  0.2070
19980TIP3    H281432   5.994   5.114  17.052  1.1842  0.2550 -0.1950
19981TIP3   OH281433   4.114   4.867  12.350 -0.3351 -0.2236 -0.0956
19981TIP3    H181434   4.101   4.866  12.255 -0.0897  1.8050 -0.2014
19981TIP3    H281435   4.106   4.960  12.374  0.4543 -0.5879  1.7366
19982TIP3   OH281436   0.478   4.258   0.817 -0.1196  0.1055  0.4665
19982TIP3    H181437   0.474   4.200   0.740 -0.6777 -0.4407  0.8945
19982TIP3    H281438   0.412   4.325   0.800 -1.3227 -0.8770  1.1389
19983TIP3   OH281439   1.080   4.511   2.655  0.0938  0.1892  0.2328
19983TIP3    H181440   1.027   4.435   2.632  0.7730  0.0223 -0.8560
19983TIP3    H281441   1.103   4.551   2.571  0.0946  1.3659  0.7693
19984TIP3   OH281442   0.173   6.349  12.216 -0.3098 -0.2558  0.0116
19984TIP3    H181443   0.220   6.365  12.298  1.6560 -0.5237 -0.9778
19984TIP3    H281444   0.101   6.411  12.217 -0.4348 -0.3768  2.0047
19985TIP3   OH281445   5.299   3.671   0.102  0.0523 -0.5300  0.2124
19985TIP3    H181446   5.343   3.672   0.017  2.3280 -1.0178  1.3110
19985TIP3    H281447   5.264   3.759   0.112  0.6300 -0.1667 -0.7973
19986TIP3   OH281448   0.707   6.140  15.168 -0.0498 -0.3945  0.1797
19986TIP3    H181449   0.719   6.138  15.263  3.4007 -0.7801 -0.1264
19986TIP3    H281450   0.625   6.093  15.153 -1.2238  0.5578  2.9800
19987TIP3   OH281451   2.824   2.111   2.256 -0.4057 -0.3765  0.7637
19987TIP3    H181452   2.897   2.116   2.195  0.0183  0.7265  1.3351
19987TIP3    H281453   2.755   2.164   2.217  0.1147  0.9192  1.5386
19988TIP3   OH281454   5.113   0.282   3.621 -0.4444 -0.0571 -0.1055
19988TIP3    H181455   5.124   0.304   3.528 -0.1290  1.3201  0.2442
19988TIP3    H281456   5.199   0.254   3.650 -0.5649 -0.5836 -0.2403
19989TIP3   OH281457   5.984   4.368   3.359 -0.4540  0.0583  0.6117
19989TIP3    H181458   5.913   4.366   3.294 -0.3565  1.5205  0.4467
19989TIP3    H281459   5.975   4.285   3.406 -1.6720 -0.2070 -0.0534
19990TIP3   OH281460   2.205   5.154   3.867 -0.4651 -0.2958  0.1485
19990TIP3    H181461   2.247   5.237   3.889 -1.3976  0.5804 -1.2394
19990TIP3    H281462   2.127   5.179   3.816 -2.8267 -1.8302  2.7469
19991TIP3   OH281463   5.936   4.053   3.216 -0.0013 -0.2441  0.5956
19991TIP3    H181464   5.975   3.967   3.197 -1.0551 -0.5224 -0.4295
19991TIP3    H281465   5.952   4.066   3.309  0.6224 -1.3293  0.6608
19992TIP3   OH281466   6.045   5.251   6.350  0.4178 -0.2039 -0.2247
19992TIP3    H181467   6.017   5.282   6.437 -0.3726  0.4515 -0.6981
19992TIP3    H281468   5.985   5.180   6.330 -0.0670  0.3131 -0.6580
19993TIP3   OH281469   2.303   1.578  12.314 -0.2572 -0.1084 -0.2607
19993TIP3    H181470   2.306   1.671  12.333  1.3185 -0.0691 -0.5706
19993TIP3    H281471   2.256   1.539  12.388  0.1992  0.7789  0.5014
19994TIP3   OH281472   2.715   6.199  12.160  0.1041  0.2568 -0.3588
19994TIP3    H181473   2.724   6.111  12.197 -1.6489  0.6775  1.2261
19994TIP3    H281474   2.794   6.245  12.189  2.0016 -1.2357 -2.8023
19995TIP3   OH281475   2.506   6.645   5.267 -0.0632  0.1518  0.7648
19995TIP3    H181476   2.572   6.711   5.246  0.0466 -0.0574  0.4385
19995TIP3    H281477   2.427   6.695   5.288 -0.2574  0.3688 -0.4234
19996TIP3   OH281478   5.975   6.549   0.954 -0.1395 -0.0376 -0.1685
19996TIP3    H181479   6.070   6.543   0.960 -0.0776  1.7329  2.0858
19996TIP3    H281480   5.943   6.510   1.035 -1.3843 -0.9469 -1.0630
19997TIP3   OH281481   0.451   1.654   2.864 -0.0376 -0.0989  0.1895
19997TIP3    H181482   0.408   1.600   2.797 -2.6638  1.3690  0.5824
19997TIP3    H281483   0.539   1.669   2.829  0.0966 -2.8085 -0.9205
19998TIP3   OH281484   5.182   0.098  13.318 -0.0975 -0.0773  0.0039
19998TIP3    H181485   5.094   0.062  13.311 -0.0159 -0.5522  1.1864
19998TIP3    H281486   5.204   0.125  13.229 -1.1372 -0.6470 -0.4437
19999TIP3   OH281487   1.332   5.979   0.931  0.6302  0.1208 -0.2012
19999TIP3    H181488   1.312   6.010   1.019  1.4617  0.5672 -0.1585
19999TIP3    H281489   1.311   6.053   0.874  0.0745 -0.1732 -0.3931
20000TIP3   OH281490   1.528   4.196  16.624  0.4610  0.3558 -0.2432
20000TIP3    H181491   1.581   4.119  16.605  0.1564  0.1488 -0.2769
20000TIP3    H281492   1.578   4.245  16.688  0.7220  0.1988 -0.3253
20001TIP3   OH281493   5.701   6.464   4.632 -0.2841 -0.4466  0.0713
20001TIP3    H181494   5.637   6.418   4.577 -1.0238 -0.9677  1.3393
20001TIP3    H281495   5.741   6.396   4.685  0.0519  0.1074  0.5453
20002TIP3   OH281496   2.826   3.660  14.478  0.1439 -0.9014  0.0080
20002TIP3    H181497   2.752   3.622  14.431 -1.4776 -0.2984  1.9161
20002TIP3    H281498   2.868   3.585  14.520 -0.1412 -1.1170 -0.0862
20003TIP3   OH281499   3.383   3.834  16.171  0.0391  0.9550 -0.9477
20003TIP3    H181500   3.458   3.877  16.130  0.6606 -0.7591 -1.6916
20003TIP3    H281501   3.327   3.809  16.098  0.7635 -1.4200 -0.7813
20004TIP3   OH281502   0.110   1.088  14.713  0.6959 -0.4313  0.6689
20004TIP3    H181503   0.104   1.070  14.619  0.9324 -1.6172  0.8698
20004TIP3    H281504   0.146   1.177  14.718 -0.7350  0.2501 -0.3588
20005TIP3   OH281505   1.969   3.830   2.520  0.3279  0.1088  0.1799
20005TIP3    H181506   1.916   3.872   2.587 -1.0442 -1.2282 -0.0069
20005TIP3    H281507   2.036   3.782   2.570  0.9985  1.2834  0.4442
20006TIP3   OH281508   0.263   0.318  15.684  0.1736 -0.4469  0.3822
20006TIP3    H181509   0.183   0.265  15.691  0.4644 -0.9249  0.1358
20006TIP3    H281510   0.323   0.280  15.748  0.3440 -0.3421  0.2847
20007TIP3   OH281511   1.248   6.729  13.032  0.0614  0.5568 -0.2265
20007TIP3    H181512   1.166   6.756  12.991 -0.5943 -1.1045 -0.0721
20007TIP3    H281513   1.310   6.800  13.011 -0.6127  0.4448 -2.9052
20008TIP3   OH281514   0.581   5.548   3.590 -0.1814 -0.3702  0.4921
20008TIP3    H181515   0.526   5.541   3.512 -1.4557  0.5601  1.2771
20008TIP3    H281516   0.651   5.484   3.576 -0.1779  0.0301 -1.5715
20009TIP3   OH281517   5.334   0.513  16.710  0.0596  0.1542  0.0746
20009TIP3    H181518   5.302   0.443  16.654  0.9914  0.2359 -0.5782
20009TIP3    H281519   5.381   0.468  16.780  1.5160  0.1254 -0.8816
20010TIP3   OH281520   1.036   0.511   3.016 -0.0391  0.3030  0.5768
20010TIP3    H181521   1.049   0.586   3.074  0.0268  1.1459 -0.4836
20010TIP3    H281522   1.036   0.549   2.928  2.0805 -1.1780 -0.1562
20011TIP3   OH281523   4.046   5.701   5.398 -0.1502 -0.0774  0.4242
20011TIP3    H181524   3.951   5.702   5.392 -0.1775  0.1150  0.8051
20011TIP3    H281525   4.066   5.768   5.464  0.2921  0.4398 -0.2315
20012TIP3   OH281526   0.153   0.515  14.797  0.0775 -0.2993 -0.2866
20012TIP3    H181527   0.233   0.563  14.775 -0.7406  2.1024  1.5876
20012TIP3    H281528   0.082   0.576  14.775 -0.9487  0.3083  3.8886
20013TIP3   OH281529   4.341   5.216  17.175  0.4206 -0.5578 -0.4103
20013TIP3    H181530   4.333   5.290  17.114  0.7604 -1.4952 -1.6338
20013TIP3    H281531   4.287   5.242  17.250 -0.8306  0.2274 -1.5223
20014TIP3   OH281532   1.364   0.451   1.218 -0.1029 -0.2265  0.0067
20014TIP3    H181533   1.389   0.463   1.310  0.4469  1.5733 -0.3363
20014TIP3    H281534   1.278   0.410   1.222  1.3871 -3.6447  1.2496
20015TIP3   OH281535   5.369   3.862   2.455  0.1929 -0.2440 -0.3340
20015TIP3    H181536   5.281   3.833   2.479 -0.2194  0.7957 -0.5433
20015TIP3    H281537   5.414   3.873   2.539  0.1498 -0.8321 -0.2275
20016TIP3   OH281538   5.527   6.103  12.152  0.2668 -0.1957 -0.3609
20016TIP3    H181539   5.598   6.154  12.190  1.4057  1.0002 -3.6914
20016TIP3    H281540   5.547   6.012  12.174  1.9439  0.2678  0.1426
20017TIP3   OH281541   1.403   1.494  15.273 -0.3858 -0.3185 -0.0730
20017TIP3    H181542   1.388   1.414  15.221 -0.6240  0.1657 -0.7651
20017TIP3    H281543   1.325   1.501  15.329 -0.1484 -0.8202  0.3305
20018TIP3   OH281544   2.863   1.135  12.438  0.3425 -0.2765 -0.0176
20018TIP3    H181545   2.899   1.050  12.465  0.7909  0.0577  0.4486
20018TIP3    H281546   2.779   1.140  12.483  0.1783 -0.5988 -0.2797
20019TIP3   OH281547   5.297   6.500   4.803  0.0316 -0.4129 -0.8333
20019TIP3    H181548   5.291   6.410   4.837 -1.2706  0.2806  0.9141
20019TIP3    H281549   5.386   6.527   4.824 -0.6554 -0.0788  2.0776
20020TIP3   OH281550   6.143   0.971   3.258 -0.3886  0.0388  0.5271
20020TIP3    H181551   6.108   0.935   3.339 -0.0983  1.0367  1.1216
20020TIP3    H281552   6.205   0.905   3.227  0.2238  0.0534  1.6521
20021TIP3   OH281553   4.931   2.617   0.171  0.3694 -0.5066  0.3951
20021TIP3    H181554   4.962   2.534   0.207  0.4416 -0.2350  0.9689
20021TIP3    H281555   4.917   2.599   0.078  0.2897 -1.1861  0.5336
20022TIP3   OH281556   1.758   2.957   5.711 -0.1064 -0.4412 -0.5911
20022TIP3    H181557   1.790   2.888   5.769 -0.9295 -2.1706 -2.0947
20022TIP3    H281558   1.673   2.982   5.748  0.2880 -0.0702  0.0766
20023TIP3   OH281559   0.881   1.191   2.484  0.0603  0.4585 -0.2552
20023TIP3    H181560   0.964   1.206   2.439  1.6598 -2.3968  1.4622
20023TIP3    H281561   0.887   1.246   2.563 -0.1025  0.9498 -0.5819
20024TIP3   OH281562   6.111   4.956   3.094 -0.0626  0.4389 -0.0737
20024TIP3    H181563   6.188   5.002   3.126 -1.7475  2.8329  0.8189
20024TIP3    H281564   6.091   4.892   3.162  0.1319  1.0406  0.5669
20025TIP3   OH281565   2.855   0.801   3.411 -0.1820  0.1976  0.0730
20025TIP3    H181566   2.924   0.815   3.476 -0.2450 -0.5691  0.3083
20025TIP3    H281567   2.840   0.707   3.411 -0.7805  0.2854 -0.4440
20026TIP3   OH281568   6.563   5.938  12.958 -0.3278  0.3750 -0.1764
20026TIP3    H181569   6.596   5.957  12.870  2.8515  0.1694  0.8254
20026TIP3    H281570   6.564   6.023  13.002  0.7982  0.0936  0.3958
20027TIP3   OH281571   0.231   3.809   0.230 -0.1178 -1.1058 -0.3184
20027TIP3    H181572   0.307   3.792   0.176  0.1175 -1.2647  0.0563
20027TIP3    H281573   0.186   3.882   0.188 -0.1938 -1.5280 -0.9831
20028TIP3   OH281574   4.823   2.653  11.478 -0.0545 -0.2894 -0.4502
20028TIP3    H181575   4.907   2.637  11.434  0.9191  4.1774 -0.6812
20028TIP3    H281576   4.762   2.671  11.406 -0.0395  0.8066 -0.2095
20029TIP3   OH281577   5.421   6.415  12.727 -0.1615  0.0893  0.4749
20029TIP3    H181578   5.380   6.407  12.640 -0.8225  2.4344  0.4864
20029TIP3    H281579   5.404   6.506  12.752  1.5557 -0.0437  2.3112
20030TIP3   OH281580   0.670   5.807   0.556  0.2012  0.3260 -0.2907
20030TIP3    H181581   0.683   5.745   0.483 -0.4902 -0.9342  0.6111
20030TIP3    H281582   0.669   5.751   0.634  0.7499  1.6292  0.6814
20031TIP3   OH281583   0.016   2.101  15.080  0.4073 -0.2138 -0.1047
20031TIP3    H181584   0.096   2.081  15.128 -1.4887 -0.8068  3.1933
20031TIP3    H281585  -0.026   2.170  15.133 -2.1828 -1.3659 -0.5048
20032TIP3   OH281586   4.359   3.021  14.887  0.4241  0.1651 -0.5124
20032TIP3    H181587   4.327   3.006  14.798  0.4200  0.9316 -0.6417
20032TIP3    H281588   4.306   3.093  14.921  1.7396  1.2233 -0.6014
20033TIP3   OH281589   1.856   3.565   0.624  0.3505  0.0572  0.0160
20033TIP3    H181590   1.944   3.571   0.662  0.2618 -0.9125  0.3761
20033TIP3    H281591   1.837   3.655   0.595  1.2047  0.4016  0.4890
20034TIP3   OH281592   0.761   3.775  12.996 -0.6869 -0.5170  0.0265
20034TIP3    H181593   0.812   3.707  13.040 -0.7108 -0.9986 -0.6645
20034TIP3    H281594   0.731   3.734  12.915  0.8062  0.8459 -1.3078
20035TIP3   OH281595   6.019   0.853  16.385  0.6878  0.4066 -0.1674
20035TIP3    H181596   6.021   0.828  16.292  2.1378 -0.3374  0.0363
20035TIP3    H281597   5.926   0.857  16.407  0.2915  1.1889 -1.7978
20036TIP3   OH281598   1.351   1.107   5.138  0.8103 -0.6586  0.6292
20036TIP3    H181599   1.316   1.022   5.111  1.5367 -0.4099 -1.2268
20036TIP3    H281600   1.347   1.105   5.234  0.7830 -2.7725  0.6328
20037TIP3   OH281601   1.517   0.497   2.769 -0.0336 -0.0747 -0.6621
20037TIP3    H181602   1.517   0.450   2.686  0.0717 -0.5491 -0.3966
20037TIP3    H281603   1.603   0.480   2.806  0.6229  1.6637 -1.2977
20038TIP3   OH281604   6.092   5.623   0.365  0.1513 -0.0131 -0.2668
20038TIP3    H181605   6.050   5.610   0.450  1.4513 -2.1106  0.1321
20038TIP3    H281606   6.154   5.694   0.379 -0.7149  0.6781  0.1064
20039TIP3   OH281607   2.968   4.100   3.695  0.0238  0.8064  0.6460
20039TIP3    H181608   2.983   4.166   3.627  0.5331  0.7111  0.6630
20039TIP3    H281609   2.961   4.017   3.646  0.4961  0.7231  0.7151
20040TIP3   OH281610   1.355   5.926   5.972 -0.5012 -0.0888  0.1980
20040TIP3    H181611   1.261   5.939   5.988 -0.1083  1.3441  1.6218
20040TIP3    H281612   1.390   5.896   6.055  0.7139  2.0509  0.5459
20041TIP3   OH281613   1.490   5.679   1.926  0.2718 -0.7384 -0.7390
20041TIP3    H181614   1.569   5.732   1.917 -0.3688  0.5688  0.8739
20041TIP3    H281615   1.421   5.730   1.883 -0.1114 -0.8451 -0.2612
20042TIP3   OH281616   6.235   0.765   3.039  0.1353 -0.5119  0.0557
20042TIP3    H181617   6.205   0.675   3.026  1.1989 -0.8659 -0.1045
20042TIP3    H281618   6.278   0.787   2.956 -0.3413  0.2351  0.0074
20043TIP3   OH281619   2.592   2.267   0.516 -0.3427 -0.0905 -0.5756
20043TIP3    H181620   2.598   2.321   0.437 -0.9366  0.7661 -0.0521
20043TIP3    H281621   2.632   2.320   0.585 -0.2595 -0.6301 -0.2066
20044TIP3   OH281622   6.085   5.897   5.783  0.1683 -0.4773 -0.1703
20044TIP3    H181623   6.050   5.941   5.706 -1.0233 -1.3976 -0.1788
20044TIP3    H281624   6.051   5.948   5.857 -0.3559 -0.7498 -0.2132
20045TIP3   OH281625   5.684   6.408  14.112 -0.9734  0.2142 -0.7357
20045TIP3    H181626   5.749   6.476  14.133 -1.6787 -0.0085  2.8523
20045TIP3    H281627   5.731   6.326  14.122 -1.2204  0.0962 -0.5349
20046TIP3   OH281628   0.332   2.523  11.625 -0.3929  0.3412 -0.4557
20046TIP3    H181629   0.334   2.531  11.529 -0.2045 -0.3041 -0.5158
20046TIP3    H281630   0.242   2.544  11.649 -0.5487  0.1087 -0.8210
20047TIP3   OH281631   1.781   5.205  12.281  0.2469  0.4703  0.4535
20047TIP3    H181632   1.772   5.145  12.207  1.0289 -0.1424  0.8356
20047TIP3    H281633   1.694   5.207  12.321  0.3778 -0.9900  0.8632
20048TIP3   OH281634   3.032   1.945   1.787  0.0612 -0.0876 -0.1762
20048TIP3    H181635   3.055   2.023   1.737 -0.3399  1.5865  2.0760
20048TIP3    H281636   2.967   1.900   1.733 -0.3969  1.6477 -1.1640
20049TIP3   OH281637   5.087   3.174   2.314  0.3692 -0.7180 -0.0617
20049TIP3    H181638   5.177   3.206   2.319  1.2630 -3.0668 -0.0239
20049TIP3    H281639   5.066   3.144   2.402  0.3856 -2.2155 -0.5382
20050TIP3   OH281640   3.311   2.126  10.664  0.0059  0.8988 -0.6782
20050TIP3    H181641   3.375   2.061  10.636 -0.2788 -0.1191  0.9323
20050TIP3    H281642   3.340   2.207  10.622  2.6679  0.5795  0.3497
20051TIP3   OH281643   4.324   2.712  17.075 -0.1325  0.2432  0.5053
20051TIP3    H181644   4.270   2.633  17.086 -0.5116  0.3906 -0.2506
20051TIP3    H281645   4.268   2.773  17.027  0.5325  0.5939  0.1673
20052TIP3   OH281646   5.288   5.465  11.812  0.2374 -0.0234 -0.1970
20052TIP3    H181647   5.253   5.480  11.900 -0.0129 -0.9102 -0.1321
20052TIP3    H281648   5.383   5.469  11.823  0.1999  0.2283  0.0441
20053TIP3   OH281649   3.263   6.066   2.522  0.3137 -0.3872 -0.5757
20053TIP3    H181650   3.231   6.107   2.441 -0.3560  0.4981  0.1179
20053TIP3    H281651   3.322   6.131   2.560 -0.5042 -0.1696  0.3709
20054TIP3   OH281652   5.007   1.282   5.079 -0.0726  0.8312 -0.3383
20054TIP3    H181653   4.986   1.297   5.171 -0.4104 -3.2314  0.4269
20054TIP3    H281654   5.103   1.281   5.077  0.1060 -3.1702  1.0485
20055TIP3   OH281655   2.020   5.365   2.832  0.6988  0.1041  0.2743
20055TIP3    H181656   2.035   5.286   2.781 -0.7625  0.8201 -1.3804
20055TIP3    H281657   2.091   5.424   2.807  0.7809 -0.0598  0.1253
20056TIP3   OH281658   5.677   6.828  14.429  0.0855 -0.6773 -0.5548
20056TIP3    H181659   5.658   6.817  14.522  1.4211  3.5632  0.4203
20056TIP3    H281660   5.772   6.840  14.425 -0.3102  3.9020 -1.6103
20057TIP3   OH281661   1.403   2.990  10.916 -0.0966 -0.1228  0.3705
20057TIP3    H181662   1.372   3.080  10.930 -1.5604 -0.3407 -1.1860
20057TIP3    H281663   1.470   2.977  10.983 -0.9570  1.5933  1.6294
20058TIP3   OH281664   0.231   2.305  15.886  0.6835 -0.3146  0.7566
20058TIP3    H181665   0.235   2.334  15.977 -2.6396  1.1124  0.5977
20058TIP3    H281666   0.274   2.375  15.836 -0.8246  0.8194  0.9857
20059TIP3   OH281667   0.229   1.966   5.553  0.1336  0.1695 -0.8132
20059TIP3    H181668   0.267   1.908   5.618 -2.1206 -0.3143  0.1924
20059TIP3    H281669   0.231   2.053   5.593 -1.7067 -0.2063  0.2098
20060TIP3   OH281670   4.942   6.794   2.457  0.6711 -0.2033 -0.1405
20060TIP3    H181671   4.856   6.753   2.473  0.0353  1.2899  0.4273
20060TIP3    H281672   4.928   6.848   2.380  1.4987 -0.9875 -0.8651
20061TIP3   OH281673   2.440   3.921   1.750 -0.9281  0.0696 -0.4853
20061TIP3    H181674   2.405   4.009   1.766 -1.0896  0.0832 -0.9026
20061TIP3    H281675   2.519   3.916   1.804 -0.8019  0.5484 -0.6188
20062TIP3   OH281676   5.325   1.103   3.941  0.2423  0.0066  0.1883
20062TIP3    H181677   5.353   1.087   3.851  2.5852 -1.6828  1.0950
20062TIP3    H281678   5.236   1.069   3.945 -0.0496  0.4905 -1.5686
20063TIP3   OH281679   2.631   5.091   0.546  0.0760 -0.1101  0.3800
20063TIP3    H181680   2.573   5.082   0.470  0.9033 -0.3564 -0.2403
20063TIP3    H281681   2.572   5.100   0.621 -0.7645  1.4308 -0.4243
20064TIP3   OH281682   3.452   1.019   4.283  0.0364  0.1299 -0.5963
20064TIP3    H181683   3.371   0.989   4.324  0.6425  0.0933  0.5925
20064TIP3    H281684   3.512   0.945   4.290  1.1890  1.1694  1.3995
20065TIP3   OH281685   0.549   0.726   2.818  0.5439 -0.4049 -0.5342
20065TIP3    H181686   0.477   0.761   2.765 -1.3393 -2.4177  0.5446
20065TIP3    H281687   0.517   0.730   2.908  1.7783 -1.3606 -0.0187
20066TIP3   OH281688   1.057   3.293   1.814 -0.3469 -0.1194  0.3073
20066TIP3    H181689   1.007   3.374   1.827  1.9079  1.0840  2.1108
20066TIP3    H281690   1.118   3.314   1.744  2.1254  0.8173  2.5929
20067TIP3   OH281691   0.061   5.796   4.057  0.2088 -0.2822  0.1069
20067TIP3    H181692   0.102   5.786   4.143  1.1760  1.5974 -0.1003
20067TIP3    H281693   0.063   5.708   4.019  1.6912 -0.7389  1.1595
20068TIP3   OH281694   2.511   0.811  14.806  0.3160  0.6395 -0.1741
20068TIP3    H181695   2.429   0.861  14.809 -0.2153 -0.2224  0.2400
20068TIP3    H281696   2.482   0.719  14.805  1.2881  0.2741  1.5044
20069TIP3   OH281697   2.906   5.251  12.059 -0.0783  0.8513 -0.3802
20069TIP3    H181698   2.973   5.285  12.000  0.9497  0.1478  0.3603
20069TIP3    H281699   2.837   5.218  12.001  1.0691 -0.1557 -1.1900
20070TIP3   OH281700   5.073   0.247   2.976  0.0257  0.3068  0.3162
20070TIP3    H181701   5.168   0.238   2.990  0.1754  0.5056 -0.4952
20070TIP3    H281702   5.062   0.226   2.883 -0.7634  0.0452  0.4663
20071TIP3   OH281703   1.319   2.270  14.731 -0.4539 -0.4323 -0.2158
20071TIP3    H181704   1.299   2.249  14.639  1.0932 -0.1409 -0.6473
20071TIP3    H281705   1.278   2.355  14.745  1.2083  0.6076 -1.3748
20072TIP3   OH281706   3.648   0.236  14.462  0.4730 -0.2878 -0.5385
20072TIP3    H181707   3.627   0.325  14.437  0.0049 -0.0117  0.7690
20072TIP3    H281708   3.580   0.211  14.525  1.8184 -0.7566  0.7998
20073TIP3   OH281709   3.745   2.726   5.829 -0.2059 -0.0057 -0.4585
20073TIP3    H181710   3.810   2.671   5.873  0.0080 -0.2237 -1.0291
20073TIP3    H281711   3.695   2.766   5.900  1.3500  1.1576  0.0265
20074TIP3   OH281712   4.119   6.128  10.657  0.0275 -0.2465 -0.1551
20074TIP3    H181713   4.026   6.117  10.676  0.5210 -0.9513  2.1727
20074TIP3    H281714   4.140   6.056  10.597 -1.0504  0.4084 -1.3787
20075TIP3   OH281715   5.313   3.286  13.676  0.5890  0.0733  0.0998
20075TIP3    H181716   5.293   3.364  13.625  1.4272 -0.4338 -1.0453
20075TIP3    H281717   5.305   3.315  13.767  2.0221  1.8300 -0.2609
20076TIP3   OH281718   3.930   3.119   4.463 -0.4896 -0.0317 -0.6754
20076TIP3    H181719   3.862   3.055   4.484 -0.7560  0.1096 -1.0888
20076TIP3    H281720   3.979   3.129   4.544 -0.9662 -0.1340 -0.3687
20077TIP3   OH281721   2.899   5.532  16.559  0.2509  0.7176 -0.5039
20077TIP3    H181722   2.897   5.611  16.613 -1.8502 -0.4276  1.2097
20077TIP3    H281723   2.928   5.463  16.618 -1.0290 -0.3698 -1.0987
20078TIP3   OH281724   5.138   2.325   4.537  0.1744  0.4699 -0.3675
20078TIP3    H181725   5.063   2.275   4.568  1.1523 -1.6521 -1.2187
20078TIP3    H281726   5.187   2.347   4.616 -0.2733  0.0533  0.0330
20079TIP3   OH281727   6.788   0.953  14.003  0.6553  0.0058 -0.0758
20079TIP3    H181728   6.807   1.032  13.952  2.2040 -0.4115 -0.1681
20079TIP3    H281729   6.733   0.985  14.075 -0.6149  0.7825 -1.3305
20080TIP3   OH281730   1.188   5.608   2.962  0.0178  0.1751  0.9664
20080TIP3    H181731   1.253   5.677   2.972 -1.0165  1.0354  1.8666
20080TIP3    H281732   1.142   5.630   2.881 -0.6370  0.8189  1.5116
20081TIP3   OH281733   5.875   5.290   6.583  0.1295  0.2657 -0.5440
20081TIP3    H181734   5.912   5.342   6.655  0.3301 -1.6493  0.7938
20081TIP3    H281735   5.781   5.307   6.587 -0.4560 -2.7797  2.8211
20082TIP3   OH281736   6.382   4.588   5.737  0.2688 -0.0091  0.4593
20082TIP3    H181737   6.414   4.640   5.811 -0.3216  0.3533  0.4696
20082TIP3    H281738   6.329   4.519   5.777 -0.0527  0.1885  0.3863
20083TIP3   OH281739   4.421   1.660   2.739 -0.0161 -0.1265 -0.3030
20083TIP3    H181740   4.430   1.608   2.659 -0.5612  0.5059 -0.7824
20083TIP3    H281741   4.489   1.726   2.733  0.3131 -0.4259  0.0396
20084TIP3   OH281742   6.516   2.423  12.278  0.1098 -0.5814 -0.1291
20084TIP3    H181743   6.431   2.380  12.285 -0.1810  0.1084  0.8627
20084TIP3    H281744   6.498   2.505  12.232  0.4780 -1.0319 -1.0903
20085TIP3   OH281745   5.605   0.545  17.174 -0.0282 -0.1899  0.4969
20085TIP3    H181746   5.572   0.633  17.192  0.8642  0.5653 -1.3148
20085TIP3    H281747   5.539   0.486  17.213  0.3099  1.2034  3.4445
20086TIP3   OH281748   2.247   5.014  15.647  0.3813 -0.0319 -0.4868
20086TIP3    H181749   2.182   4.985  15.711  1.3986 -0.6137  0.3020
20086TIP3    H281750   2.309   5.067  15.698  0.3293  0.8364 -1.3013
20087TIP3   OH281751   2.537   5.665   1.711  0.7552 -0.2924  0.4057
20087TIP3    H181752   2.471   5.615   1.759 -1.5919  0.3264 -1.9644
20087TIP3    H281753   2.587   5.711   1.779  1.0318 -3.3653  2.4838
20088TIP3   OH281754   2.423   3.448   6.266 -0.0030 -0.9517  0.2484
20088TIP3    H181755   2.342   3.485   6.301 -0.1753  0.4284 -1.4732
20088TIP3    H281756   2.422   3.472   6.173  1.9477 -1.6780 -0.0024
20089TIP3   OH281757   1.385   4.639   1.150  0.0625 -0.2007  0.0334
20089TIP3    H181758   1.396   4.692   1.071  0.5608  1.9922  1.4666
20089TIP3    H281759   1.407   4.550   1.123  0.9666  0.6115 -2.1053
20090TIP3   OH281760   6.573   4.248  12.426 -0.7037  0.4543 -0.7262
20090TIP3    H181761   6.651   4.272  12.475  0.9289 -2.9271 -1.4207
20090TIP3    H281762   6.506   4.234  12.493  0.6418 -1.1601  0.3498
20091TIP3   OH281763   3.703   6.310  12.450  0.2350  0.2583 -0.4471
20091TIP3    H181764   3.691   6.244  12.382  0.0244  0.6906 -0.8304
20091TIP3    H281765   3.665   6.271  12.528  0.4823 -0.2416 -0.5717
20092TIP3   OH281766   4.088   4.585   5.445  0.6211 -0.2908  0.1183
20092TIP3    H181767   4.001   4.582   5.403  0.6674 -0.6777  0.0428
20092TIP3    H281768   4.082   4.658   5.507  0.7466  0.7040 -0.9988
20093TIP3   OH281769   2.250   4.199  16.340  0.1273  0.6148  0.5902
20093TIP3    H181770   2.164   4.240  16.348  0.0790  1.0710 -1.5242
20093TIP3    H281771   2.231   4.109  16.312  0.3162 -0.0095  2.3564
20094TIP3   OH281772   0.938   5.632  14.172 -0.3801 -0.9458 -0.3341
20094TIP3    H181773   0.976   5.544  14.183 -0.6378 -1.2945 -1.9432
20094TIP3    H281774   0.904   5.632  14.082  1.3643  1.4421 -1.1161
20095TIP3   OH281775   2.352   2.332  11.119 -0.7916 -0.4329  0.0643
20095TIP3    H181776   2.324   2.423  11.112 -1.1362 -0.5348  0.0765
20095TIP3    H281777   2.418   2.321  11.051 -0.5535 -0.1027  0.2392
20096TIP3   OH281778   6.705   6.467   2.435  0.4578  0.1093 -0.4409
20096TIP3    H181779   6.747   6.543   2.394  0.6559  0.2914  0.0824
20096TIP3    H281780   6.777   6.421   2.479  0.0197  0.8955  1.2015
20097TIP3   OH281781   0.935   1.402  16.874  0.0524 -0.3798  0.5250
20097TIP3    H181782   0.910   1.326  16.822 -1.0610 -0.3353  0.9857
20097TIP3    H281783   1.010   1.439  16.827 -0.2688 -0.9518 -0.4641
20098TIP3   OH281784   6.546   1.205  16.423  0.2869 -0.5437 -0.5727
20098TIP3    H181785   6.527   1.262  16.497  1.1106 -0.7514 -0.1852
20098TIP3    H281786   6.524   1.257  16.345 -0.0403 -0.1201 -0.1995
20099TIP3   OH281787   1.590   1.129   1.842 -0.3913 -0.2797 -0.1820
20099TIP3    H181788   1.523   1.070   1.809  1.3483 -1.6283 -1.4759
20099TIP3    H281789   1.642   1.075   1.901 -0.3655  0.7240  0.7455
20100TIP3   OH281790   4.699   3.080  15.830 -0.3819 -0.0214  0.2068
20100TIP3    H181791   4.734   3.002  15.788  0.6274  0.6088 -0.1620
20100TIP3    H281792   4.615   3.052  15.867 -0.4522 -1.0419 -0.6865
20101TIP3   OH281793   2.638   4.202  13.947  0.2800  0.2258  0.4137
20101TIP3    H181794   2.686   4.129  13.988 -1.6134 -1.6930 -0.6016
20101TIP3    H281795   2.701   4.241  13.887  0.8325 -1.8606 -0.4651
20102TIP3   OH281796   4.532   1.173  12.893  0.2002  0.5645  0.2604
20102TIP3    H181797   4.481   1.183  12.813  0.8077  2.2113  0.0208
20102TIP3    H281798   4.612   1.128  12.866  0.8612  2.0144 -0.3165
20103TIP3   OH281799   0.957   2.870   3.921 -0.1576  0.1604 -0.3260
20103TIP3    H181800   0.971   2.903   4.010  2.0743 -2.0122  0.2652
20103TIP3    H281801   0.885   2.808   3.930 -1.1578  1.2615 -0.4661
20104TIP3   OH281802   2.461   5.638  12.038  0.3610  0.3494 -0.3033
20104TIP3    H181803   2.526   5.702  12.066  2.0734  1.2656 -5.3037
20104TIP3    H281804   2.398   5.689  11.986 -0.5585 -1.4650 -1.0646
20105TIP3   OH281805   1.778   4.763  14.099  0.0647 -0.3559 -0.4291
20105TIP3    H181806   1.701   4.807  14.137 -0.3583 -0.4181 -1.1958
20105TIP3    H281807   1.853   4.810  14.135 -0.3624  0.5515 -0.7000
20106TIP3   OH281808   2.956   0.347  13.890 -0.2713 -0.0954 -0.2826
20106TIP3    H181809   2.946   0.258  13.923 -0.7226 -0.5566 -1.5977
20106TIP3    H281810   2.913   0.346  13.804 -0.7856  1.5403 -0.0843
20107TIP3   OH281811   4.818   6.493   5.416  0.4506 -0.5079  0.7436
20107TIP3    H181812   4.887   6.461   5.358  0.0837 -1.2900  0.7327
20107TIP3    H281813   4.862   6.508   5.500  0.8266 -0.0906  0.4760
20108TIP3   OH281814   5.587   2.649  12.248 -0.7480 -0.0434 -0.4392
20108TIP3    H181815   5.516   2.705  12.279  1.3074  2.7864 -0.4941
20108TIP3    H281816   5.580   2.652  12.153  0.2743  1.4876 -0.4941
20109TIP3   OH281817   3.697   2.911  10.865 -0.4773  0.1173 -0.1950
20109TIP3    H181818   3.760   2.945  10.928  0.2889 -1.7262  0.1022
20109TIP3    H281819   3.743   2.839  10.821 -2.0265 -0.6239 -0.6912
20110TIP3   OH281820   3.908   2.978  13.740 -0.0952 -0.0716  0.5814
20110TIP3    H181821   3.823   2.940  13.761 -0.1372 -0.4455 -0.2280
20110TIP3    H281822   3.961   2.905  13.707  1.8379 -0.6890  4.4263
20111TIP3   OH281823   1.200   3.765  16.180 -0.2397 -0.2123 -0.1421
20111TIP3    H181824   1.286   3.762  16.137  0.1798 -2.4722  0.7111
20111TIP3    H281825   1.190   3.678  16.218 -2.8317  0.0841 -0.0199
20112TIP3   OH281826   0.087   5.907   0.481  0.5358 -0.2805  0.1606
20112TIP3    H181827   0.100   5.953   0.398 -0.9948 -0.5036 -0.2417
20112TIP3    H281828   0.027   5.835   0.459  2.2518 -2.0122  0.9412
20113TIP3   OH281829   4.499   1.629  15.190  0.0957  0.2039  0.5947
20113TIP3    H181830   4.500   1.703  15.129  0.5634 -0.2447  0.0487
20113TIP3    H281831   4.555   1.564  15.149 -1.9783 -1.3134 -0.0041
20114TIP3   OH281832   6.108   4.276   4.510 -0.0315  0.4323  0.5181
20114TIP3    H181833   6.198   4.302   4.526  0.0412  0.4392  0.1206
20114TIP3    H281834   6.115   4.204   4.447 -0.3122  0.6065  0.2823
20115TIP3   OH281835   4.341   3.431  10.787  0.1062  0.0449  0.1346
20115TIP3    H181836   4.346   3.523  10.758 -1.9535  0.3373  0.5409
20115TIP3    H281837   4.312   3.383  10.710 -0.2022 -0.0257  0.2925
20116TIP3   OH281838   5.945   3.499  14.188  0.2184  0.0246 -0.2254
20116TIP3    H181839   5.894   3.580  14.192  0.5903  0.2776 -0.5074
20116TIP3    H281840   5.954   3.471  14.279 -1.1210 -0.4706 -0.2285
20117TIP3   OH281841   0.202   5.098  11.299 -0.0789  0.2075 -0.1500
20117TIP3    H181842   0.249   5.177  11.272  0.3043  0.1955  0.4574
20117TIP3    H281843   0.249   5.026  11.257  0.8438  0.1442  0.9316
20118TIP3   OH281844   0.242   2.034  15.225 -0.1008  0.7149  0.6511
20118TIP3    H181845   0.276   2.083  15.300  0.5467  1.9780 -0.4343
20118TIP3    H281846   0.314   2.032  15.162 -0.6986 -0.1518 -0.0369
20119TIP3   OH281847   4.930   3.937   5.197  0.2520 -0.0040 -0.0777
20119TIP3    H181848   5.008   3.896   5.158  0.7579 -0.1207  1.0252
20119TIP3    H281849   4.959   4.023   5.225 -0.4853  0.6524 -1.2223
20120TIP3   OH281850   2.852   3.008  12.446  0.1340  0.1880  0.1809
20120TIP3    H181851   2.931   3.058  12.467 -0.0777  0.5123  0.2025
20120TIP3    H281852   2.881   2.945  12.379 -0.1649  2.0589 -1.7988
20121TIP3   OH281853   2.068   5.606  16.961 -0.2083 -0.2761  0.1446
20121TIP3    H181854   2.090   5.521  16.922 -1.4664  0.2625 -1.8443
20121TIP3    H281855   2.114   5.670  16.907  0.6670  0.3738  1.5825
20122TIP3   OH281856   2.157   4.159   0.195 -0.0159  0.3141  0.0255
20122TIP3    H181857   2.214   4.212   0.250  0.2942  2.2618 -2.0540
20122TIP3    H281858   2.077   4.211   0.185  0.5570  0.8414 -2.6042
20123TIP3   OH281859   3.162   0.074   1.052 -0.3073  0.2897  0.0186
20123TIP3    H181860   3.251   0.102   1.074 -0.8973  2.0836  0.3232
20123TIP3    H281861   3.155   0.087   0.958  0.3339 -1.7354 -0.3586
20124TIP3   OH281862   1.013   1.887   6.030  0.3334 -0.1891 -0.0766
20124TIP3    H181863   0.932   1.902   6.079 -0.6024  1.3617 -1.9518
20124TIP3    H281864   1.079   1.938   6.077 -0.3815  0.6592  0.0440
20125TIP3   OH281865   3.632   6.020  16.281  0.1669 -0.0826  0.5654
20125TIP3    H181866   3.641   6.003  16.187  0.8455 -0.8390  0.7570
20125TIP3    H281867   3.581   6.101  16.286  0.5134  0.2099 -0.4593
20126TIP3   OH281868   1.736   4.831   1.642  0.0293  0.3233  0.3022
20126TIP3    H181869   1.805   4.890   1.613  0.4164  0.3092  1.1563
20126TIP3    H281870   1.674   4.829   1.569  0.0311  1.7381  0.2322
20127TIP3   OH281871   2.796   5.059  17.176 -0.2136 -0.0071 -0.8192
20127TIP3    H181872   2.852   4.985  17.201 -1.2292 -0.2476  0.8812
20127TIP3    H281873   2.842   5.135  17.210  0.0869  0.0274 -1.2744
20128TIP3   OH281874   3.650   1.122   2.147 -0.5536  0.4550 -0.4781
20128TIP3    H181875   3.589   1.050   2.167  0.7728 -0.0599  2.3421
20128TIP3    H281876   3.731   1.078   2.122 -0.4090  1.0322 -1.0321
20129TIP3   OH281877   2.343   4.607   0.007 -0.6653  0.3210 -0.2551
20129TIP3    H181878   2.435   4.581  -0.006 -0.1496  1.5073  0.8326
20129TIP3    H281879   2.316   4.643  -0.077 -0.2904 -0.4355 -0.7154
20130TIP3   OH281880   0.930   1.045  11.036  0.0038  0.6096  0.3697
20130TIP3    H181881   0.887   1.085  10.961  0.6712  0.2166 -0.2452
20130TIP3    H281882   0.860   0.998  11.082 -0.2421 -0.0344 -0.6156
20131TIP3   OH281883   3.851   3.519  11.116  0.2832 -0.2725 -0.4366
20131TIP3    H181884   3.849   3.566  11.200 -2.3480 -0.0820 -0.5210
20131TIP3    H281885   3.900   3.439  11.135  1.2986  0.5964  0.7813
20132TIP3   OH281886   2.307   4.658  14.545  0.0983  0.5901  0.7240
20132TIP3    H181887   2.392   4.617  14.564  0.2541  1.3302  1.6618
20132TIP3    H281888   2.270   4.603  14.475  1.3415  0.2548  0.2940
20133TIP3   OH281889   3.605   6.526   0.707 -0.1209 -0.1359 -0.3261
20133TIP3    H181890   3.561   6.586   0.768  0.4294 -1.8437  1.8759
20133TIP3    H281891   3.696   6.555   0.707 -0.0037 -0.4896  0.1544
20134TIP3   OH281892   5.196   6.090   1.048 -0.2319  0.4078  0.2715
20134TIP3    H181893   5.134   6.163   1.034 -0.5729 -0.0981 -1.0374
20134TIP3    H281894   5.140   6.012   1.052  0.3124 -0.5957 -4.6722
20135TIP3   OH281895   0.579   2.191   2.874 -0.5894  0.0597  0.2959
20135TIP3    H181896   0.585   2.253   2.801 -2.6154  1.0527  0.8996
20135TIP3    H281897   0.537   2.113   2.836 -0.8013  0.2240  0.1929
20136TIP3   OH281898   5.991   0.511  16.213  0.0384  0.3973  0.0682
20136TIP3    H181899   5.955   0.597  16.189 -0.5145  0.3055  0.5480
20136TIP3    H281900   5.916   0.451  16.206 -0.1091  0.3368  1.8212
20137TIP3   OH281901   3.835   6.712  13.931 -0.1688  0.0977  0.1877
20137TIP3    H181902   3.912   6.700  13.876 -0.1655  0.9435 -0.0168
20137TIP3    H281903   3.766   6.738  13.871 -0.0841  1.3572  0.5820
20138TIP3   OH281904   0.510   1.519   4.292 -0.4348  0.3265 -0.1376
20138TIP3    H181905   0.517   1.432   4.329  2.1839  0.4319 -0.2304
20138TIP3    H281906   0.556   1.576   4.354 -0.0379  1.2407 -1.2319
20139TIP3   OH281907   6.280   6.379  12.296 -0.8281  0.5028  0.0328
20139TIP3    H181908   6.263   6.285  12.289  1.2496  0.1862 -1.6497
20139TIP3    H281909   6.266   6.398  12.389  0.7865 -1.9433  0.8727
20140TIP3   OH281910   6.730   5.973   1.848  0.7098  0.1135  0.2188
20140TIP3    H181911   6.757   5.961   1.757 -0.1031 -1.8867  0.1769
20140TIP3    H281912   6.679   6.054   1.848  0.5450  0.0355 -1.1496
20141TIP3   OH281913   4.067   0.607  14.335 -0.0055  0.2113 -0.3043
20141TIP3    H181914   4.072   0.575  14.245 -0.0872  0.9169 -0.5675
20141TIP3    H281915   4.050   0.529  14.388 -0.1326 -0.1816 -0.9211
20142TIP3   OH281916   5.727   6.181  12.320 -0.3696 -0.3645 -0.2608
20142TIP3    H181917   5.809   6.231  12.317 -0.0566 -0.8461  0.2245
20142TIP3    H281918   5.740   6.117  12.389 -0.4132 -1.7375 -1.4760
20143TIP3   OH281919   6.257   4.431  12.127 -0.1740  0.1340 -0.5715
20143TIP3    H181920   6.277   4.349  12.171  0.8784  1.3249  1.3400
20143TIP3    H281921   6.178   4.463  12.170  1.1590  1.5655  0.9559
20144TIP3   OH281922   2.858   5.159   4.185  0.4827 -0.5077  0.2563
20144TIP3    H181923   2.763   5.167   4.173  0.5077 -1.5766 -0.8047
20144TIP3    H281924   2.895   5.203   4.108  0.8463 -0.3601  0.5140
20145TIP3   OH281925   6.383   0.314   1.880  0.1407  0.3191 -0.0470
20145TIP3    H181926   6.377   0.345   1.970 -1.1343 -0.8900  0.3130
20145TIP3    H281927   6.410   0.223   1.886 -0.1503  0.1620 -0.8686
20146TIP3   OH281928   3.993   5.340   2.978  0.5383 -0.4482  0.0682
20146TIP3    H181929   3.937   5.368   3.050 -0.0905  1.1429 -0.9870
20146TIP3    H281930   4.056   5.411   2.967  0.5383 -0.6006 -1.0316
20147TIP3   OH281931   5.581   3.359  16.441  0.4198 -0.5580  0.1961
20147TIP3    H181932   5.506   3.357  16.501  0.9715  0.0339  0.9224
20147TIP3    H281933   5.644   3.298  16.479  0.3841 -0.9281 -0.3247
20148TIP3   OH281934   2.948   5.404  12.669 -0.0992 -0.6825  0.5735
20148TIP3    H181935   2.995   5.354  12.736  0.4617 -0.5095  0.3186
20148TIP3    H281936   2.923   5.339  12.604  1.0142 -0.5895  0.0264
20149TIP3   OH281937   5.364   1.701  13.392  0.5657  0.2013 -0.1117
20149TIP3    H181938   5.402   1.759  13.326 -1.7456  0.0795 -1.6531
20149TIP3    H281939   5.276   1.683  13.361 -0.1594 -0.9901  2.3555
20150TIP3   OH281940   6.642   0.368  16.431 -0.3450  0.3817  0.0163
20150TIP3    H181941   6.674   0.410  16.511  0.6326  1.1103 -0.7392
20150TIP3    H281942   6.598   0.438  16.383 -0.7059  0.0050 -0.2123
20151TIP3   OH281943   1.560   2.657   3.792  0.3610  0.5068  0.8091
20151TIP3    H181944   1.498   2.602   3.745  0.8371 -0.3180  1.1276
20151TIP3    H281945   1.601   2.710   3.724 -0.5472  0.9298  0.5746
20152TIP3   OH281946   5.241   1.369   1.633 -0.4617  0.7853  0.3019
20152TIP3    H181947   5.169   1.421   1.669 -1.3703 -0.2566  0.0416
20152TIP3    H281948   5.199   1.290   1.600  0.5899  0.8359 -1.2680
20153TIP3   OH281949   5.704   3.145   4.445  0.8296  0.1509  0.5744
20153TIP3    H181950   5.776   3.083   4.456 -0.6176 -1.5234  1.1605
20153TIP3    H281951   5.707   3.170   4.353  2.2859  0.3187  0.6455
20154TIP3   OH281952   4.233   0.709   4.575  0.6563  0.0432  0.2431
20154TIP3    H181953   4.292   0.634   4.571 -0.6298 -0.9396 -1.7584
20154TIP3    H281954   4.147   0.672   4.595  0.4843  1.3552  2.2110
20155TIP3   OH281955   4.115   2.421  10.288  0.1757 -0.0943  0.1340
20155TIP3    H181956   4.156   2.343  10.327 -0.2126  0.7361  2.3222
20155TIP3    H281957   4.024   2.416  10.317  0.0126  0.8774 -0.2014
20156TIP3   OH281958   3.340   5.582   0.089  0.2460 -0.5432 -0.6178
20156TIP3    H181959   3.295   5.665   0.073 -1.5881 -1.8071 -2.5575
20156TIP3    H281960   3.281   5.516   0.054  1.8853 -2.6600  0.4007
20157TIP3   OH281961   2.026   3.178  11.867  0.4974 -0.0293 -0.1137
20157TIP3    H181962   1.935   3.148  11.866  0.2204  0.7755 -1.6627
20157TIP3    H281963   2.078   3.098  11.854 -0.0730 -0.2630 -1.0063
20158TIP3   OH281964   3.932   4.611   4.516 -0.2824 -0.7298  0.1514
20158TIP3    H181965   3.946   4.646   4.429 -0.6201 -3.9974 -1.3599
20158TIP3    H281966   3.890   4.682   4.564  0.0473  1.2214 -2.2767
20159TIP3   OH281967   0.830   0.818   3.641  0.2316 -0.4792  0.3471
20159TIP3    H181968   0.772   0.776   3.577  1.2345 -0.5118 -0.5827
20159TIP3    H281969   0.786   0.807   3.725 -0.8134 -1.0179 -0.2514
20160TIP3   OH281970   0.594   0.184   0.011 -0.0875  0.0142  0.1888
20160TIP3    H181971   0.573   0.269  -0.029  0.5313 -0.3213 -0.8960
20160TIP3    H281972   0.543   0.121  -0.039  0.9326 -0.4483 -0.2963
20161TIP3   OH281973   3.244   1.052  16.992 -1.0584 -0.2819 -0.1168
20161TIP3    H181974   3.269   0.998  16.917  1.2107  1.9022 -1.1074
20161TIP3    H281975   3.328   1.085  17.025 -2.0343 -0.7320  3.0961
20162TIP3   OH281976   2.866   4.136  16.698  0.0441  0.4947  0.1241
20162TIP3    H181977   2.954   4.106  16.722  0.4785  1.4872 -0.1495
20162TIP3    H281978   2.823   4.059  16.661  1.6426  0.5146 -1.9832
20163TIP3   OH281979   4.517   1.949   0.211 -0.4000  0.2802  0.2628
20163TIP3    H181980   4.545   1.963   0.301 -1.2167 -0.7466  0.6976
20163TIP3    H281981   4.491   2.036   0.180 -0.5697  0.5688  1.1851
20164TIP3   OH281982   1.301   3.674   2.353  0.1287 -0.3268  0.2122
20164TIP3    H181983   1.331   3.596   2.401  1.7144 -1.4204 -2.3304
20164TIP3    H281984   1.208   3.658   2.336 -0.0444 -0.6898  1.4217
20165TIP3   OH281985   0.780   1.237   1.561 -0.5594  0.1293  0.4993
20165TIP3    H181986   0.773   1.153   1.605  0.9221  0.1696  0.8750
20165TIP3    H281987   0.839   1.221   1.488 -1.2546  0.5695 -0.1727
20166TIP3   OH281988   5.899   5.620  16.374  0.9748 -0.6621 -0.5336
20166TIP3    H181989   5.875   5.704  16.335  1.5883  0.9581  2.2753
20166TIP3    H281990   5.992   5.609  16.354  1.1425 -0.1365 -0.0620
20167TIP3   OH281991   4.463   6.490   0.333 -0.1827  0.6638  0.5929
20167TIP3    H181992   4.382   6.540   0.335  0.5957  1.9634  0.4582
20167TIP3    H281993   4.502   6.512   0.248 -0.7773 -1.7639 -0.3955
20168TIP3   OH281994   3.125   5.405   0.486  0.6472  0.2864 -0.1092
20168TIP3    H181995   3.143   5.312   0.472  1.5742  0.3831  0.3808
20168TIP3    H281996   3.048   5.405   0.543  2.2794 -0.2734  2.2493
20169TIP3   OH281997   1.287   1.941  12.920  0.9463 -0.1163  0.0582
20169TIP3    H181998   1.270   1.879  12.849  0.2420 -0.2639  0.3380
20169TIP3    H281999   1.209   1.997  12.920  1.5339  0.7050 -0.1262
20170TIP3   OH282000   3.437   5.389   0.517  0.1230  0.2118  0.6025
20170TIP3    H182001   3.361   5.376   0.573 -0.8883 -0.0010 -0.7444
20170TIP3    H282002   3.418   5.468   0.467  1.2760  0.7537  0.9798
20171TIP3   OH282003   6.421   4.377  15.472 -0.0742 -0.4179  0.6297
20171TIP3    H182004   6.449   4.382  15.563 -1.4611  1.3323  1.0055
20171TIP3    H282005   6.326   4.375  15.476 -0.1395 -1.4259 -0.7669
20172TIP3   OH282006   1.479   2.512  13.243 -0.4203 -0.2873  0.1075
20172TIP3    H182007   1.486   2.542  13.333  0.1362  0.2524 -0.1071
20172TIP3    H282008   1.524   2.580  13.192 -1.4742 -0.1469 -0.6628
20173TIP3   OH282009   3.359   0.579   3.631 -0.1975 -0.2392  0.2502
20173TIP3    H182010   3.393   0.665   3.654 -2.6171  0.5995  1.0002
20173TIP3    H282011   3.367   0.575   3.536 -1.0242  1.2914  0.0802
20174TIP3   OH282012   6.552   4.212   2.321 -0.6580  0.3615  0.3358
20174TIP3    H182013   6.538   4.307   2.327 -1.1045  0.2897  0.4478
20174TIP3    H282014   6.604   4.191   2.398 -0.8343  0.4652  0.4842
20175TIP3   OH282015   3.049   4.495  13.322 -1.4668  0.8439  0.0143
20175TIP3    H182016   3.000   4.568  13.283 -0.6220  0.0390 -2.7567
20175TIP3    H282017   3.120   4.477  13.260  0.0011 -0.5819  1.9815
20176TIP3   OH282018   3.792   1.753  11.475  0.3914  0.0523 -0.5134
20176TIP3    H182019   3.807   1.664  11.506 -0.5792 -0.5483 -1.6971
20176TIP3    H282020   3.858   1.765  11.406  0.0731  0.0008 -0.8259
20177TIP3   OH282021   3.234   5.077   5.256 -0.3901  0.0647 -0.1025
20177TIP3    H182022   3.187   5.026   5.321 -1.7552  0.3865 -0.7896
20177TIP3    H282023   3.229   5.167   5.288  0.8674 -0.0402  0.4441
20178TIP3   OH282024   6.787   4.335  10.614  0.1184 -0.2150 -0.0658
20178TIP3    H182025   6.873   4.337  10.572  0.6754  0.0337  1.0496
20178TIP3    H282026   6.771   4.426  10.640 -1.0328 -0.0325 -1.3083
20179TIP3   OH282027   3.300   5.611  15.807 -0.3889  0.4293 -0.5406
20179TIP3    H182028   3.352   5.681  15.847  0.1937 -0.3832  0.1544
20179TIP3    H282029   3.220   5.655  15.778 -0.7398  1.1200  1.3178
20180TIP3   OH282030   4.702   1.955  16.229 -0.2479  0.6134 -0.0698
20180TIP3    H182031   4.625   1.952  16.172 -0.0878 -1.7557 -0.2453
20180TIP3    H282032   4.772   1.990  16.174 -0.0071 -1.9590 -1.5295
20181TIP3   OH282033   5.290   2.048   3.029 -0.0860  0.2915  0.6869
20181TIP3    H182034   5.375   2.047   2.985 -0.2250  2.9745  0.1852
20181TIP3    H282035   5.241   1.976   2.988  1.3345 -0.1582 -0.2912
20182TIP3   OH282036   6.174   0.489  15.451  0.0700 -0.5582 -0.0839
20182TIP3    H182037   6.101   0.454  15.503  1.2919 -1.6738  0.9670
20182TIP3    H282038   6.190   0.576  15.488 -2.1489  0.7071 -1.8514
20183TIP3   OH282039   6.231   5.125  14.507  0.3612 -0.5375 -0.3605
20183TIP3    H182040   6.164   5.110  14.574  0.4964 -0.6226 -0.2419
20183TIP3    H282041   6.287   5.193  14.545  1.8552 -2.2585  0.6917
20184TIP3   OH282042   4.068   0.569   6.134 -0.1499 -0.3101 -0.1687
20184TIP3    H182043   4.013   0.498   6.166  0.9356 -0.6189  1.0651
20184TIP3    H282044   4.112   0.602   6.212  1.8333 -0.4321 -1.1975
20185TIP3   OH282045   4.783   0.204  16.359 -0.0950  0.3439 -0.0206
20185TIP3    H182046   4.762   0.290  16.395 -1.0253 -0.4764  1.4935
20185TIP3    H282047   4.864   0.179  16.403 -0.2018  0.1602  0.0752
20186TIP3   OH282048   2.394   1.236   4.372 -0.3729 -0.4144  0.2154
20186TIP3    H182049   2.342   1.246   4.452  2.1931 -2.5040  2.3337
20186TIP3    H282050   2.448   1.315   4.369 -0.1003 -0.5634  0.9020
20187TIP3   OH282051   1.152   0.456  14.987 -0.0049  0.3145  0.1033
20187TIP3    H182052   1.073   0.469  14.933 -0.0799 -1.2467 -0.2248
20187TIP3    H282053   1.220   0.432  14.924  0.3960  0.3495  0.5195
20188TIP3   OH282054   0.633   2.074   4.635  0.5037 -0.0333 -0.0337
20188TIP3    H182055   0.656   2.166   4.625  1.8663 -0.1847  1.2749
20188TIP3    H282056   0.697   2.040   4.698 -0.5407 -1.6540  0.2259
20189TIP3   OH282057   3.011   0.306  14.277  0.3853 -0.7461  0.1300
20189TIP3    H182058   3.057   0.223  14.291  0.9389 -0.4700 -0.0174
20189TIP3    H282059   2.919   0.285  14.291  0.4756 -1.4869 -0.3378
20190TIP3   OH282060   6.486   3.437  16.122  0.0711  0.0527 -0.2010
20190TIP3    H182061   6.544   3.383  16.176  0.2846  0.0357 -0.4433
20190TIP3    H282062   6.528   3.523  16.120 -0.1246  0.1535 -0.0437
20191TIP3   OH282063   2.967   3.809  12.441  0.2566  0.0957 -0.1256
20191TIP3    H182064   3.061   3.831  12.444  0.6477 -1.5290  0.4526
20191TIP3    H282065   2.931   3.849  12.520  0.7318 -0.4065  0.3491
20192TIP3   OH282066   1.919   1.105   5.518 -0.5205 -0.3423  0.2262
20192TIP3    H182067   2.006   1.072   5.495  0.2585  0.0849  2.3540
20192TIP3    H282068   1.929   1.200   5.521 -0.6204 -0.3527  1.9509
20193TIP3   OH282069   2.648   1.304   1.644 -0.1872 -0.1078 -0.3210
20193TIP3    H182070   2.624   1.372   1.580 -0.5554 -1.5255 -1.7482
20193TIP3    H282071   2.612   1.336   1.727 -1.3551  0.9032 -1.1666
20194TIP3   OH282072   1.661   1.917   2.465  0.6853 -0.2802  0.3231
20194TIP3    H182073   1.727   1.936   2.399  0.9831  0.2871  0.7711
20194TIP3    H282074   1.596   1.864   2.420 -0.1636  1.7751 -1.0194
20195TIP3   OH282075   0.411   4.627  15.621  0.1410 -0.2618  0.2240
20195TIP3    H182076   0.346   4.670  15.564  0.4758  1.2987  0.9512
20195TIP3    H282077   0.492   4.631  15.571  0.7747  2.4640  1.3057
20196TIP3   OH282078   1.017   5.713   6.615 -0.1937  0.0769  0.0191
20196TIP3    H182079   1.073   5.741   6.687  0.4322  0.0920 -0.4599
20196TIP3    H282080   0.983   5.628   6.642  0.8643 -0.4020 -0.0941
20197TIP3   OH282081   0.164   0.137   4.777 -0.1793  0.6885 -0.2242
20197TIP3    H182082   0.211   0.088   4.844  0.8969  0.4345 -1.1301
20197TIP3    H282083   0.227   0.147   4.706 -1.4029  0.6225 -1.3664
20198TIP3   OH282084   5.681   1.392   5.583  0.2363  0.5429 -0.1719
20198TIP3    H182085   5.757   1.441   5.612  1.2526 -0.2459 -1.3599
20198TIP3    H282086   5.665   1.424   5.494  0.2814 -0.5132 -0.5747
20199TIP3   OH282087   1.576   4.834   0.657  0.2877  0.1236 -0.2087
20199TIP3    H182088   1.497   4.835   0.603 -1.8180 -1.8143  2.5271
20199TIP3    H282089   1.648   4.841   0.595 -1.9684 -0.5453 -3.0970
20200TIP3   OH282090   2.510   1.800   2.077  0.0151  0.2239 -0.2062
20200TIP3    H182091   2.467   1.864   2.133 -1.5203 -0.7584 -0.2012
20200TIP3    H282092   2.521   1.723   2.133 -0.6587 -0.4337 -0.9465
20201TIP3   OH282093   3.219   3.657  16.686  0.2191  0.1468  0.3410
20201TIP3    H182094   3.278   3.704  16.627 -0.2681  1.1537  0.6459
20201TIP3    H282095   3.149   3.624  16.629  0.6662 -0.4104  0.0970
20202TIP3   OH282096   0.990   0.320   5.623  0.5034 -0.2509 -0.6904
20202TIP3    H182097   0.976   0.241   5.676 -2.3195 -0.1937 -1.1893
20202TIP3    H282098   0.997   0.391   5.687  2.5865 -0.7946 -0.2578
20203TIP3   OH282099   4.872   4.002   2.751  0.8529  0.1726  0.0112
20203TIP3    H182100   4.956   4.046   2.736 -0.0949  1.6692 -1.2424
20203TIP3    H282101   4.896   3.916   2.786  2.9208  0.3370 -0.8390
20204TIP3   OH282102   5.722   5.381  13.414 -0.2047 -0.3250  0.8471
20204TIP3    H182103   5.627   5.370  13.413 -0.1525 -0.9145  1.4552
20204TIP3    H282104   5.736   5.471  13.384 -0.8832 -0.6047 -0.3597
20205TIP3   OH282105   6.461   3.972  15.400 -0.6249 -0.1228  0.0382
20205TIP3    H182106   6.414   4.007  15.476 -0.3188  0.8510 -0.2016
20205TIP3    H282107   6.433   4.027  15.327  0.5973  0.2523 -0.1750
20206TIP3   OH282108   2.598   3.067   0.754  0.1585 -0.3156 -0.3162
20206TIP3    H182109   2.671   3.068   0.693  0.1843  0.2273 -0.2809
20206TIP3    H282110   2.532   3.124   0.715 -0.6574 -1.5501 -0.8261
20207TIP3   OH282111   6.740   4.888   2.126 -0.3479  0.0190 -0.2457
20207TIP3    H182112   6.717   4.824   2.058 -0.6676 -2.3431  1.9010
20207TIP3    H282113   6.758   4.969   2.078 -1.1452 -1.3214 -3.0524
20208TIP3   OH282114   5.327   5.075   4.767  0.5786  0.2229 -0.2316
20208TIP3    H182115   5.391   5.142   4.791 -0.7181  1.3451  0.2250
20208TIP3    H282116   5.345   5.055   4.675  1.8653  0.1581  0.0199
20209TIP3   OH282117   6.197   2.955  14.742 -0.3288  0.0412 -0.1331
20209TIP3    H182118   6.259   3.028  14.731  0.5974 -0.8510 -1.1003
20209TIP3    H282119   6.112   2.997  14.752  0.3690  1.2989  0.8532
20210TIP3   OH282120   1.304   2.513   5.524 -0.4025 -0.3725  0.3500
20210TIP3    H182121   1.334   2.468   5.446 -3.2997 -0.8595 -0.5909
20210TIP3    H282122   1.354   2.474   5.596  0.9469 -1.2480 -1.0190
20211TIP3   OH282123   4.431   5.715   5.820  0.2763  0.1796 -0.5232
20211TIP3    H182124   4.354   5.683   5.771  1.2743 -2.0851 -0.7480
20211TIP3    H282125   4.504   5.703   5.759  1.1659 -0.1612  0.5833
20212TIP3   OH282126   4.874   1.464   1.140 -0.0447 -0.3081  0.1259
20212TIP3    H182127   4.831   1.538   1.096 -0.9707 -1.8108 -1.6562
20212TIP3    H282128   4.965   1.468   1.109  0.6723  1.5719  2.1629
20213TIP3   OH282129   5.876   0.959  16.746 -0.2961  0.0707 -0.3983
20213TIP3    H182130   5.850   0.867  16.738 -1.2012  0.0433  2.0986
20213TIP3    H282131   5.870   0.993  16.656  2.3848 -2.8164 -1.8639
20214TIP3   OH282132   2.464   4.468  14.743 -0.4944  0.2268  0.4678
20214TIP3    H182133   2.522   4.405  14.785  0.4732  0.9636  0.2717
20214TIP3    H282134   2.447   4.534  14.810  0.6261  1.1248 -0.0912
20215TIP3   OH282135   6.738   3.430  15.754 -0.7450  0.0108  0.3881
20215TIP3    H182136   6.760   3.513  15.712 -0.7035  0.3893  1.1378
20215TIP3    H282137   6.642   3.428  15.753 -0.7544 -0.6689 -1.0059
20216TIP3   OH282138   3.858   2.184   2.848  0.7940  0.5641  0.2549
20216TIP3    H182139   3.885   2.266   2.890 -1.2378  0.1073  2.7250
20216TIP3    H282140   3.896   2.115   2.902 -0.2798 -0.0597  0.2565
20217TIP3   OH282141   2.007   1.765   1.289 -0.7756  0.5500  0.2828
20217TIP3    H182142   1.953   1.707   1.235  1.1325  0.2569 -1.4278
20217TIP3    H282143   1.966   1.851   1.279 -2.0539  0.0068  0.6514
20218TIP3   OH282144   3.817   4.300  12.661 -0.0293  0.2564 -0.1577
20218TIP3    H182145   3.747   4.257  12.611  0.2380  1.7015 -1.8603
20218TIP3    H282146   3.883   4.232  12.673 -1.1545 -0.7900  0.4047
20219TIP3   OH282147   4.824   1.424  14.446  0.3679 -1.0035  0.2623
20219TIP3    H182148   4.774   1.343  14.436  0.0623 -0.9278  1.0945
20219TIP3    H282149   4.898   1.400  14.503  1.0884 -1.0295 -0.6656
20220TIP3   OH282150   0.782   6.700  16.265 -0.0397  0.4955 -0.0048
20220TIP3    H182151   0.705   6.722  16.317 -0.5114 -0.0926 -0.4459
20220TIP3    H282152   0.751   6.700  16.174  0.4155 -0.0136 -0.1683
20221TIP3   OH282153   1.078   1.431   1.675  0.1346 -0.3138  0.0166
20221TIP3    H182154   1.027   1.507   1.645  1.4200  1.4374  1.9483
20221TIP3    H282155   1.014   1.361   1.684 -1.0116  0.3256 -2.4079
20222TIP3   OH282156   6.546   0.358  14.662 -0.0505 -0.1066  0.3042
20222TIP3    H182157   6.603   0.282  14.672 -0.3795 -0.2991  0.7000
20222TIP3    H282158   6.586   0.425  14.717 -0.1987 -0.2373  0.5706
20223TIP3   OH282159   6.635   6.152  13.481 -0.1851 -0.1452 -0.5551
20223TIP3    H182160   6.695   6.088  13.519 -0.3852  0.0796  0.1537
20223TIP3    H282161   6.664   6.160  13.390 -0.4715 -1.6159 -0.8101
20224TIP3   OH282162   3.378   6.437  10.203  0.6874 -0.2800  0.5288
20224TIP3    H182163   3.331   6.502  10.256 -1.0878 -0.1749 -1.0995
20224TIP3    H282164   3.433   6.391  10.267  0.7630  1.6744  2.0044
20225TIP3   OH282165   3.595   1.412  14.571  0.3541 -0.3573  0.2673
20225TIP3    H182166   3.506   1.393  14.600  0.5325  0.4159  1.3566
20225TIP3    H282167   3.591   1.405  14.475 -1.6639  2.7641  0.0003
20226TIP3   OH282168   2.939   0.687  15.731 -0.2244  0.1899  0.5558
20226TIP3    H182169   2.923   0.595  15.752 -1.5521  0.2052 -0.2741
20226TIP3    H282170   3.016   0.685  15.675  0.2601 -0.3214  1.2125
20227TIP3   OH282171   0.044   6.402  11.787 -0.0871 -0.3360 -0.3344
20227TIP3    H182172   0.032   6.422  11.694 -2.9730  0.9120  0.1710
20227TIP3    H282173  -0.043   6.374  11.816 -0.0486  2.0561  2.5355
20228TIP3   OH282174   4.745   1.270   0.684 -0.1395  0.0589  0.4101
20228TIP3    H182175   4.793   1.254   0.766  0.5979 -0.5377 -0.1302
20228TIP3    H282176   4.674   1.206   0.686  0.1423 -0.2623  0.3837
20229TIP3   OH282177   6.039   3.063   0.131  0.2264  0.1230  0.6470
20229TIP3    H182178   6.093   3.091   0.057  1.6191 -0.6373  1.3441
20229TIP3    H282179   6.102   3.028   0.194 -1.0438 -0.2471  1.7337
20230TIP3   OH282180   1.630   1.982   5.594 -0.3663 -0.1966 -0.6021
20230TIP3    H182181   1.569   2.055   5.602  0.1044  0.3184 -1.5028
20230TIP3    H282182   1.647   1.955   5.685 -1.5883 -0.0826 -0.3236
20231TIP3   OH282183   1.909   2.031  16.562 -0.2170 -0.0523  0.0810
20231TIP3    H182184   1.900   1.965  16.494 -1.0368 -0.4454  0.5633
20231TIP3    H282185   1.999   2.062  16.553  0.0477 -0.9303 -0.4187
20232TIP3   OH282186   4.781   6.274  11.457  0.2518 -0.6389 -0.1101
20232TIP3    H182187   4.811   6.246  11.543 -2.0474 -2.0476  0.3160
20232TIP3    H282188   4.816   6.208  11.397  0.6822 -0.4555 -0.0596
20233TIP3   OH282189   6.327   5.725   0.026  0.1391  0.3265  0.1851
20233TIP3    H182190   6.395   5.728   0.092  1.3390 -1.4587 -0.8850
20233TIP3    H282191   6.355   5.787  -0.041  2.1634 -2.1492 -1.4503
20234TIP3   OH282192   3.628   4.380  15.453  0.0847  0.5873 -0.4887
20234TIP3    H182193   3.715   4.418  15.459  0.8336 -1.0316 -0.4273
20234TIP3    H282194   3.590   4.419  15.374 -0.5695  3.9713  1.3130
20235TIP3   OH282195   5.758   6.260   1.740 -0.4573 -0.3601  0.2085
20235TIP3    H182196   5.807   6.284   1.661 -0.5729  1.6619  0.6859
20235TIP3    H282197   5.696   6.332   1.752 -1.8725 -1.6581  1.0004
20236TIP3   OH282198   4.009   5.971   1.485 -0.1539  0.1783  0.5068
20236TIP3    H182199   4.057   5.998   1.564 -0.8971  2.5504  0.2381
20236TIP3    H282200   3.933   5.923   1.519  0.9917 -1.3556  1.0438
20237TIP3   OH282201   6.371   5.912   4.494  0.1728  0.1571  0.0788
20237TIP3    H182202   6.428   5.853   4.444 -0.7228 -1.3842  0.7816
20237TIP3    H282203   6.420   5.993   4.502  0.9967 -0.0946 -1.9181
20238TIP3   OH282204   4.827   4.870   0.778 -0.0245  0.4262  0.6077
20238TIP3    H182205   4.820   4.862   0.683 -1.5561 -1.0024  0.7795
20238TIP3    H282206   4.828   4.964   0.795  2.7253  0.7515 -0.9127
20239TIP3   OH282207   0.050   2.636  13.269  0.0149 -0.3221  0.5956
20239TIP3    H182208   0.117   2.688  13.223  0.8289 -0.7724  1.2404
20239TIP3    H282209   0.032   2.563  13.210 -2.4093  1.5152 -1.1201
20240TIP3   OH282210   5.446   2.351   5.090  0.3596  0.0923 -0.0392
20240TIP3    H182211   5.365   2.313   5.057  0.8849 -0.4931 -0.6836
20240TIP3    H282212   5.425   2.443   5.108 -0.6979 -0.2897  0.7272
20241TIP3   OH282213   5.070   3.007  16.080  0.1599 -0.3826  0.1793
20241TIP3    H182214   5.080   3.010  15.985 -0.7075 -0.1058  0.0904
20241TIP3    H282215   5.050   3.097  16.105 -1.5986 -0.7902  0.3731
20242LIG     O182216   5.211   5.067  16.530  0.0100  0.0902 -0.5867
20242LIG     O282217   4.969   5.089  16.427  0.7334 -0.2718 -0.7774
20242LIG     O382218   5.138   4.775  16.589  0.3579 -0.1865 -0.3248
20242LIG     O482219   4.923   5.135  16.200  0.4463  0.7602 -0.1303
20242LIG     O582220   4.956   4.804  16.355  0.4365  0.7358  0.1473
20242LIG     O682221   4.771   4.766  16.135 -0.2604 -0.1649  0.0757
20242LIG     O782222   4.853   4.936  15.908 -0.7726  0.6513 -0.1688
20242LIG     O882223   4.980   5.325  15.972 -0.6232  0.2156 -0.0985
20242LIG     O982224   4.835   5.194  15.863 -0.2326  0.7122  0.3161
20242LIG      N82225   5.216   5.353  16.925  0.3095 -0.4982  0.1197
20242LIG     C182226   5.174   5.244  16.664 -0.5938  0.5960 -0.2022
20242LIG     C282227   5.078   5.355  16.710 -0.2576  0.6026  0.3152
20242LIG     C382228   5.174   5.203  16.519 -0.0580  0.0296  0.3087
20242LIG     C482229   5.080   5.342  16.868  0.1932 -0.8395  0.0415
20242LIG     C582230   5.317   5.254  16.719 -0.3832 -0.2477  0.0576
20242LIG     C682231   5.123   5.120  16.739 -0.8978  0.0681 -0.5872
20242LIG     C782232   5.017   5.214  16.928  0.2670  0.1119  0.6749
20242LIG     C882233   5.321   5.265  16.872 -0.3178  0.3444 -0.4412
20242LIG     C982234   5.041   5.215  16.454  0.6259  0.2330  0.4336
20242LIG    C1082235   5.045   5.098  16.844  0.1702 -0.1788  0.3554
20242LIG    C1182236   4.944   5.340  16.643 -0.1684  0.2270 -0.4240
20242LIG    C1282237   5.144   5.019  16.643 -0.4566  0.5032  0.9138
20242LIG    C1382238   4.929   5.280  16.526  0.5762  0.1470 -0.0484
20242LIG    C1482239   5.224   5.374  17.070  0.0886 -0.2191 -0.4642
20242LIG    C1582240   5.007   4.968  16.875  0.9543 -0.4019 -0.7656
20242LIG    C1682241   5.108   4.885  16.670 -1.0050 -0.0868  0.1670
20242LIG    C1782242   5.038   4.864  16.790 -0.7993 -0.0972  0.3387
20242LIG    C1882243   4.980   5.036  16.294  0.1309  0.4682 -0.6783
20242LIG    C1982244   4.891   4.908  16.279  0.2557 -0.3373 -0.7592
20242LIG    C2082245   4.876   4.864  16.137 -0.3705  0.4470 -0.0864
20242LIG    C2182246   4.845   4.979  16.044 -0.4738  0.0630 -0.1173
20242LIG    C2282247   4.940   5.096  16.061  0.0401 -0.3264  0.1786
20242LIG    C2382248   4.909   5.207  15.961 -0.0466  0.0617 -0.0130
20242LIG     H182249   5.123   5.453  16.681  0.7125  0.6868  1.9797
20242LIG     H282250   5.250   5.255  16.457  0.3070 -1.3773 -0.4837
20242LIG     H382251   5.027   5.436  16.897 -0.1810 -1.2387  0.6575
20242LIG     H482252   5.362   5.348  16.680  0.8150 -0.0360  1.8643
20242LIG     H582253   5.375   5.162  16.697 -1.2507 -0.5006 -1.3348
20242LIG     H682254   4.907   5.218  16.944 -0.2136 -0.0908 -2.1383
20242LIG     H782255   5.054   5.178  17.026 -0.3261 -1.6519  0.2986
20242LIG     H882256   5.309   5.168  16.924 -0.2467 -0.0922 -1.2172
20242LIG     H982257   5.426   5.297  16.894  0.4402 -2.7898  0.9788
20242LIG    H1082258   5.054   5.264  16.355  1.9554 -2.9324 -1.1002
20242LIG    H1182259   4.854   5.358  16.704  1.3803 -0.2891  2.1582
20242LIG    H1282260   4.835   5.280  16.470 -0.1794 -0.2253  1.1913
20242LIG    H1382261   5.303   5.447  17.095  1.6584 -1.3714 -1.8353
20242LIG    H1482262   5.243   5.275  17.118  0.7431  0.1698  0.0891
20242LIG    H1582263   5.127   5.403  17.114 -0.7430 -1.6135 -1.2831
20242LIG    H1682264   4.944   4.956  16.962  2.4072 -1.1406  0.2288
20242LIG    H1782265   4.992   4.768  16.811  2.1926 -1.0832  3.2944
20242LIG    H1882266   5.086   5.015  16.270  0.1155 -0.0389 -0.3139
20242LIG    H1982267   4.792   4.935  16.321  1.3662  1.5777  0.8017
20242LIG    H2082268   4.967   4.812  16.100 -1.0620 -1.3547  0.6333
20242LIG    H2182269   5.074   4.708  16.610  1.0945 -0.9338 -0.3912
20242LIG    H2282270   4.743   5.018  16.063 -0.1714  0.9806 -0.3634
20242LIG    H2382271   5.042   5.061  16.034 -0.3475  0.4029 -2.4660
20242LIG    H2482272   4.985   4.839  16.439  0.6871  0.9194 -0.0115
20242LIG    H2582273   4.776   4.713  16.055 -2.5758 -1.4872  0.7364
20242LIG    H2682274   4.809   5.005  15.858 -0.7770  0.9367  0.2340
20242LIG    H2782275   4.964   5.378  15.894 -1.7414  1.4404  0.9022
   6.84362   6.84362  17.19774
